 vasp.6.3.0 20Jan22 (build Feb 02 2022 18:12:33) complex

 executed on             LinuxIFC date 2022.04.15  08:50:21
 running on  144 total cores
 distrk:  each k-point on  144 cores,    1 groups
 distr:  one band on NCORE=   1 cores,  144 groups


--------------------------------------------------------------------------------------------------------


 INCAR:
   ALGO = Fast
   EDIFF = 1e-05
   ENAUG = 1360.0
   ENCUT = 500
   GGA = Ps
   ISMEAR = 0
   ISPIN = 2
   LAECHG = False
   LASPH = True
   LCHARG = True
   LELF = False
   LMIXTAU = True
   LORBIT = 11
   LREAL = False
   LVTOT = True
   LWAVE = True
   MAGMOM = 7*0.0
   NELECT = 27.0
   NELM = 200
   NELMIN = 6
   NSW = 0
   PREC = Accurate
   SIGMA = 0.05

 POTCAR:    PAW_PBE Si 05Jan2001
 WARNING: For LVTOT=.TRUE., VASP.5.x writes the TOTAL local potential to the
     file LOCPOT. If you want only the Hartree contributions, use LVHAR=.TRUE.
     instead.

 -----------------------------------------------------------------------------
|                                                                             |
|           W    W    AA    RRRRR   N    N  II  N    N   GGGG   !!!           |
|           W    W   A  A   R    R  NN   N  II  NN   N  G    G  !!!           |
|           W    W  A    A  R    R  N N  N  II  N N  N  G       !!!           |
|           W WW W  AAAAAA  RRRRR   N  N N  II  N  N N  G  GGG   !            |
|           WW  WW  A    A  R   R   N   NN  II  N   NN  G    G                |
|           W    W  A    A  R    R  N    N  II  N    N   GGGG   !!!           |
|                                                                             |
|     For optimal performance we recommend to set                             |
|       NCORE = 2 up to number-of-cores-per-socket                            |
|     NCORE specifies how many cores store one orbital (NPAR=cpu/NCORE).      |
|     This setting can greatly improve the performance of VASP for DFT.       |
|     The default, NCORE=1 might be grossly inefficient on modern             |
|     multi-core architectures or massively parallel machines. Do your        |
|     own testing! More info at https://www.vasp.at/wiki/index.php/NCORE      |
|     Unfortunately you need to use the default for GW and RPA                |
|     calculations (for HF NCORE is supported but not extensively tested      |
|     yet).                                                                   |
|                                                                             |
 -----------------------------------------------------------------------------

 POTCAR:    PAW_PBE Si 05Jan2001
   VRHFIN =Si: s2p2
   LEXCH  = PE
   EATOM  =   103.0669 eV,    7.5752 Ry

   TITEL  = PAW_PBE Si 05Jan2001
   LULTRA =        F    use ultrasoft PP ?
   IUNSCR =        1    unscreen: 0-lin 1-nonlin 2-no
   RPACOR =    1.500    partial core radius
   POMASS =   28.085; ZVAL   =    4.000    mass and valenz
   RCORE  =    1.900    outmost cutoff radius
   RWIGS  =    2.480; RWIGS  =    1.312    wigner-seitz radius (au A)
   ENMAX  =  245.345; ENMIN  =  184.009 eV
   ICORE  =        2    local potential
   LCOR   =        T    correct aug charges
   LPAW   =        T    paw PP
   EAUG   =  322.069
   DEXC   =    0.000
   RMAX   =    1.950    core radius for proj-oper
   RAUG   =    1.300    factor for augmentation sphere
   RDEP   =    1.993    radius for radial grids
   RDEPT  =    1.837    core radius for aug-charge

   Atomic configuration
    6 entries
     n  l   j            E        occ.
     1  0  0.50     -1785.8828   2.0000
     2  0  0.50      -139.4969   2.0000
     2  1  1.50       -95.5546   6.0000
     3  0  0.50       -10.8127   2.0000
     3  1  0.50        -4.0811   2.0000
     3  2  1.50        -4.0817   0.0000
   Description
     l       E           TYP  RCUT    TYP  RCUT
     0    -10.8127223     23  1.900
     0     -7.6451159     23  1.900
     1     -4.0811372     23  1.900
     1      2.4879257     23  1.900
     2     -4.0817478      7  1.900
  local pseudopotential read in
  partial core-charges read in
  partial kinetic energy density read in
  atomic valenz-charges read in
  non local Contribution for L=           0  read in
    real space projection operators read in
  non local Contribution for L=           0  read in
    real space projection operators read in
  non local Contribution for L=           1  read in
    real space projection operators read in
  non local Contribution for L=           1  read in
    real space projection operators read in
    PAW grid and wavefunctions read in

   number of l-projection  operators is LMAX  =           4
   number of lm-projection operators is LMMAX =           8

 -----------------------------------------------------------------------------
|                                                                             |
|               ----> ADVICE to this user running VASP <----                  |
|                                                                             |
|     You enforced a specific xc type in the INCAR file but a different       |
|     type was found in the POTCAR file.                                      |
|     I HOPE YOU KNOW WHAT YOU ARE DOING!                                     |
|                                                                             |
 -----------------------------------------------------------------------------

  PAW_PBE Si 05Jan2001                  :
 energy of atom  1       EATOM= -103.0669
 kinetic energy error for atom=    0.0006 (will be added to EATOM!!)


 POSCAR: Si7
  positions in direct lattice
  No initial velocities read in
 exchange correlation table for  LEXCH =       14
   RHO(1)=    0.500       N(1)  =     2000
   RHO(2)= 2000.500       N(2)  =     4000



--------------------------------------------------------------------------------------------------------


 ion  position               nearest neighbor table
   1  0.244  0.756  0.244-   2 2.34   4 2.34   6 2.34
   2  0.000  0.000  0.500-   1 2.34   3 2.34   5 2.34   7 2.34
   3  0.244  0.244  0.756-   2 2.34   4 2.34   6 2.34
   4  0.000  0.500  0.000-   1 2.34   3 2.34   5 2.34   7 2.34
   5  0.756  0.756  0.756-   2 2.34   4 2.34   6 2.34
   6  0.500  0.000  0.000-   1 2.34   3 2.34   5 2.34   7 2.34
   7  0.756  0.244  0.244-   2 2.34   4 2.34   6 2.34

  LATTYP: Found a simple cubic cell.
 ALAT       =     5.4378483500

  Lattice vectors:

 A1 = (   5.4378483500,   0.0000000000,   0.0000000000)
 A2 = (   0.0000000000,   5.4378483500,   0.0000000000)
 A3 = (   0.0000000000,   0.0000000000,   5.4378483500)


Analysis of symmetry for initial positions (statically):
=====================================================================
 Subroutine PRICEL returns:
 Original cell was already a primitive cell.


 Routine SETGRP: Setting up the symmetry group for a
 simple cubic supercell.


 Subroutine GETGRP returns: Found 24 space group operations
 (whereof 24 operations were pure point group operations)
 out of a pool of 48 trial point group operations.


The static configuration has the point symmetry T_d .


Analysis of symmetry for dynamics (positions and initial velocities):
=====================================================================
 Subroutine PRICEL returns:
 Original cell was already a primitive cell.


 Routine SETGRP: Setting up the symmetry group for a
 simple cubic supercell.


 Subroutine GETGRP returns: Found 24 space group operations
 (whereof 24 operations were pure point group operations)
 out of a pool of 48 trial point group operations.


The dynamic configuration has the point symmetry T_d .


Analysis of structural, dynamic, and magnetic symmetry:
=====================================================================
 Subroutine PRICEL returns:
 Original cell was already a primitive cell.


 Routine SETGRP: Setting up the symmetry group for a
 simple cubic supercell.


 Subroutine GETGRP returns: Found 24 space group operations
 (whereof 24 operations were pure point group operations)
 out of a pool of 48 trial point group operations.


The overall configuration has the point symmetry T_d .


 Subroutine INISYM returns: Found 24 space group operations
 (whereof 24 operations are pure point group operations),
 and found     1 'primitive' translations


----------------------------------------------------------------------------------------

                                     Primitive cell

  volume of cell :     160.7982

  direct lattice vectors                    reciprocal lattice vectors
     5.437848350  0.000000000  0.000000000     0.183896265  0.000000000  0.000000000
     0.000000000  5.437848350  0.000000000     0.000000000  0.183896265  0.000000000
     0.000000000  0.000000000  5.437848350     0.000000000  0.000000000  0.183896265

  length of vectors
     5.437848350  5.437848350  5.437848350     0.183896265  0.183896265  0.183896265

  position of ions in fractional coordinates (direct lattice)
     0.244013170  0.755986830  0.244013170
     0.000000000  0.000000000  0.500000000
     0.244013170  0.244013170  0.755986830
     0.000000000  0.500000000  0.000000000
     0.755986830  0.755986830  0.755986830
     0.500000000  0.000000000  0.000000000
     0.755986830  0.244013170  0.244013170

  ion indices of the primitive-cell ions
   primitive index   ion index
                 1           1
                 2           2
                 3           3
                 4           4
                 5           5
                 6           6
                 7           7

----------------------------------------------------------------------------------------



 KPOINTS: pymatgen with grid density = 691 / numbe

Automatic generation of k-mesh.
 Grid dimensions read from file:
 generate k-points for:    4    4    4

 Generating k-lattice:

  Cartesian coordinates                     Fractional coordinates (reciprocal lattice)
     0.045974066  0.000000000  0.000000000     0.250000000  0.000000000  0.000000000
     0.000000000  0.045974066  0.000000000     0.000000000  0.250000000  0.000000000
     0.000000000  0.000000000  0.045974066     0.000000000  0.000000000  0.250000000

  Length of vectors
     0.045974066  0.045974066  0.045974066

  Shift w.r.t. Gamma in fractional coordinates (k-lattice)
     0.000000000  0.000000000  0.000000000


 Subroutine IBZKPT returns following result:
 ===========================================

 Found     10 irreducible k-points:

 Following reciprocal coordinates:
            Coordinates               Weight
  0.000000  0.000000  0.000000      1.000000
  0.250000  0.000000  0.000000      6.000000
  0.500000  0.000000  0.000000      3.000000
  0.250000  0.250000  0.000000     12.000000
  0.500000  0.250000  0.000000     12.000000
  0.500000  0.500000  0.000000      3.000000
  0.250000  0.250000  0.250000      8.000000
  0.500000  0.250000  0.250000     12.000000
  0.500000  0.500000  0.250000      6.000000
  0.500000  0.500000  0.500000      1.000000

 Following cartesian coordinates:
            Coordinates               Weight
  0.000000  0.000000  0.000000      1.000000
  0.045974  0.000000  0.000000      6.000000
  0.091948  0.000000  0.000000      3.000000
  0.045974  0.045974  0.000000     12.000000
  0.091948  0.045974  0.000000     12.000000
  0.091948  0.091948  0.000000      3.000000
  0.045974  0.045974  0.045974      8.000000
  0.091948  0.045974  0.045974     12.000000
  0.091948  0.091948  0.045974      6.000000
  0.091948  0.091948  0.091948      1.000000



--------------------------------------------------------------------------------------------------------




 Dimension of arrays:
   k-points           NKPTS =     10   k-points in BZ     NKDIM =     10   number of bands    NBANDS=    144
   number of dos      NEDOS =    301   number of ions     NIONS =      7
   non local maximal  LDIM  =      4   non local SUM 2l+1 LMDIM =      8
   total plane-waves  NPLWV =  64000
   max r-space proj   IRMAX =      1   max aug-charges    IRDMAX=  13506
   dimension x,y,z NGX =    40 NGY =   40 NGZ =   40
   dimension x,y,z NGXF=    80 NGYF=   80 NGZF=   80
   support grid    NGXF=    80 NGYF=   80 NGZF=   80
   ions per type =               7
   NGX,Y,Z   is equivalent  to a cutoff of  12.23, 12.23, 12.23 a.u.
   NGXF,Y,Z  is equivalent  to a cutoff of  24.46, 24.46, 24.46 a.u.

 SYSTEM =  unknown system
 POSCAR =  Si7

 Startparameter for this run:
   NWRITE =      2    write-flag & timer
   PREC   = accura    normal or accurate (medium, high low for compatibility)
   ISTART =      0    job   : 0-new  1-cont  2-samecut
   ICHARG =      2    charge: 1-file 2-atom 10-const
   ISPIN  =      2    spin polarized calculation?
   LNONCOLLINEAR =      F non collinear calculations
   LSORBIT =      F    spin-orbit coupling
   INIWAV =      1    electr: 0-lowe 1-rand  2-diag
   LASPH  =      T    aspherical Exc in radial PAW
 Electronic Relaxation 1
   ENCUT  =  500.0 eV  36.75 Ry    6.06 a.u.   9.91  9.91  9.91*2*pi/ulx,y,z
   ENINI  =  500.0     initial cutoff
   ENAUG  = 1360.0 eV  augmentation charge cutoff
   NELM   =    200;   NELMIN=  6; NELMDL= -5     # of ELM steps
   EDIFF  = 0.1E-04   stopping-criterion for ELM
   LREAL  =      F    real-space projection
   NLSPLINE    = F    spline interpolate recip. space projectors
   LCOMPAT=      F    compatible to vasp.4.4
   GGA_COMPAT  = T    GGA compatible to vasp.4.4-vasp.4.6
   LMAXPAW     = -100 max onsite density
   LMAXMIX     =    2 max onsite mixed and CHGCAR
   VOSKOWN=      0    Vosko Wilk Nusair interpolation
   ROPT   =    0.00000
 Ionic relaxation
   EDIFFG = 0.1E-03   stopping-criterion for IOM
   NSW    =      0    number of steps for IOM
   NBLOCK =      1;   KBLOCK =      1    inner block; outer block
   IBRION =     -1    ionic relax: 0-MD 1-quasi-New 2-CG
   NFREE  =      0    steps in history (QN), initial steepest desc. (CG)
   ISIF   =      2    stress and relaxation
   IWAVPR =     10    prediction:  0-non 1-charg 2-wave 3-comb
   ISYM   =      2    0-nonsym 1-usesym 2-fastsym
   LCORR  =      T    Harris-Foulkes like correction to forces

   POTIM  = 0.5000    time-step for ionic-motion
   TEIN   =    0.0    initial temperature
   TEBEG  =    0.0;   TEEND  =   0.0 temperature during run
   SMASS  =  -3.00    Nose mass-parameter (am)
   estimated Nose-frequenzy (Omega)   =  0.10E-29 period in steps = 0.13E+47 mass=  -0.676E-27a.u.
   SCALEE = 1.0000    scale energy and forces
   NPACO  =    256;   APACO  = 10.0  distance and # of slots for P.C.
   PSTRESS=    0.0 pullay stress

  Mass of Ions in am
   POMASS =  28.09
  Ionic Valenz
   ZVAL   =   4.00
  Atomic Wigner-Seitz radii
   RWIGS  =  -1.00
  virtual crystal weights
   VCA    =   1.00
   NELECT =      27.0000    total number of electrons
   NUPDOWN=      -1.0000    fix difference up-down

 DOS related values:
   EMIN   =  10.00;   EMAX   =-10.00  energy-range for DOS
   EFERMI =   0.00
   ISMEAR =     0;   SIGMA  =   0.05  broadening in eV -4-tet -1-fermi 0-gaus

 Electronic relaxation 2 (details)
   IALGO  =     68    algorithm
   LDIAG  =      T    sub-space diagonalisation (order eigenvalues)
   LSUBROT=      F    optimize rotation matrix (better conditioning)
   TURBO    =      0    0=normal 1=particle mesh
   IRESTART =      0    0=no restart 2=restart with 2 vectors
   NREBOOT  =      0    no. of reboots
   NMIN     =      0    reboot dimension
   EREF     =   0.00    reference energy to select bands
   IMIX   =      4    mixing-type and parameters
     AMIX     =   0.40;   BMIX     =  1.00
     AMIX_MAG =   1.60;   BMIX_MAG =  1.00
     AMIN     =   0.10
     WC   =   100.;   INIMIX=   1;  MIXPRE=   1;  MAXMIX= -45

 Intra band minimization:
   WEIMIN = 0.0000     energy-eigenvalue tresh-hold
   EBREAK =  0.17E-07  absolut break condition
   DEPER  =   0.30     relativ break condition

   TIME   =   0.40     timestep for ELM

  volume/ion in A,a.u.               =      22.97       155.02
  Fermi-wavevector in a.u.,A,eV,Ry     =   0.903169  1.706742 11.098465  0.815714
  Thomas-Fermi vector in A             =   2.026462

 Write flags
   LWAVE        =      T    write WAVECAR
   LDOWNSAMPLE  =      F    k-point downsampling of WAVECAR
   LCHARG       =      T    write CHGCAR
   LVTOT        =      T    write LOCPOT, total local potential
   LVHAR        =      F    write LOCPOT, Hartree potential only
   LELF         =      F    write electronic localiz. function (ELF)
   LORBIT       =     11    0 simple, 1 ext, 2 COOP (PROOUT), +10 PAW based schemes


 Dipole corrections
   LMONO  =      F    monopole corrections only (constant potential shift)
   LDIPOL =      F    correct potential (dipole corrections)
   IDIPOL =      0    1-x, 2-y, 3-z, 4-all directions
   EPSILON=  1.0000000 bulk dielectric constant

 Exchange correlation treatment:
   GGA     =    PS    GGA type
   LEXCH   =    14    internal setting for exchange type
   LIBXC   =     F    Libxc
   VOSKOWN =     0    Vosko Wilk Nusair interpolation
   LHFCALC =     F    Hartree Fock is set to
   LHFONE  =     F    Hartree Fock one center treatment
   AEXX    =    0.0000 exact exchange contribution

 Linear response parameters
   LEPSILON=     F    determine dielectric tensor
   LRPA    =     F    only Hartree local field effects (RPA)
   LNABLA  =     F    use nabla operator in PAW spheres
   LVEL    =     F    velocity operator in full k-point grid
   CSHIFT  =0.1000    complex shift for real part using Kramers Kronig
   OMEGAMAX=  -1.0    maximum frequency
   DEG_THRESHOLD= 0.2000000E-02 threshold for treating states as degnerate
   RTIME   =   -0.100 relaxation time in fs
  (WPLASMAI=    0.000 imaginary part of plasma frequency in eV, 0.658/RTIME)
   DFIELD  = 0.0000000 0.0000000 0.0000000 field for delta impulse in time

  Optional k-point grid parameters
   LKPOINTS_OPT  =     F    use optional k-point grid
   KPOINTS_OPT_MODE=     1    mode for optional k-point grid

 Orbital magnetization related:
   ORBITALMAG=     F  switch on orbital magnetization
   LCHIMAG   =     F  perturbation theory with respect to B field
   DQ        =  0.001000  dq finite difference perturbation B field
   LLRAUG    =     F  two centre corrections for induced B field



--------------------------------------------------------------------------------------------------------


 Static calculation
 charge density and potential will be updated during run
 spin polarized calculation
 RMM-DIIS sequential band-by-band and
  variant of blocked Davidson during initial phase
 perform sub-space diagonalisation
    before iterative eigenvector-optimisation
 modified Broyden-mixing scheme, WC =      100.0
 initial mixing is a Kerker type mixing with AMIX =  0.4000 and BMIX =      1.0000
 Hartree-type preconditioning will be used
 using additional bands          130
 reciprocal scheme for non local part
 use partial core corrections
 calculate Harris-corrections to forces
   (improved forces if not selfconsistent)
 use gradient corrections
 use of overlap-Matrix (Vanderbilt PP)
 Gauss-broadening in eV      SIGMA  =   0.05


--------------------------------------------------------------------------------------------------------


  energy-cutoff  :      500.00
  volume of cell :      160.80
      direct lattice vectors                 reciprocal lattice vectors
     5.437848350  0.000000000  0.000000000     0.183896265  0.000000000  0.000000000
     0.000000000  5.437848350  0.000000000     0.000000000  0.183896265  0.000000000
     0.000000000  0.000000000  5.437848350     0.000000000  0.000000000  0.183896265

  length of vectors
     5.437848350  5.437848350  5.437848350     0.183896265  0.183896265  0.183896265



 k-points in units of 2pi/SCALE and weight: pymatgen with grid density = 691 / numbe
   0.00000000  0.00000000  0.00000000       0.016
   0.04597407  0.00000000  0.00000000       0.094
   0.09194813  0.00000000  0.00000000       0.047
   0.04597407  0.04597407  0.00000000       0.188
   0.09194813  0.04597407  0.00000000       0.188
   0.09194813  0.09194813  0.00000000       0.047
   0.04597407  0.04597407  0.04597407       0.125
   0.09194813  0.04597407  0.04597407       0.188
   0.09194813  0.09194813  0.04597407       0.094
   0.09194813  0.09194813  0.09194813       0.016

 k-points in reciprocal lattice and weights: pymatgen with grid density = 691 / numbe
   0.00000000  0.00000000  0.00000000       0.016
   0.25000000  0.00000000  0.00000000       0.094
   0.50000000  0.00000000  0.00000000       0.047
   0.25000000  0.25000000  0.00000000       0.188
   0.50000000  0.25000000  0.00000000       0.188
   0.50000000  0.50000000  0.00000000       0.047
   0.25000000  0.25000000  0.25000000       0.125
   0.50000000  0.25000000  0.25000000       0.188
   0.50000000  0.50000000  0.25000000       0.094
   0.50000000  0.50000000  0.50000000       0.016

 position of ions in fractional coordinates (direct lattice)
   0.24401317  0.75598683  0.24401317
   0.00000000  0.00000000  0.50000000
   0.24401317  0.24401317  0.75598683
   0.00000000  0.50000000  0.00000000
   0.75598683  0.75598683  0.75598683
   0.50000000  0.00000000  0.00000000
   0.75598683  0.24401317  0.24401317

 position of ions in cartesian coordinates  (Angst):
   1.32690661  4.11094174  1.32690661
   0.00000000  0.00000000  2.71892418
   1.32690661  1.32690661  4.11094174
   0.00000000  2.71892418  0.00000000
   4.11094174  4.11094174  4.11094174
   2.71892418  0.00000000  0.00000000
   4.11094174  1.32690661  1.32690661



--------------------------------------------------------------------------------------------------------


 k-point   1 :   0.0000 0.0000 0.0000  plane waves:    4067
 k-point   2 :   0.2500 0.0000 0.0000  plane waves:    4072
 k-point   3 :   0.5000 0.0000 0.0000  plane waves:    4116
 k-point   4 :   0.2500 0.2500 0.0000  plane waves:    4080
 k-point   5 :   0.5000 0.2500 0.0000  plane waves:    4072
 k-point   6 :   0.5000 0.5000 0.0000  plane waves:    4076
 k-point   7 :   0.2500 0.2500 0.2500  plane waves:    4094
 k-point   8 :   0.5000 0.2500 0.2500  plane waves:    4076
 k-point   9 :   0.5000 0.5000 0.2500  plane waves:    4092
 k-point  10 :   0.5000 0.5000 0.5000  plane waves:    4032

 maximum and minimum number of plane-waves per node :      4116     4032

 maximum number of plane-waves:      4116
 maximum index in each direction:
   IXMAX=    9   IYMAX=    9   IZMAX=    9
   IXMIN=  -10   IYMIN=  -10   IZMIN=  -10


 serial   3D FFT for wavefunctions
 parallel 3D FFT for charge:
    minimum data exchange during FFTs selected (reduces bandwidth)


 total amount of memory used by VASP MPI-rank0    40713. kBytes
=======================================================================

   base      :      30000. kBytes
   nonl-proj :       3140. kBytes
   fftplans  :        508. kBytes
   grid      :       5640. kBytes
   one-center:         43. kBytes
   wavefun   :       1382. kBytes

     INWAV:  cpu time      0.0000: real time      0.0000
 Broyden mixing: mesh for mixing (old mesh)
   NGX = 19   NGY = 19   NGZ = 19
  (NGX  = 80   NGY  = 80   NGZ  = 80)
  gives a total of   6859 points

 initial charge density was supplied:
 charge density of overlapping atoms calculated
 number of electron      28.0000000 magnetization       0.0000000
 keeping initial charge density in first step


--------------------------------------------------------------------------------------------------------


 Maximum index for augmentation-charges          665 (set IRDMAX)


--------------------------------------------------------------------------------------------------------


 First call to EWALD:  gamma=   0.326
 Maximum number of real-space cells 3x 3x 3
 Maximum number of reciprocal cells 3x 3x 3

    FEWALD:  cpu time      0.0016: real time      0.0030


--------------------------------------- Iteration      1(   1)  ---------------------------------------


    POTLOK:  cpu time      0.0241: real time      0.0289
    SETDIJ:  cpu time      0.1794: real time      0.1794
     EDDAV:  cpu time      5.1954: real time      5.1961
       DOS:  cpu time      0.0032: real time      0.0032
    --------------------------------------------
      LOOP:  cpu time      5.4021: real time      5.4077

 eigenvalue-minimisations  :  5760
 total energy-change (2. order) :-0.2411721E+02  (-0.1091436E+04)
 number of electron      28.0000000 magnetization       0.0000000
 augmentation part       28.0000000 magnetization       0.0000000

 Free energy of the ion-electron system (eV)
  ---------------------------------------------------
  alpha Z        PSCENC =        10.25815623
  Ewald energy   TEWEN  =      -737.40195061
  -Hartree energ DENC   =       -64.22387377
  -exchange      EXHF   =         0.00000000
  -V(xc)+E(xc)   XCENC  =       -62.35947365
  PAW double counting   =       612.34974655     -491.33201702
  entropy T*S    EENTRO =        -0.00499217
  eigenvalues    EBANDS =        -9.43092686
  atomic energy  EATOM  =       718.02812073
  Solvation  Ediel_sol  =         0.00000000
  ---------------------------------------------------
  free energy    TOTEN  =       -24.11721058 eV

  energy without entropy =      -24.11221841  energy(sigma->0) =      -24.11471449


--------------------------------------------------------------------------------------------------------




--------------------------------------- Iteration      1(   2)  ---------------------------------------


     EDDAV:  cpu time     12.3491: real time     12.3686
       DOS:  cpu time      0.0023: real time      0.0023
    --------------------------------------------
      LOOP:  cpu time     12.3513: real time     12.3709

 eigenvalue-minimisations  :  8640
 total energy-change (2. order) :-0.1817057E+02  (-0.1817027E+02)
 number of electron      28.0000000 magnetization       0.0000000
 augmentation part       28.0000000 magnetization       0.0000000

 Free energy of the ion-electron system (eV)
  ---------------------------------------------------
  alpha Z        PSCENC =        10.25815623
  Ewald energy   TEWEN  =      -737.40195061
  -Hartree energ DENC   =       -64.22387377
  -exchange      EXHF   =         0.00000000
  -V(xc)+E(xc)   XCENC  =       -62.35947365
  PAW double counting   =       612.34974655     -491.33201702
  entropy T*S    EENTRO =        -0.00528927
  eigenvalues    EBANDS =       -27.60119966
  atomic energy  EATOM  =       718.02812073
  Solvation  Ediel_sol  =         0.00000000
  ---------------------------------------------------
  free energy    TOTEN  =       -42.28778048 eV

  energy without entropy =      -42.28249121  energy(sigma->0) =      -42.28513584


--------------------------------------------------------------------------------------------------------




--------------------------------------- Iteration      1(   3)  ---------------------------------------


     EDDAV:  cpu time      5.3130: real time      5.3310
       DOS:  cpu time      0.0028: real time      0.0028
    --------------------------------------------
      LOOP:  cpu time      5.3158: real time      5.3338

 eigenvalue-minimisations  :  5760
 total energy-change (2. order) :-0.1462021E-01  (-0.1462020E-01)
 number of electron      28.0000000 magnetization       0.0000000
 augmentation part       28.0000000 magnetization       0.0000000

 Free energy of the ion-electron system (eV)
  ---------------------------------------------------
  alpha Z        PSCENC =        10.25815623
  Ewald energy   TEWEN  =      -737.40195061
  -Hartree energ DENC   =       -64.22387377
  -exchange      EXHF   =         0.00000000
  -V(xc)+E(xc)   XCENC  =       -62.35947365
  PAW double counting   =       612.34974655     -491.33201702
  entropy T*S    EENTRO =        -0.00528928
  eigenvalues    EBANDS =       -27.61581985
  atomic energy  EATOM  =       718.02812073
  Solvation  Ediel_sol  =         0.00000000
  ---------------------------------------------------
  free energy    TOTEN  =       -42.30240069 eV

  energy without entropy =      -42.29711141  energy(sigma->0) =      -42.29975605


--------------------------------------------------------------------------------------------------------




--------------------------------------- Iteration      1(   4)  ---------------------------------------


     EDDAV:  cpu time     25.4706: real time     25.4899
       DOS:  cpu time      0.0027: real time      0.0027
    --------------------------------------------
      LOOP:  cpu time     25.4733: real time     25.4926

 eigenvalue-minimisations  : 11520
 total energy-change (2. order) :-0.7884745E-05  (-0.7884724E-05)
 number of electron      28.0000000 magnetization       0.0000000
 augmentation part       28.0000000 magnetization       0.0000000

 Free energy of the ion-electron system (eV)
  ---------------------------------------------------
  alpha Z        PSCENC =        10.25815623
  Ewald energy   TEWEN  =      -737.40195061
  -Hartree energ DENC   =       -64.22387377
  -exchange      EXHF   =         0.00000000
  -V(xc)+E(xc)   XCENC  =       -62.35947365
  PAW double counting   =       612.34974655     -491.33201702
  entropy T*S    EENTRO =        -0.00528928
  eigenvalues    EBANDS =       -27.61582774
  atomic energy  EATOM  =       718.02812073
  Solvation  Ediel_sol  =         0.00000000
  ---------------------------------------------------
  free energy    TOTEN  =       -42.30240857 eV

  energy without entropy =      -42.29711929  energy(sigma->0) =      -42.29976393


--------------------------------------------------------------------------------------------------------




--------------------------------------- Iteration      1(   5)  ---------------------------------------


     EDDAV:  cpu time      5.6724: real time      5.6948
       DOS:  cpu time      0.0025: real time      0.0026
    CHARGE:  cpu time      0.0459: real time      0.0459
    MIXING:  cpu time      0.0020: real time      0.0023
    --------------------------------------------
      LOOP:  cpu time      5.7228: real time      5.7455

 eigenvalue-minimisations  :  5760
 total energy-change (2. order) : 0.1738272E-09  (-0.2561990E-11)
 number of electron      27.0000001 magnetization       0.0000000
 augmentation part       -1.6347899 magnetization       0.0000000

 Broyden mixing:
  rms(total) = 0.86460E+00    rms(broyden)= 0.86100E+00
  rms(prec ) = 0.12647E+01
  weight for this iteration     100.00

 Free energy of the ion-electron system (eV)
  ---------------------------------------------------
  alpha Z        PSCENC =        10.25815623
  Ewald energy   TEWEN  =      -737.40195061
  -Hartree energ DENC   =       -64.22387377
  -exchange      EXHF   =         0.00000000
  -V(xc)+E(xc)   XCENC  =       -62.35947365
  PAW double counting   =       612.34974655     -491.33201702
  entropy T*S    EENTRO =        -0.00528928
  eigenvalues    EBANDS =       -27.61582774
  atomic energy  EATOM  =       718.02812073
  Solvation  Ediel_sol  =         0.00000000
  ---------------------------------------------------
  free energy    TOTEN  =       -42.30240857 eV

  energy without entropy =      -42.29711929  energy(sigma->0) =      -42.29976393


--------------------------------------------------------------------------------------------------------




--------------------------------------- Iteration      1(   6)  ---------------------------------------


    POTLOK:  cpu time      0.0256: real time      0.0445
    SETDIJ:  cpu time      0.1998: real time      0.1998
    EDDIAG:  cpu time      0.8070: real time      0.8076
  RMM-DIIS:  cpu time      0.1923: real time      0.1928
    ORTHCH:  cpu time      0.1141: real time      0.1141
       DOS:  cpu time      0.0025: real time      0.0025
    CHARGE:  cpu time      0.0377: real time      0.0377
    MIXING:  cpu time      0.0005: real time      0.0006
    --------------------------------------------
      LOOP:  cpu time      1.3795: real time      1.3996

 eigenvalue-minimisations  :  5801
 total energy-change (2. order) : 0.5144845E+00  (-0.1358160E-02)
 number of electron      27.0000001 magnetization       0.0000000
 augmentation part       -1.6359697 magnetization      -0.0000000

 Broyden mixing:
  rms(total) = 0.49695E+00    rms(broyden)= 0.49695E+00
  rms(prec ) = 0.68636E+00
  weight for this iteration     100.00

 eigenvalues of (default mixing * dielectric matrix)
  average eigenvalue GAMMA=   2.3058
  2.3058

 Free energy of the ion-electron system (eV)
  ---------------------------------------------------
  alpha Z        PSCENC =        10.25815623
  Ewald energy   TEWEN  =      -737.40195061
  -Hartree energ DENC   =       -69.17530580
  -exchange      EXHF   =         0.00000000
  -V(xc)+E(xc)   XCENC  =       -64.37626887
  PAW double counting   =      1222.35591589    -1101.54448475
  entropy T*S    EENTRO =        -0.00528928
  eigenvalues    EBANDS =       -19.92681757
  atomic energy  EATOM  =       718.02812073
  Solvation  Ediel_sol  =         0.00000000
  ---------------------------------------------------
  free energy    TOTEN  =       -41.78792403 eV

  energy without entropy =      -41.78263476  energy(sigma->0) =      -41.78527939


--------------------------------------------------------------------------------------------------------




--------------------------------------- Iteration      1(   7)  ---------------------------------------


    POTLOK:  cpu time      0.0206: real time      0.0365
    SETDIJ:  cpu time      0.1999: real time      0.1999
    EDDIAG:  cpu time      0.7764: real time      0.7764
  RMM-DIIS:  cpu time      0.3037: real time      0.3037
    ORTHCH:  cpu time      0.1124: real time      0.1124
       DOS:  cpu time      0.0026: real time      0.0026
    CHARGE:  cpu time      0.0368: real time      0.0368
    MIXING:  cpu time      0.0004: real time      0.0004
    --------------------------------------------
      LOOP:  cpu time      1.4529: real time      1.4688

 eigenvalue-minimisations  :  6834
 total energy-change (2. order) : 0.2040292E+00  (-0.2228093E-02)
 number of electron      27.0000001 magnetization      -0.0000012
 augmentation part       -1.6276619 magnetization      -0.0000004

 Broyden mixing:
  rms(total) = 0.81694E-01    rms(broyden)= 0.81694E-01
  rms(prec ) = 0.13027E+00
  weight for this iteration     100.00

 eigenvalues of (default mixing * dielectric matrix)
  average eigenvalue GAMMA=   1.8654
  1.4136  2.3172

 Free energy of the ion-electron system (eV)
  ---------------------------------------------------
  alpha Z        PSCENC =        10.25815623
  Ewald energy   TEWEN  =      -737.40195061
  -Hartree energ DENC   =       -75.11864247
  -exchange      EXHF   =         0.00000000
  -V(xc)+E(xc)   XCENC  =       -63.58089898
  PAW double counting   =      2295.27476812    -2174.69993793
  entropy T*S    EENTRO =        -0.00528928
  eigenvalues    EBANDS =       -14.33822067
  atomic energy  EATOM  =       718.02812073
  Solvation  Ediel_sol  =         0.00000000
  ---------------------------------------------------
  free energy    TOTEN  =       -41.58389487 eV

  energy without entropy =      -41.57860559  energy(sigma->0) =      -41.58125023


--------------------------------------------------------------------------------------------------------




--------------------------------------- Iteration      1(   8)  ---------------------------------------


    POTLOK:  cpu time      0.0192: real time      0.0384
    SETDIJ:  cpu time      0.2000: real time      0.2001
    EDDIAG:  cpu time      0.7735: real time      0.7735
  RMM-DIIS:  cpu time      0.2696: real time      0.2696
    ORTHCH:  cpu time      0.1119: real time      0.1119
       DOS:  cpu time      0.0023: real time      0.0023
    CHARGE:  cpu time      0.0364: real time      0.0364
    MIXING:  cpu time      0.0004: real time      0.0004
    --------------------------------------------
      LOOP:  cpu time      1.4134: real time      1.4327

 eigenvalue-minimisations  :  6149
 total energy-change (2. order) : 0.8171144E-02  (-0.2407595E-03)
 number of electron      27.0000001 magnetization      -0.0000016
 augmentation part       -1.6296922 magnetization       0.0000000

 Broyden mixing:
  rms(total) = 0.19800E-01    rms(broyden)= 0.19800E-01
  rms(prec ) = 0.30480E-01
  weight for this iteration     100.00

 eigenvalues of (default mixing * dielectric matrix)
  average eigenvalue GAMMA=   1.5629
  2.2645  1.2122  1.2122

 Free energy of the ion-electron system (eV)
  ---------------------------------------------------
  alpha Z        PSCENC =        10.25815623
  Ewald energy   TEWEN  =      -737.40195061
  -Hartree energ DENC   =       -74.92950076
  -exchange      EXHF   =         0.00000000
  -V(xc)+E(xc)   XCENC  =       -63.50259752
  PAW double counting   =      2459.18275502    -2338.60658649
  entropy T*S    EENTRO =        -0.00528928
  eigenvalues    EBANDS =       -14.59883104
  atomic energy  EATOM  =       718.02812073
  Solvation  Ediel_sol  =         0.00000000
  ---------------------------------------------------
  free energy    TOTEN  =       -41.57572373 eV

  energy without entropy =      -41.57043445  energy(sigma->0) =      -41.57307909


--------------------------------------------------------------------------------------------------------




--------------------------------------- Iteration      1(   9)  ---------------------------------------


    POTLOK:  cpu time      0.0194: real time      0.0397
    SETDIJ:  cpu time      0.1996: real time      0.1996
    EDDIAG:  cpu time      0.7792: real time      0.7794
  RMM-DIIS:  cpu time      0.3122: real time      0.3122
    ORTHCH:  cpu time      0.1134: real time      0.1134
       DOS:  cpu time      0.0025: real time      0.0025
    CHARGE:  cpu time      0.0381: real time      0.0381
    MIXING:  cpu time      0.0004: real time      0.0004
    --------------------------------------------
      LOOP:  cpu time      1.4648: real time      1.4852

 eigenvalue-minimisations  :  6712
 total energy-change (2. order) : 0.9370416E-04  (-0.2737150E-04)
 number of electron      27.0000001 magnetization      -0.0000008
 augmentation part       -1.6301724 magnetization       0.0000005

 Broyden mixing:
  rms(total) = 0.13161E-01    rms(broyden)= 0.13161E-01
  rms(prec ) = 0.16655E-01
  weight for this iteration     100.00

 eigenvalues of (default mixing * dielectric matrix)
  average eigenvalue GAMMA=   1.9934
  1.2516  1.2516  2.7353  2.7353

 Free energy of the ion-electron system (eV)
  ---------------------------------------------------
  alpha Z        PSCENC =        10.25815623
  Ewald energy   TEWEN  =      -737.40195061
  -Hartree energ DENC   =       -75.11485738
  -exchange      EXHF   =         0.00000000
  -V(xc)+E(xc)   XCENC  =       -63.46868280
  PAW double counting   =      2489.61214942    -2369.03994430
  entropy T*S    EENTRO =        -0.00528928
  eigenvalues    EBANDS =       -14.44333202
  atomic energy  EATOM  =       718.02812073
  Solvation  Ediel_sol  =         0.00000000
  ---------------------------------------------------
  free energy    TOTEN  =       -41.57563002 eV

  energy without entropy =      -41.57034075  energy(sigma->0) =      -41.57298538


--------------------------------------------------------------------------------------------------------




--------------------------------------- Iteration      1(  10)  ---------------------------------------


    POTLOK:  cpu time      0.0195: real time      0.0400
    SETDIJ:  cpu time      0.2002: real time      0.2002
    EDDIAG:  cpu time      0.7747: real time      0.7748
  RMM-DIIS:  cpu time      0.3008: real time      0.3009
    ORTHCH:  cpu time      0.1123: real time      0.1123
       DOS:  cpu time      0.0024: real time      0.0024
    CHARGE:  cpu time      0.0370: real time      0.0370
    MIXING:  cpu time      0.0005: real time      0.0005
    --------------------------------------------
      LOOP:  cpu time      1.4474: real time      1.4680

 eigenvalue-minimisations  :  6443
 total energy-change (2. order) :-0.6068504E-04  (-0.7936738E-05)
 number of electron      27.0000001 magnetization      -0.0000006
 augmentation part       -1.6310233 magnetization      -0.0000000

 Broyden mixing:
  rms(total) = 0.35598E-02    rms(broyden)= 0.35598E-02
  rms(prec ) = 0.68579E-02
  weight for this iteration     100.00

 eigenvalues of (default mixing * dielectric matrix)
  average eigenvalue GAMMA=   1.7544
  2.6261  0.9892  2.1421  1.5074  1.5074

 Free energy of the ion-electron system (eV)
  ---------------------------------------------------
  alpha Z        PSCENC =        10.25815623
  Ewald energy   TEWEN  =      -737.40195061
  -Hartree energ DENC   =       -75.00055146
  -exchange      EXHF   =         0.00000000
  -V(xc)+E(xc)   XCENC  =       -63.46629351
  PAW double counting   =      2443.16777411    -2322.58770458
  entropy T*S    EENTRO =        -0.00528928
  eigenvalues    EBANDS =       -14.56795233
  atomic energy  EATOM  =       718.02812073
  Solvation  Ediel_sol  =         0.00000000
  ---------------------------------------------------
  free energy    TOTEN  =       -41.57569071 eV

  energy without entropy =      -41.57040143  energy(sigma->0) =      -41.57304607


--------------------------------------------------------------------------------------------------------




--------------------------------------- Iteration      1(  11)  ---------------------------------------


    POTLOK:  cpu time      0.0215: real time      0.0399
    SETDIJ:  cpu time      0.1996: real time      0.1996
    EDDIAG:  cpu time      0.7594: real time      0.7594
  RMM-DIIS:  cpu time      0.3176: real time      0.3176
    ORTHCH:  cpu time      0.1110: real time      0.1110
       DOS:  cpu time      0.0025: real time      0.0025
    CHARGE:  cpu time      0.0368: real time      0.0368
    MIXING:  cpu time      0.0004: real time      0.0004
    --------------------------------------------
      LOOP:  cpu time      1.4489: real time      1.4672

 eigenvalue-minimisations  :  6870
 total energy-change (2. order) : 0.3917185E-04  (-0.9648152E-06)
 number of electron      27.0000001 magnetization      -0.0000002
 augmentation part       -1.6308840 magnetization       0.0000002

 Broyden mixing:
  rms(total) = 0.23133E-02    rms(broyden)= 0.23133E-02
  rms(prec ) = 0.24194E-02
  weight for this iteration     100.00

 eigenvalues of (default mixing * dielectric matrix)
  average eigenvalue GAMMA=   1.7737
  2.8728  2.4553  1.9524  1.4266  0.9676  0.9676

 Free energy of the ion-electron system (eV)
  ---------------------------------------------------
  alpha Z        PSCENC =        10.25815623
  Ewald energy   TEWEN  =      -737.40195061
  -Hartree energ DENC   =       -75.08277554
  -exchange      EXHF   =         0.00000000
  -V(xc)+E(xc)   XCENC  =       -63.45797615
  PAW double counting   =      2455.97003444    -2335.39373540
  entropy T*S    EENTRO =        -0.00528928
  eigenvalues    EBANDS =       -14.49023595
  atomic energy  EATOM  =       718.02812073
  Solvation  Ediel_sol  =         0.00000000
  ---------------------------------------------------
  free energy    TOTEN  =       -41.57565154 eV

  energy without entropy =      -41.57036226  energy(sigma->0) =      -41.57300690


--------------------------------------------------------------------------------------------------------




--------------------------------------- Iteration      1(  12)  ---------------------------------------


    POTLOK:  cpu time      0.0194: real time      0.0394
    SETDIJ:  cpu time      0.2000: real time      0.2000
    EDDIAG:  cpu time      0.7529: real time      0.7530
  RMM-DIIS:  cpu time      0.3129: real time      0.3129
    ORTHCH:  cpu time      0.1116: real time      0.1116
       DOS:  cpu time      0.0025: real time      0.0025
    --------------------------------------------
      LOOP:  cpu time      1.3993: real time      1.4195

 eigenvalue-minimisations  :  5435
 total energy-change (2. order) :-0.5398873E-06  (-0.1195018E-06)
 number of electron      27.0000001 magnetization      -0.0000002
 augmentation part       -1.6308840 magnetization       0.0000002

 Free energy of the ion-electron system (eV)
  ---------------------------------------------------
  alpha Z        PSCENC =        10.25815623
  Ewald energy   TEWEN  =      -737.40195061
  -Hartree energ DENC   =       -75.08971011
  -exchange      EXHF   =         0.00000000
  -V(xc)+E(xc)   XCENC  =       -63.45765065
  PAW double counting   =      2449.11453538    -2328.53839187
  entropy T*S    EENTRO =        -0.00528928
  eigenvalues    EBANDS =       -14.48347189
  atomic energy  EATOM  =       718.02812073
  Solvation  Ediel_sol  =         0.00000000
  ---------------------------------------------------
  free energy    TOTEN  =       -41.57565208 eV

  energy without entropy =      -41.57036280  energy(sigma->0) =      -41.57300744


--------------------------------------------------------------------------------------------------------




 average (electrostatic) potential at core
  the test charge radii are     0.9892
  (the norm of the test charge is              1.0000)
       1 -84.8549       2 -84.4426       3 -84.8549       4 -84.4426       5 -84.8549
       6 -84.4426       7 -84.8549



 E-fermi :   4.2422     XC(G=0):  -8.8996     alpha+bet :-10.4276

 Fermi energy:         4.2422016843

 spin component 1

 k-point     1 :       0.0000    0.0000    0.0000
  band No.  band energies     occupation
      1      -7.0236      1.00000
      2      -3.3356      1.00000
      3      -3.3356      1.00000
      4      -2.9777      1.00000
      5      -2.9777      1.00000
      6      -2.9777      1.00000
      7       1.5229      1.00000
      8       1.6940      1.00000
      9       1.6940      1.00000
     10       1.6940      1.00000
     11       2.7328      1.00000
     12       2.7328      1.00000
     13       2.7328      1.00000
     14       5.6992      0.00000
     15       5.6992      0.00000
     16       5.6992      0.00000
     17       5.9124      0.00000
     18       5.9124      0.00000
     19       6.0186      0.00000
     20       6.1342      0.00000
     21       6.1342      0.00000
     22       6.1342      0.00000
     23       8.9851      0.00000
     24       8.9851      0.00000
     25       8.9851      0.00000
     26      10.6054      0.00000
     27      12.8959      0.00000
     28      12.8959      0.00000
     29      13.4657      0.00000
     30      14.6994      0.00000
     31      14.6994      0.00000
     32      14.6994      0.00000
     33      15.4256      0.00000
     34      15.4256      0.00000
     35      15.4256      0.00000
     36      15.4297      0.00000
     37      15.4297      0.00000
     38      15.4297      0.00000
     39      16.5502      0.00000
     40      16.5502      0.00000
     41      16.5502      0.00000
     42      17.0827      0.00000
     43      17.4599      0.00000
     44      17.4599      0.00000
     45      17.5361      0.00000
     46      17.5361      0.00000
     47      17.5361      0.00000
     48      18.5454      0.00000
     49      18.5454      0.00000
     50      18.5454      0.00000
     51      19.2304      0.00000
     52      19.4239      0.00000
     53      19.4239      0.00000
     54      20.3583      0.00000
     55      21.1296      0.00000
     56      21.1296      0.00000
     57      21.1296      0.00000
     58      23.5092      0.00000
     59      23.8026      0.00000
     60      23.8026      0.00000
     61      23.8026      0.00000
     62      24.6476      0.00000
     63      24.6476      0.00000
     64      24.6476      0.00000
     65      25.1277      0.00000
     66      25.1277      0.00000
     67      25.1277      0.00000
     68      25.2292      0.00000
     69      25.2292      0.00000
     70      25.2292      0.00000
     71      25.9498      0.00000
     72      25.9498      0.00000
     73      26.2118      0.00000
     74      26.2118      0.00000
     75      26.6146      0.00000
     76      26.6146      0.00000
     77      26.6146      0.00000
     78      27.4683      0.00000
     79      27.4683      0.00000
     80      27.4683      0.00000
     81      27.7012      0.00000
     82      28.1826      0.00000
     83      28.1826      0.00000
     84      28.1826      0.00000
     85      29.3179      0.00000
     86      29.3179      0.00000
     87      31.0261      0.00000
     88      31.5394      0.00000
     89      31.5394      0.00000
     90      31.5394      0.00000
     91      32.8797      0.00000
     92      32.8797      0.00000
     93      33.5349      0.00000
     94      33.5349      0.00000
     95      33.5349      0.00000
     96      33.6841      0.00000
     97      33.6841      0.00000
     98      33.6841      0.00000
     99      36.0150      0.00000
    100      36.0150      0.00000
    101      36.0150      0.00000
    102      37.1733      0.00000
    103      37.1733      0.00000
    104      37.1733      0.00000
    105      39.1197      0.00000
    106      39.1197      0.00000
    107      39.1591      0.00000
    108      39.1591      0.00000
    109      39.1591      0.00000
    110      39.1860      0.00000
    111      39.1860      0.00000
    112      39.1860      0.00000
    113      39.5079      0.00000
    114      40.5146      0.00000
    115      40.5146      0.00000
    116      40.5146      0.00000
    117      40.5454      0.00000
    118      40.9243      0.00000
    119      40.9243      0.00000
    120      40.9243      0.00000
    121      42.1855      0.00000
    122      42.1855      0.00000
    123      42.4510      0.00000
    124      42.4510      0.00000
    125      42.4510      0.00000
    126      42.6948      0.00000
    127      42.9368      0.00000
    128      43.1927      0.00000
    129      43.1927      0.00000
    130      43.1927      0.00000
    131      43.3258      0.00000
    132      43.3258      0.00000
    133      44.3436      0.00000
    134      44.3436      0.00000
    135      44.3436      0.00000
    136      45.0598      0.00000
    137      45.0608      0.00000
    138      45.3080      0.00000
    139      45.3080      0.00000
    140      45.3080      0.00000
    141      45.5217      0.00000
    142      45.5217      0.00000
    143      45.5217      0.00000
    144      46.2180      0.00000

 k-point     2 :       0.2500    0.0000    0.0000
  band No.  band energies     occupation
      1      -6.7865      1.00000
      2      -4.6647      1.00000
      3      -3.2734      1.00000
      4      -2.9130      1.00000
      5      -2.9130      1.00000
      6      -1.5579      1.00000
      7       1.2526      1.00000
      8       1.4257      1.00000
      9       1.4257      1.00000
     10       1.6731      1.00000
     11       2.1188      1.00000
     12       2.5822      1.00000
     13       2.5822      1.00000
     14       5.0330      0.00000
     15       5.4962      0.00000
     16       5.4962      0.00000
     17       5.8040      0.00000
     18       6.4185      0.00000
     19       6.9775      0.00000
     20       6.9775      0.00000
     21       7.0508      0.00000
     22       7.3308      0.00000
     23       8.6096      0.00000
     24       9.9269      0.00000
     25       9.9269      0.00000
     26      10.9051      0.00000
     27      12.1482      0.00000
     28      12.3745      0.00000
     29      12.3745      0.00000
     30      12.6021      0.00000
     31      13.1859      0.00000
     32      13.5914      0.00000
     33      14.5633      0.00000
     34      14.6021      0.00000
     35      14.6021      0.00000
     36      14.9060      0.00000
     37      15.8301      0.00000
     38      15.8301      0.00000
     39      16.0981      0.00000
     40      16.8233      0.00000
     41      16.9276      0.00000
     42      16.9276      0.00000
     43      17.1704      0.00000
     44      17.5005      0.00000
     45      17.9718      0.00000
     46      18.4335      0.00000
     47      18.4335      0.00000
     48      19.1783      0.00000
     49      19.1783      0.00000
     50      19.5009      0.00000
     51      19.8437      0.00000
     52      20.0988      0.00000
     53      20.9161      0.00000
     54      21.2242      0.00000
     55      21.5149      0.00000
     56      21.5149      0.00000
     57      21.6649      0.00000
     58      22.3178      0.00000
     59      22.4922      0.00000
     60      22.4922      0.00000
     61      23.0722      0.00000
     62      23.4884      0.00000
     63      23.4884      0.00000
     64      23.8742      0.00000
     65      24.2926      0.00000
     66      24.4855      0.00000
     67      24.6320      0.00000
     68      24.6320      0.00000
     69      25.2232      0.00000
     70      25.6598      0.00000
     71      25.6598      0.00000
     72      26.3468      0.00000
     73      26.9641      0.00000
     74      27.2938      0.00000
     75      27.2938      0.00000
     76      27.8421      0.00000
     77      27.9899      0.00000
     78      28.1832      0.00000
     79      28.5945      0.00000
     80      28.7437      0.00000
     81      28.7683      0.00000
     82      28.7683      0.00000
     83      29.4167      0.00000
     84      29.7188      0.00000
     85      29.7188      0.00000
     86      30.0978      0.00000
     87      30.5358      0.00000
     88      30.8813      0.00000
     89      31.3665      0.00000
     90      31.4929      0.00000
     91      31.4929      0.00000
     92      32.7413      0.00000
     93      32.7413      0.00000
     94      32.8442      0.00000
     95      34.1420      0.00000
     96      34.8519      0.00000
     97      34.8519      0.00000
     98      34.8942      0.00000
     99      35.2396      0.00000
    100      36.0060      0.00000
    101      36.0060      0.00000
    102      36.7083      0.00000
    103      36.7083      0.00000
    104      36.9144      0.00000
    105      36.9879      0.00000
    106      37.3074      0.00000
    107      37.4391      0.00000
    108      37.5384      0.00000
    109      37.5384      0.00000
    110      38.4108      0.00000
    111      38.4108      0.00000
    112      38.5602      0.00000
    113      38.6858      0.00000
    114      39.9942      0.00000
    115      40.0468      0.00000
    116      40.0468      0.00000
    117      40.6207      0.00000
    118      40.7144      0.00000
    119      40.7144      0.00000
    120      40.7450      0.00000
    121      41.0312      0.00000
    122      41.8359      0.00000
    123      42.0490      0.00000
    124      42.2717      0.00000
    125      42.4560      0.00000
    126      42.4560      0.00000
    127      42.8162      0.00000
    128      43.4321      0.00000
    129      43.4321      0.00000
    130      43.6838      0.00000
    131      44.4114      0.00000
    132      44.4689      0.00000
    133      44.6592      0.00000
    134      44.7148      0.00000
    135      44.7148      0.00000
    136      44.9197      0.00000
    137      45.0633      0.00000
    138      45.0633      0.00000
    139      45.1938      0.00000
    140      45.3873      0.00000
    141      45.7470      0.00000
    142      45.7471      0.00000
    143      46.2531      0.00000
    144      46.2749      0.00000

 k-point     3 :       0.5000    0.0000    0.0000
  band No.  band energies     occupation
      1      -6.3306      1.00000
      2      -5.5625      1.00000
      3      -3.2066      1.00000
      4      -2.8431      1.00000
      5      -2.8431      1.00000
      6      -0.4661      1.00000
      7       0.6818      1.00000
      8       0.8917      1.00000
      9       1.1216      1.00000
     10       1.1216      1.00000
     11       2.6077      1.00000
     12       2.6077      1.00000
     13       3.0238      1.00000
     14       3.7506      1.00000
     15       5.0668      0.00000
     16       5.0668      0.00000
     17       6.1639      0.00000
     18       6.5774      0.00000
     19       8.1199      0.00000
     20       9.1116      0.00000
     21       9.1116      0.00000
     22       9.2368      0.00000
     23       9.4149      0.00000
     24       9.7152      0.00000
     25       9.7323      0.00000
     26       9.7323      0.00000
     27      10.4971      0.00000
     28      10.6113      0.00000
     29      11.2647      0.00000
     30      11.2647      0.00000
     31      13.2300      0.00000
     32      13.2300      0.00000
     33      13.4770      0.00000
     34      14.2956      0.00000
     35      14.7539      0.00000
     36      14.8221      0.00000
     37      15.3407      0.00000
     38      15.8043      0.00000
     39      15.8043      0.00000
     40      16.4643      0.00000
     41      16.9601      0.00000
     42      17.5085      0.00000
     43      17.6392      0.00000
     44      17.6392      0.00000
     45      18.3200      0.00000
     46      18.3938      0.00000
     47      18.7771      0.00000
     48      18.7771      0.00000
     49      19.6394      0.00000
     50      19.7889      0.00000
     51      19.7889      0.00000
     52      20.6887      0.00000
     53      21.5855      0.00000
     54      21.5855      0.00000
     55      21.6178      0.00000
     56      21.7860      0.00000
     57      22.3471      0.00000
     58      22.3471      0.00000
     59      22.5536      0.00000
     60      22.5536      0.00000
     61      22.9833      0.00000
     62      23.0683      0.00000
     63      23.6271      0.00000
     64      23.6271      0.00000
     65      23.9628      0.00000
     66      24.0257      0.00000
     67      24.1654      0.00000
     68      24.8204      0.00000
     69      24.8284      0.00000
     70      25.6460      0.00000
     71      26.4385      0.00000
     72      26.4385      0.00000
     73      26.5862      0.00000
     74      26.7505      0.00000
     75      27.1521      0.00000
     76      27.1521      0.00000
     77      27.3597      0.00000
     78      27.4033      0.00000
     79      29.5523      0.00000
     80      29.6670      0.00000
     81      29.9957      0.00000
     82      29.9957      0.00000
     83      30.2718      0.00000
     84      31.4152      0.00000
     85      31.7018      0.00000
     86      31.7611      0.00000
     87      31.7611      0.00000
     88      32.0372      0.00000
     89      32.2743      0.00000
     90      32.5626      0.00000
     91      32.5626      0.00000
     92      32.6622      0.00000
     93      32.6622      0.00000
     94      32.6675      0.00000
     95      33.8985      0.00000
     96      34.0298      0.00000
     97      34.2304      0.00000
     98      34.2304      0.00000
     99      34.4405      0.00000
    100      34.6539      0.00000
    101      34.7401      0.00000
    102      34.7401      0.00000
    103      35.0215      0.00000
    104      35.5316      0.00000
    105      35.5316      0.00000
    106      35.8746      0.00000
    107      36.3907      0.00000
    108      36.3907      0.00000
    109      36.7150      0.00000
    110      38.0846      0.00000
    111      38.3022      0.00000
    112      38.3022      0.00000
    113      38.9579      0.00000
    114      39.8135      0.00000
    115      39.9845      0.00000
    116      40.3907      0.00000
    117      40.5774      0.00000
    118      40.5785      0.00000
    119      40.5785      0.00000
    120      41.4853      0.00000
    121      41.4853      0.00000
    122      41.5864      0.00000
    123      41.7546      0.00000
    124      42.0418      0.00000
    125      42.0418      0.00000
    126      42.2232      0.00000
    127      42.7489      0.00000
    128      42.7489      0.00000
    129      42.8965      0.00000
    130      42.9315      0.00000
    131      43.4108      0.00000
    132      43.4108      0.00000
    133      44.3215      0.00000
    134      44.7074      0.00000
    135      44.8658      0.00000
    136      44.8658      0.00000
    137      45.1701      0.00000
    138      45.2277      0.00000
    139      45.2277      0.00000
    140      45.5765      0.00000
    141      45.8196      0.00000
    142      45.8771      0.00000
    143      46.7196      0.00000
    144      46.7721      0.00000

 k-point     4 :       0.2500    0.2500    0.0000
  band No.  band energies     occupation
      1      -6.5517      1.00000
      2      -4.7366      1.00000
      3      -4.2635      1.00000
      4      -2.9707      1.00000
      5      -2.0648      1.00000
      6      -1.1908      1.00000
      7       0.4779      1.00000
      8       1.2951      1.00000
      9       1.4896      1.00000
     10       1.8225      1.00000
     11       1.8362      1.00000
     12       2.7712      1.00000
     13       2.8194      1.00000
     14       4.2422      0.50000
     15       4.9822      0.00000
     16       5.8531      0.00000
     17       6.2428      0.00000
     18       6.8310      0.00000
     19       7.1876      0.00000
     20       7.5180      0.00000
     21       7.5569      0.00000
     22       9.0139      0.00000
     23       9.5445      0.00000
     24       9.5936      0.00000
     25       9.7946      0.00000
     26      10.2434      0.00000
     27      11.5946      0.00000
     28      11.6131      0.00000
     29      12.2297      0.00000
     30      12.3315      0.00000
     31      12.6625      0.00000
     32      13.2303      0.00000
     33      13.2453      0.00000
     34      14.1681      0.00000
     35      14.4312      0.00000
     36      15.0213      0.00000
     37      15.1066      0.00000
     38      15.4363      0.00000
     39      15.9959      0.00000
     40      16.3710      0.00000
     41      16.5317      0.00000
     42      16.7547      0.00000
     43      17.7426      0.00000
     44      18.1740      0.00000
     45      18.6009      0.00000
     46      18.8568      0.00000
     47      18.8742      0.00000
     48      19.2716      0.00000
     49      19.5264      0.00000
     50      19.6259      0.00000
     51      19.9384      0.00000
     52      20.1012      0.00000
     53      20.3479      0.00000
     54      21.0912      0.00000
     55      21.3106      0.00000
     56      21.5829      0.00000
     57      21.7117      0.00000
     58      22.4480      0.00000
     59      22.5908      0.00000
     60      22.8054      0.00000
     61      22.9309      0.00000
     62      23.1885      0.00000
     63      23.4426      0.00000
     64      23.9379      0.00000
     65      24.4778      0.00000
     66      24.9140      0.00000
     67      25.1856      0.00000
     68      25.1945      0.00000
     69      25.9242      0.00000
     70      25.9362      0.00000
     71      26.4278      0.00000
     72      26.5021      0.00000
     73      26.6906      0.00000
     74      27.0609      0.00000
     75      27.2989      0.00000
     76      27.6005      0.00000
     77      27.6157      0.00000
     78      27.9334      0.00000
     79      28.4618      0.00000
     80      28.6798      0.00000
     81      28.8921      0.00000
     82      29.2576      0.00000
     83      29.4301      0.00000
     84      30.0462      0.00000
     85      30.4343      0.00000
     86      30.8254      0.00000
     87      31.0828      0.00000
     88      31.2127      0.00000
     89      32.2403      0.00000
     90      32.3186      0.00000
     91      32.6434      0.00000
     92      32.9939      0.00000
     93      33.1632      0.00000
     94      33.2206      0.00000
     95      33.6091      0.00000
     96      33.7339      0.00000
     97      34.5348      0.00000
     98      34.5984      0.00000
     99      34.7782      0.00000
    100      35.3633      0.00000
    101      35.5597      0.00000
    102      35.5687      0.00000
    103      36.1156      0.00000
    104      36.7075      0.00000
    105      36.8565      0.00000
    106      37.1795      0.00000
    107      37.4403      0.00000
    108      37.5774      0.00000
    109      37.8290      0.00000
    110      38.0365      0.00000
    111      38.2456      0.00000
    112      38.2609      0.00000
    113      38.7424      0.00000
    114      38.7428      0.00000
    115      39.2360      0.00000
    116      39.3154      0.00000
    117      39.6404      0.00000
    118      39.6961      0.00000
    119      40.1274      0.00000
    120      40.1919      0.00000
    121      40.7773      0.00000
    122      41.1155      0.00000
    123      41.3339      0.00000
    124      42.2491      0.00000
    125      42.3937      0.00000
    126      42.4361      0.00000
    127      42.6595      0.00000
    128      43.0850      0.00000
    129      43.1793      0.00000
    130      43.4440      0.00000
    131      43.5237      0.00000
    132      43.6173      0.00000
    133      44.2299      0.00000
    134      44.2710      0.00000
    135      44.6379      0.00000
    136      44.9878      0.00000
    137      44.9898      0.00000
    138      45.1443      0.00000
    139      45.1871      0.00000
    140      46.0928      0.00000
    141      46.1173      0.00000
    142      46.2429      0.00000
    143      46.4965      0.00000
    144      46.7815      0.00000

 k-point     5 :       0.5000    0.2500    0.0000
  band No.  band energies     occupation
      1      -6.0876      1.00000
      2      -5.4385      1.00000
      3      -4.2947      1.00000
      4      -3.0721      1.00000
      5      -1.8081      1.00000
      6      -0.6383      1.00000
      7       0.1929      1.00000
      8       0.5906      1.00000
      9       1.4875      1.00000
     10       1.6985      1.00000
     11       2.3805      1.00000
     12       2.4779      1.00000
     13       3.0141      1.00000
     14       3.8110      1.00000
     15       5.0490      0.00000
     16       5.1424      0.00000
     17       7.3029      0.00000
     18       7.7251      0.00000
     19       7.7495      0.00000
     20       7.8102      0.00000
     21       9.0329      0.00000
     22       9.3551      0.00000
     23       9.4280      0.00000
     24       9.8984      0.00000
     25       9.9722      0.00000
     26      10.1848      0.00000
     27      10.3972      0.00000
     28      10.8089      0.00000
     29      11.7280      0.00000
     30      11.9062      0.00000
     31      12.4640      0.00000
     32      12.4999      0.00000
     33      13.1640      0.00000
     34      13.1748      0.00000
     35      13.5155      0.00000
     36      14.2582      0.00000
     37      15.5401      0.00000
     38      15.6289      0.00000
     39      15.8440      0.00000
     40      16.4158      0.00000
     41      16.7687      0.00000
     42      17.0249      0.00000
     43      17.4255      0.00000
     44      17.8816      0.00000
     45      18.7942      0.00000
     46      18.9175      0.00000
     47      19.0666      0.00000
     48      19.3620      0.00000
     49      19.5791      0.00000
     50      19.8662      0.00000
     51      20.0785      0.00000
     52      20.3836      0.00000
     53      20.4145      0.00000
     54      20.6084      0.00000
     55      21.0891      0.00000
     56      21.4344      0.00000
     57      22.1859      0.00000
     58      22.3845      0.00000
     59      22.5484      0.00000
     60      22.9527      0.00000
     61      22.9806      0.00000
     62      23.7096      0.00000
     63      23.8536      0.00000
     64      23.8760      0.00000
     65      24.8237      0.00000
     66      24.9739      0.00000
     67      25.1162      0.00000
     68      25.6728      0.00000
     69      25.7598      0.00000
     70      26.0397      0.00000
     71      26.1517      0.00000
     72      26.7387      0.00000
     73      27.2715      0.00000
     74      27.2770      0.00000
     75      27.4026      0.00000
     76      27.6364      0.00000
     77      27.9901      0.00000
     78      28.3820      0.00000
     79      28.8608      0.00000
     80      29.1448      0.00000
     81      29.1811      0.00000
     82      29.7217      0.00000
     83      29.7653      0.00000
     84      30.4625      0.00000
     85      30.8779      0.00000
     86      31.2932      0.00000
     87      31.6796      0.00000
     88      31.6903      0.00000
     89      32.3351      0.00000
     90      32.4213      0.00000
     91      32.4807      0.00000
     92      32.9991      0.00000
     93      33.0124      0.00000
     94      33.1217      0.00000
     95      33.5709      0.00000
     96      33.9585      0.00000
     97      34.0183      0.00000
     98      34.4050      0.00000
     99      34.7018      0.00000
    100      34.9261      0.00000
    101      35.0539      0.00000
    102      35.1463      0.00000
    103      35.6741      0.00000
    104      36.1854      0.00000
    105      36.2995      0.00000
    106      36.3859      0.00000
    107      36.5217      0.00000
    108      36.9130      0.00000
    109      37.3097      0.00000
    110      37.4553      0.00000
    111      37.7809      0.00000
    112      38.2640      0.00000
    113      38.3972      0.00000
    114      38.6576      0.00000
    115      39.0283      0.00000
    116      39.2503      0.00000
    117      39.3805      0.00000
    118      39.5277      0.00000
    119      40.3561      0.00000
    120      40.3858      0.00000
    121      40.4909      0.00000
    122      40.8191      0.00000
    123      40.9886      0.00000
    124      41.7290      0.00000
    125      41.7916      0.00000
    126      42.0668      0.00000
    127      42.1131      0.00000
    128      42.8594      0.00000
    129      42.9186      0.00000
    130      43.2216      0.00000
    131      43.3542      0.00000
    132      43.5246      0.00000
    133      44.0226      0.00000
    134      44.0437      0.00000
    135      44.3980      0.00000
    136      44.8976      0.00000
    137      45.1653      0.00000
    138      45.2418      0.00000
    139      45.5472      0.00000
    140      45.7219      0.00000
    141      45.7688      0.00000
    142      46.1710      0.00000
    143      46.3741      0.00000
    144      46.5242      0.00000

 k-point     6 :       0.5000    0.5000    0.0000
  band No.  band energies     occupation
      1      -5.4643      1.00000
      2      -5.2863      1.00000
      3      -5.2863      1.00000
      4      -3.3501      1.00000
      5      -0.7655      1.00000
      6      -0.6380      1.00000
      7      -0.6380      1.00000
      8       0.5205      1.00000
      9       1.3237      1.00000
     10       1.3237      1.00000
     11       2.7067      1.00000
     12       2.9618      1.00000
     13       3.3096      1.00000
     14       3.4692      1.00000
     15       5.4952      0.00000
     16       5.4952      0.00000
     17       6.9837      0.00000
     18       6.9837      0.00000
     19       8.6231      0.00000
     20       8.7852      0.00000
     21       9.3788      0.00000
     22       9.5423      0.00000
     23       9.7074      0.00000
     24       9.7074      0.00000
     25       9.9995      0.00000
     26      10.3003      0.00000
     27      10.3003      0.00000
     28      10.3325      0.00000
     29      11.2034      0.00000
     30      11.9185      0.00000
     31      11.9185      0.00000
     32      12.9667      0.00000
     33      12.9667      0.00000
     34      13.1134      0.00000
     35      13.1942      0.00000
     36      13.2549      0.00000
     37      14.4849      0.00000
     38      15.6052      0.00000
     39      15.6052      0.00000
     40      15.7056      0.00000
     41      17.0569      0.00000
     42      17.7448      0.00000
     43      17.7448      0.00000
     44      17.8312      0.00000
     45      18.3964      0.00000
     46      18.3964      0.00000
     47      18.5778      0.00000
     48      19.1951      0.00000
     49      19.3236      0.00000
     50      19.3236      0.00000
     51      19.6536      0.00000
     52      20.8976      0.00000
     53      21.6592      0.00000
     54      21.6592      0.00000
     55      21.6767      0.00000
     56      21.8775      0.00000
     57      22.1160      0.00000
     58      22.1752      0.00000
     59      22.1752      0.00000
     60      22.2581      0.00000
     61      23.2309      0.00000
     62      23.5434      0.00000
     63      23.5581      0.00000
     64      23.5581      0.00000
     65      24.8007      0.00000
     66      25.4289      0.00000
     67      26.0677      0.00000
     68      26.0677      0.00000
     69      26.4219      0.00000
     70      26.4219      0.00000
     71      26.6222      0.00000
     72      27.1777      0.00000
     73      27.3115      0.00000
     74      27.3115      0.00000
     75      27.7618      0.00000
     76      28.0335      0.00000
     77      29.0707      0.00000
     78      29.4607      0.00000
     79      29.4607      0.00000
     80      29.7772      0.00000
     81      29.9068      0.00000
     82      29.9068      0.00000
     83      30.2051      0.00000
     84      30.7049      0.00000
     85      31.1949      0.00000
     86      31.2234      0.00000
     87      31.5903      0.00000
     88      31.5903      0.00000
     89      31.9678      0.00000
     90      32.0485      0.00000
     91      32.1012      0.00000
     92      32.1012      0.00000
     93      32.7291      0.00000
     94      32.7386      0.00000
     95      32.7386      0.00000
     96      32.9523      0.00000
     97      32.9523      0.00000
     98      33.6767      0.00000
     99      33.7876      0.00000
    100      33.7987      0.00000
    101      34.5917      0.00000
    102      34.7313      0.00000
    103      35.7031      0.00000
    104      35.9319      0.00000
    105      35.9319      0.00000
    106      36.0518      0.00000
    107      36.5841      0.00000
    108      36.5841      0.00000
    109      37.6542      0.00000
    110      37.6542      0.00000
    111      37.7360      0.00000
    112      38.9432      0.00000
    113      38.9432      0.00000
    114      39.0402      0.00000
    115      39.4280      0.00000
    116      40.3405      0.00000
    117      40.4601      0.00000
    118      40.7980      0.00000
    119      40.7980      0.00000
    120      40.8621      0.00000
    121      40.9891      0.00000
    122      41.3141      0.00000
    123      41.4035      0.00000
    124      41.8857      0.00000
    125      41.8857      0.00000
    126      42.0140      0.00000
    127      42.2148      0.00000
    128      42.5663      0.00000
    129      42.8047      0.00000
    130      42.8047      0.00000
    131      43.0568      0.00000
    132      43.0568      0.00000
    133      43.0847      0.00000
    134      43.3083      0.00000
    135      43.3083      0.00000
    136      43.5487      0.00000
    137      43.7879      0.00000
    138      44.1195      0.00000
    139      44.1195      0.00000
    140      44.3403      0.00000
    141      44.5691      0.00000
    142      44.5691      0.00000
    143      44.9407      0.00000
    144      45.5741      0.00000

 k-point     7 :       0.2500    0.2500    0.2500
  band No.  band energies     occupation
      1      -6.3235      1.00000
      2      -4.6443      1.00000
      3      -4.6443      1.00000
      4      -3.3110      1.00000
      5      -1.4862      1.00000
      6      -1.4862      1.00000
      7       0.0458      1.00000
      8       1.1485      1.00000
      9       1.1485      1.00000
     10       2.3314      1.00000
     11       2.3912      1.00000
     12       2.9366      1.00000
     13       2.9366      1.00000
     14       3.8490      1.00000
     15       5.6527      0.00000
     16       5.6527      0.00000
     17       6.2651      0.00000
     18       6.5916      0.00000
     19       6.5916      0.00000
     20       8.8046      0.00000
     21       8.8046      0.00000
     22       8.8948      0.00000
     23       9.8458      0.00000
     24       9.9416      0.00000
     25       9.9416      0.00000
     26      10.3333      0.00000
     27      10.3333      0.00000
     28      10.3902      0.00000
     29      11.8540      0.00000
     30      11.8540      0.00000
     31      12.7548      0.00000
     32      13.2781      0.00000
     33      13.2781      0.00000
     34      14.0405      0.00000
     35      14.2337      0.00000
     36      15.2404      0.00000
     37      15.4712      0.00000
     38      15.4712      0.00000
     39      15.8408      0.00000
     40      15.8408      0.00000
     41      16.0003      0.00000
     42      17.2566      0.00000
     43      17.3621      0.00000
     44      17.5540      0.00000
     45      17.5540      0.00000
     46      17.9413      0.00000
     47      18.9922      0.00000
     48      18.9922      0.00000
     49      19.4854      0.00000
     50      19.4854      0.00000
     51      19.6526      0.00000
     52      20.3853      0.00000
     53      20.3853      0.00000
     54      22.1778      0.00000
     55      22.1778      0.00000
     56      22.4595      0.00000
     57      22.5105      0.00000
     58      22.7232      0.00000
     59      22.7232      0.00000
     60      23.2114      0.00000
     61      23.4663      0.00000
     62      23.4663      0.00000
     63      23.9086      0.00000
     64      24.0283      0.00000
     65      24.0283      0.00000
     66      24.4679      0.00000
     67      24.7642      0.00000
     68      25.0181      0.00000
     69      25.0181      0.00000
     70      26.2991      0.00000
     71      26.2991      0.00000
     72      26.3671      0.00000
     73      26.7432      0.00000
     74      26.9734      0.00000
     75      26.9734      0.00000
     76      27.6914      0.00000
     77      27.6914      0.00000
     78      29.2110      0.00000
     79      29.2243      0.00000
     80      29.2243      0.00000
     81      29.9486      0.00000
     82      29.9486      0.00000
     83      30.0026      0.00000
     84      30.0974      0.00000
     85      30.5653      0.00000
     86      30.5653      0.00000
     87      31.6355      0.00000
     88      32.2991      0.00000
     89      32.2991      0.00000
     90      32.6126      0.00000
     91      32.8514      0.00000
     92      32.8514      0.00000
     93      33.6072      0.00000
     94      33.6072      0.00000
     95      33.7636      0.00000
     96      33.7845      0.00000
     97      34.1996      0.00000
     98      34.5391      0.00000
     99      34.5931      0.00000
    100      34.5931      0.00000
    101      34.9366      0.00000
    102      34.9366      0.00000
    103      36.0590      0.00000
    104      36.0590      0.00000
    105      36.3025      0.00000
    106      36.3960      0.00000
    107      36.4199      0.00000
    108      36.4199      0.00000
    109      37.3079      0.00000
    110      37.3931      0.00000
    111      37.3931      0.00000
    112      38.1397      0.00000
    113      38.1397      0.00000
    114      38.9458      0.00000
    115      39.2418      0.00000
    116      39.2418      0.00000
    117      39.3614      0.00000
    118      40.2092      0.00000
    119      40.2092      0.00000
    120      40.7966      0.00000
    121      40.7966      0.00000
    122      41.2256      0.00000
    123      41.4178      0.00000
    124      41.4178      0.00000
    125      41.5683      0.00000
    126      41.7490      0.00000
    127      41.8346      0.00000
    128      41.8346      0.00000
    129      42.9520      0.00000
    130      42.9520      0.00000
[...]
     37      14.6746      0.00000
     38      15.1719      0.00000
     39      15.1719      0.00000
     40      15.3382      0.00000
     41      16.0395      0.00000
     42      16.2805      0.00000
     43      16.2805      0.00000
     44      17.1377      0.00000
     45      18.3541      0.00000
     46      18.3541      0.00000
     47      18.6247      0.00000
     48      18.7839      0.00000
     49      19.0357      0.00000
     50      19.2247      0.00000
     51      19.2247      0.00000
     52      19.5921      0.00000
     53      20.5430      0.00000
     54      21.7454      0.00000
     55      21.7454      0.00000
     56      22.0790      0.00000
     57      22.4258      0.00000
     58      22.7178      0.00000
     59      22.7178      0.00000
     60      22.7499      0.00000
     61      23.9687      0.00000
     62      23.9994      0.00000
     63      23.9994      0.00000
     64      25.3007      0.00000
     65      25.7085      0.00000
     66      25.7816      0.00000
     67      25.9974      0.00000
     68      25.9974      0.00000
     69      26.9407      0.00000
     70      26.9407      0.00000
     71      27.2047      0.00000
     72      27.2220      0.00000
     73      27.5860      0.00000
     74      27.7453      0.00000
     75      27.7453      0.00000
     76      28.6586      0.00000
     77      28.9382      0.00000
     78      28.9382      0.00000
     79      29.2203      0.00000
     80      29.2588      0.00000
     81      29.8315      0.00000
     82      30.4085      0.00000
     83      30.4085      0.00000
     84      30.5648      0.00000
     85      30.8263      0.00000
     86      30.8263      0.00000
     87      30.9098      0.00000
     88      31.3505      0.00000
     89      32.2538      0.00000
     90      32.2538      0.00000
     91      32.3503      0.00000
     92      32.4089      0.00000
     93      33.1323      0.00000
     94      33.3670      0.00000
     95      33.3670      0.00000
     96      33.4753      0.00000
     97      33.8421      0.00000
     98      33.8421      0.00000
     99      33.8629      0.00000
    100      34.3037      0.00000
    101      34.8575      0.00000
    102      35.3964      0.00000
    103      35.3964      0.00000
    104      35.4988      0.00000
    105      36.1576      0.00000
    106      36.3038      0.00000
    107      36.3038      0.00000
    108      36.4629      0.00000
    109      37.0674      0.00000
    110      37.5216      0.00000
    111      37.5216      0.00000
    112      37.6244      0.00000
    113      37.7214      0.00000
    114      38.5935      0.00000
    115      38.5935      0.00000
    116      38.6673      0.00000
    117      39.3599      0.00000
    118      39.3830      0.00000
    119      39.3830      0.00000
    120      39.4012      0.00000
    121      39.8630      0.00000
    122      39.8630      0.00000
    123      40.1416      0.00000
    124      40.8855      0.00000
    125      41.0474      0.00000
    126      41.6085      0.00000
    127      41.6085      0.00000
    128      41.7737      0.00000
    129      42.2649      0.00000
    130      42.8936      0.00000
    131      43.3092      0.00000
    132      43.3628      0.00000
    133      43.3628      0.00000
    134      43.6321      0.00000
    135      44.2983      0.00000
    136      44.2983      0.00000
    137      44.5627      0.00000
    138      45.3462      0.00000
    139      45.3462      0.00000
    140      45.5810      0.00000
    141      45.7514      0.00000
    142      45.7732      0.00000
    143      45.7733      0.00000
    144      46.2946      0.00000

 k-point    10 :       0.5000    0.5000    0.5000
  band No.  band energies     occupation
      1      -5.0826      1.00000
      2      -5.0826      1.00000
      3      -5.0826      1.00000
      4      -3.7077      1.00000
      5      -1.8544      1.00000
      6      -1.8544      1.00000
      7      -1.8544      1.00000
      8       1.0139      1.00000
      9       3.1232      1.00000
     10       3.1232      1.00000
     11       3.3186      1.00000
     12       3.3186      1.00000
     13       3.3186      1.00000
     14       5.9713      0.00000
     15       5.9713      0.00000
     16       5.9713      0.00000
     17       6.2805      0.00000
     18       6.2805      0.00000
     19       6.2805      0.00000
     20       7.8462      0.00000
     21       7.8462      0.00000
     22       7.8462      0.00000
     23       9.0786      0.00000
     24       9.0786      0.00000
     25       9.9611      0.00000
     26       9.9611      0.00000
     27       9.9611      0.00000
     28      10.0746      0.00000
     29      12.4028      0.00000
     30      13.1375      0.00000
     31      13.1375      0.00000
     32      13.1375      0.00000
     33      15.1055      0.00000
     34      15.1055      0.00000
     35      15.1055      0.00000
     36      15.2752      0.00000
     37      15.2752      0.00000
     38      15.6538      0.00000
     39      15.6538      0.00000
     40      15.6538      0.00000
     41      16.4132      0.00000
     42      16.6419      0.00000
     43      16.6419      0.00000
     44      16.6419      0.00000
     45      16.6695      0.00000
     46      16.6695      0.00000
     47      16.6695      0.00000
     48      17.7661      0.00000
     49      17.7661      0.00000
     50      17.7661      0.00000
     51      18.2795      0.00000
     52      18.2795      0.00000
     53      19.5398      0.00000
     54      21.1446      0.00000
     55      21.1446      0.00000
     56      21.1446      0.00000
     57      24.5810      0.00000
     58      25.0954      0.00000
     59      25.0954      0.00000
     60      25.0954      0.00000
     61      25.4042      0.00000
     62      25.4042      0.00000
     63      25.4042      0.00000
     64      25.8867      0.00000
     65      26.1110      0.00000
     66      26.1110      0.00000
     67      26.2877      0.00000
     68      26.2877      0.00000
     69      26.2877      0.00000
     70      26.6744      0.00000
     71      26.6744      0.00000
     72      26.6744      0.00000
     73      26.8535      0.00000
     74      26.8535      0.00000
     75      26.8535      0.00000
     76      28.3475      0.00000
     77      28.3475      0.00000
     78      28.3475      0.00000
     79      30.1389      0.00000
     80      30.1389      0.00000
     81      30.2943      0.00000
     82      30.6550      0.00000
     83      30.6550      0.00000
     84      30.6550      0.00000
     85      31.5855      0.00000
     86      31.5855      0.00000
     87      31.5855      0.00000
     88      31.7430      0.00000
     89      31.7430      0.00000
     90      32.2334      0.00000
     91      32.2334      0.00000
     92      32.2334      0.00000
     93      32.7027      0.00000
     94      32.7027      0.00000
     95      32.7027      0.00000
     96      33.1745      0.00000
     97      33.1745      0.00000
     98      33.1745      0.00000
     99      33.9226      0.00000
    100      33.9226      0.00000
    101      34.1851      0.00000
    102      35.3577      0.00000
    103      36.7000      0.00000
    104      36.7000      0.00000
    105      36.7000      0.00000
    106      37.0403      0.00000
    107      37.0403      0.00000
    108      37.0403      0.00000
    109      37.1565      0.00000
    110      37.1565      0.00000
    111      37.1565      0.00000
    112      37.5981      0.00000
    113      37.5981      0.00000
    114      38.0420      0.00000
    115      38.0420      0.00000
    116      38.0420      0.00000
    117      38.2430      0.00000
    118      38.2430      0.00000
    119      38.2430      0.00000
    120      38.7092      0.00000
    121      39.4770      0.00000
    122      39.4770      0.00000
    123      39.4770      0.00000
    124      41.3375      0.00000
    125      41.3375      0.00000
    126      41.3822      0.00000
    127      41.7701      0.00000
    128      41.7701      0.00000
    129      41.7701      0.00000
    130      41.8558      0.00000
    131      41.9834      0.00000
    132      41.9834      0.00000
    133      41.9834      0.00000
    134      42.5288      0.00000
    135      42.5288      0.00000
    136      42.5288      0.00000
    137      45.3884      0.00000
    138      45.3884      0.00000
    139      45.9877      0.00000
    140      45.9878      0.00000
    141      45.9878      0.00000
    142      47.5727      0.00000
    143      47.5731      0.00000
    144      47.5753      0.00000


--------------------------------------------------------------------------------------------------------


 soft charge-density along one line, spin component           1
         0         1         2         3         4         5         6         7         8         9
 total charge-density along one line

 soft charge-density along one line, spin component           2
         0         1         2         3         4         5         6         7         8         9
 total charge-density along one line

 pseudopotential strength for first ion, spin component:           1
 18.588  25.933  -0.003   0.003   0.003  -0.006   0.006   0.006
 25.933  36.186  -0.005   0.005   0.005  -0.009   0.009   0.009
 -0.003  -0.005   4.196  -0.002  -0.002   7.819  -0.003  -0.003
  0.003   0.005  -0.002   4.196   0.002  -0.003   7.819   0.003
  0.003   0.005  -0.002   0.002   4.196  -0.003   0.003   7.819
 -0.006  -0.009   7.819  -0.003  -0.003  14.581  -0.006  -0.006
  0.006   0.009  -0.003   7.819   0.003  -0.006  14.581   0.006
  0.006   0.009  -0.003   0.003   7.819  -0.006   0.006  14.581
 pseudopotential strength for first ion, spin component:           2
 18.588  25.933  -0.003   0.003   0.003  -0.006   0.006   0.006
 25.933  36.186  -0.005   0.005   0.005  -0.009   0.009   0.009
 -0.003  -0.005   4.196  -0.002  -0.002   7.819  -0.003  -0.003
  0.003   0.005  -0.002   4.196   0.002  -0.003   7.819   0.003
  0.003   0.005  -0.002   0.002   4.196  -0.003   0.003   7.819
 -0.006  -0.009   7.819  -0.003  -0.003  14.581  -0.006  -0.006
  0.006   0.009  -0.003   7.819   0.003  -0.006  14.581   0.006
  0.006   0.009  -0.003   0.003   7.819  -0.006   0.006  14.581
 total augmentation occupancy for first ion, spin component:           1
  4.815  -1.670   0.480  -0.480  -0.480  -0.157   0.157   0.157
 -1.670   0.755  -0.293   0.293   0.293   0.076  -0.076  -0.076
  0.480  -0.293   2.254   0.472   0.472  -0.470  -0.116  -0.116
 -0.480   0.293   0.472   2.254  -0.472  -0.116  -0.470   0.116
 -0.480   0.293   0.472  -0.472   2.254  -0.116   0.116  -0.470
 -0.157   0.076  -0.470  -0.116  -0.116   0.106   0.028   0.028
  0.157  -0.076  -0.116  -0.470   0.116   0.028   0.106  -0.028
  0.157  -0.076  -0.116   0.116  -0.470   0.028  -0.028   0.106
 total augmentation occupancy for first ion, spin component:           2
 -0.000   0.000  -0.000   0.000   0.000   0.000  -0.000  -0.000
  0.000  -0.000   0.000  -0.000  -0.000  -0.000   0.000   0.000
 -0.000   0.000   0.000   0.000   0.000  -0.000  -0.000  -0.000
  0.000  -0.000   0.000   0.000  -0.000  -0.000  -0.000   0.000
  0.000  -0.000   0.000  -0.000   0.000  -0.000   0.000  -0.000
  0.000  -0.000  -0.000  -0.000  -0.000   0.000   0.000   0.000
 -0.000   0.000  -0.000  -0.000   0.000   0.000   0.000  -0.000
 -0.000   0.000  -0.000   0.000  -0.000   0.000  -0.000   0.000


------------------------ aborting loop because EDIFF is reached ----------------------------------------





 total charge

# of ion       s       p       d       tot
------------------------------------------
    1        0.801   0.786   0.000   1.587
    2        0.752   0.904   0.000   1.656
    3        0.801   0.786   0.000   1.587
    4        0.752   0.904   0.000   1.656
    5        0.801   0.786   0.000   1.587
    6        0.752   0.904   0.000   1.656
    7        0.801   0.786   0.000   1.587
--------------------------------------------------
tot          5.462   5.854   0.000  11.316



 magnetization (x)

# of ion       s       p       d       tot
------------------------------------------
    1       -0.000  -0.000   0.000  -0.000
    2       -0.000   0.000   0.000  -0.000
    3       -0.000  -0.000   0.000  -0.000
    4       -0.000   0.000   0.000  -0.000
    5       -0.000  -0.000   0.000  -0.000
    6       -0.000   0.000   0.000  -0.000
    7       -0.000  -0.000   0.000  -0.000
--------------------------------------------------
tot         -0.000  -0.000   0.000  -0.000

    CHARGE:  cpu time      0.0376: real time      0.0377
    FORLOC:  cpu time      0.0002: real time      0.0002
    FORNL :  cpu time      0.0358: real time      0.0358
    STRESS:  cpu time      0.2406: real time      0.2407
    FORCOR:  cpu time      0.0138: real time      0.0138
    FORHAR:  cpu time      0.0019: real time      0.0019
    MIXING:  cpu time      0.0005: real time      0.0005
    OFIELD:  cpu time      0.0001: real time      0.0001

  FORCE on cell =-STRESS in cart. coord.  units (eV):
  Direction    XX          YY          ZZ          XY          YZ          ZX
  --------------------------------------------------------------------------------------
  Alpha Z    10.25816    10.25816    10.25816
  Ewald    -245.80104  -245.80104  -245.80104    -0.00000     0.00000    -0.00000
  Hartree    25.03090    25.03090    25.03090    -0.00000    -0.00000    -0.00000
  E(xc)     -84.33399   -84.33399   -84.33399    -0.00000    -0.00000     0.00000
  Local    -125.14913  -125.14913  -125.14913    -0.00000     0.00000     0.00000
  n-local   267.59925   268.46126   266.43460    -0.34253    -0.82034    -0.13251
  augment   -41.08006   -41.08006   -41.08006    -0.00000     0.00000     0.00000
  Kinetic   175.73156   183.52683   189.45631     0.28158     0.20980     0.38818
  Fock        0.00000     0.00000     0.00000     0.00000     0.00000     0.00000
  -------------------------------------------------------------------------------------
  Total     -10.67189   -10.67189   -10.67189     0.00000     0.00000    -0.00000
  in kB    -106.33365  -106.33365  -106.33365     0.00000     0.00000    -0.00000
  external pressure =     -106.33 kB  Pullay stress =        0.00 kB


 VOLUME and BASIS-vectors are now :
 -----------------------------------------------------------------------------
  energy-cutoff  :      500.00
  volume of cell :      160.80
      direct lattice vectors                 reciprocal lattice vectors
     5.437848350  0.000000000  0.000000000     0.183896265  0.000000000  0.000000000
     0.000000000  5.437848350  0.000000000     0.000000000  0.183896265  0.000000000
     0.000000000  0.000000000  5.437848350     0.000000000  0.000000000  0.183896265

  length of vectors
     5.437848350  5.437848350  5.437848350     0.183896265  0.183896265  0.183896265


 FORCES acting on ions
    electron-ion (+dipol)            ewald-force                    non-local-force                 convergence-correction
 -----------------------------------------------------------------------------------------------
   -.213E+02 0.213E+02 -.213E+02   0.195E+02 -.195E+02 0.195E+02   0.173E+01 -.173E+01 0.173E+01   -.118E-04 0.118E-04 -.118E-04
   0.268E-13 -.240E-15 0.525E-14   -.107E-13 -.107E-13 -.355E-14   -.360E-18 -.104E-16 0.268E-17   0.108E-14 0.345E-15 0.115E-14
   -.213E+02 -.213E+02 0.213E+02   0.195E+02 0.195E+02 -.195E+02   0.173E+01 0.173E+01 -.173E+01   -.118E-04 -.118E-04 0.118E-04
   -.980E-14 0.756E-14 0.149E-15   0.355E-14 0.000E+00 -.355E-14   -.139E-17 -.168E-16 0.485E-17   0.142E-15 -.802E-15 -.152E-14
   0.213E+02 0.213E+02 0.213E+02   -.195E+02 -.195E+02 -.195E+02   -.173E+01 -.173E+01 -.173E+01   0.118E-04 0.118E-04 0.118E-04
   -.359E-13 -.622E-16 -.145E-12   -.178E-13 -.711E-14 -.355E-14   0.167E-16 -.171E-16 0.932E-17   -.777E-14 -.346E-15 -.131E-14
   0.213E+02 -.213E+02 -.213E+02   -.195E+02 0.195E+02 0.195E+02   -.173E+01 0.173E+01 0.173E+01   0.118E-04 -.118E-04 -.118E-04
 -----------------------------------------------------------------------------------------------
   -.968E-09 -.967E-09 0.138E-08   0.000E+00 0.000E+00 0.000E+00   -.222E-15 0.000E+00 0.000E+00   -.241E-14 0.290E-15 -.485E-14


 POSITION                                       TOTAL-FORCE (eV/Angst)
 -----------------------------------------------------------------------------------
      1.32691      4.11094      1.32691         0.005957     -0.005957      0.005957
      0.00000      0.00000      2.71892         0.000000     -0.000000     -0.000000
      1.32691      1.32691      4.11094         0.005957      0.005957     -0.005957
      0.00000      2.71892      0.00000         0.000000     -0.000000     -0.000000
      4.11094      4.11094      4.11094        -0.005957     -0.005957     -0.005957
      2.71892      0.00000      0.00000         0.000000     -0.000000     -0.000000
      4.11094      1.32691      1.32691        -0.005957      0.005957      0.005957
 -----------------------------------------------------------------------------------
    total drift:                               -0.000000     -0.000000      0.000000


--------------------------------------------------------------------------------------------------------



  FREE ENERGIE OF THE ION-ELECTRON SYSTEM (eV)
  ---------------------------------------------------
  free  energy   TOTEN  =       -41.57565208 eV

  energy  without entropy=      -41.57036280  energy(sigma->0) =      -41.57300744



--------------------------------------------------------------------------------------------------------


    POTLOK:  cpu time      0.2276: real time      0.2277


--------------------------------------------------------------------------------------------------------


 writing wavefunctions
     LOOP+:  cpu time     67.1349: real time     67.4553
    4ORBIT:  cpu time      0.0000: real time      0.0000



 total charge

# of ion       s       p       d       tot
------------------------------------------
    1        0.801   0.786   0.000   1.587
    2        0.752   0.904   0.000   1.656
    3        0.801   0.786   0.000   1.587
    4        0.752   0.904   0.000   1.656
    5        0.801   0.786   0.000   1.587
    6        0.752   0.904   0.000   1.656
    7        0.801   0.786   0.000   1.587
--------------------------------------------------
tot          5.462   5.854   0.000  11.316



 magnetization (x)

# of ion       s       p       d       tot
------------------------------------------
    1       -0.000  -0.000   0.000  -0.000
    2       -0.000   0.000   0.000  -0.000
    3       -0.000  -0.000   0.000  -0.000
    4       -0.000   0.000   0.000  -0.000
    5       -0.000  -0.000   0.000  -0.000
    6       -0.000   0.000   0.000  -0.000
    7       -0.000  -0.000   0.000  -0.000
--------------------------------------------------
tot         -0.000  -0.000   0.000  -0.000


 total amount of memory used by VASP MPI-rank0    40713. kBytes
=======================================================================

   base      :      30000. kBytes
   nonl-proj :       3140. kBytes
   fftplans  :        508. kBytes
   grid      :       5640. kBytes
   one-center:         43. kBytes
   wavefun   :       1382. kBytes



 General timing and accounting informations for this job:
 ========================================================

                  Total CPU time used (sec):       73.820
                            User time (sec):       70.501
                          System time (sec):        3.319
                         Elapsed time (sec):       75.718

                   Maximum memory used (kb):      154840.
                   Average memory used (kb):          N/A

                          Minor page faults:       133662
                          Major page faults:            0
                 Voluntary context switches:         3906
