<?xml version="1.0" encoding="ISO-8859-1"?>
<modeling>
 <generator>
  <i name="program" type="string">vasp </i>
  <i name="version" type="string">6.3.0  </i>
  <i name="subversion" type="string">20Jan22 (build Feb 02 2022 18:12:33) complex                          parallel </i>
  <i name="platform" type="string">LinuxIFC </i>
  <i name="date" type="string">2022 04 15 </i>
  <i name="time" type="string">08:50:21 </i>
 </generator>
 <incar>
  <i type="string" name="PREC">Accurate</i>
  <i type="string" name="ALGO">Fast</i>
  <i type="int" name="ISPIN">     2</i>
  <i type="int" name="NELM">   200</i>
  <i type="int" name="NELMIN">     6</i>
  <i name="EDIFF">      0.00001000</i>
  <i type="int" name="NSW">     0</i>
  <i name="ENCUT">    500.00000000</i>
  <i name="ENAUG">   1360.00000000</i>
  <v name="MAGMOM">      0.00000000      0.00000000      0.00000000      0.00000000      0.00000000      0.00000000      0.00000000</v>
  <i name="NELECT">     27.00000000</i>
  <i type="logical" name="LREAL"> F  </i>
  <i type="int" name="ISMEAR">     0</i>
  <i name="SIGMA">      0.05000000</i>
  <i type="logical" name="LWAVE"> T  </i>
  <i type="logical" name="LCHARG"> T  </i>
  <i type="logical" name="LVTOT"> T  </i>
  <i type="int" name="LORBIT">    11</i>
  <i type="logical" name="LELF"> F  </i>
  <i type="logical" name="LASPH"> T  </i>
  <i type="logical" name="LAECHG"> F  </i>
  <i type="string" name="GGA">Ps</i>
  <i type="logical" name="LMIXTAU"> T  </i>
 </incar>
 <primitive_cell>
  <structure name="primitive_cell" >
   <crystal>
    <varray name="basis" >
     <v>       5.43784835       0.00000000       0.00000000 </v>
     <v>       0.00000000       5.43784835       0.00000000 </v>
     <v>       0.00000000       0.00000000       5.43784835 </v>
    </varray>
    <i name="volume">    160.79823434 </i>
    <varray name="rec_basis" >
     <v>       0.18389626       0.00000000       0.00000000 </v>
     <v>       0.00000000       0.18389626       0.00000000 </v>
     <v>       0.00000000       0.00000000       0.18389626 </v>
    </varray>
   </crystal>
   <varray name="positions" >
    <v>       0.24401317       0.75598683       0.24401317 </v>
    <v>       0.00000000       0.00000000       0.50000000 </v>
    <v>       0.24401317       0.24401317       0.75598683 </v>
    <v>       0.00000000       0.50000000       0.00000000 </v>
    <v>       0.75598683       0.75598683       0.75598683 </v>
    <v>       0.50000000       0.00000000       0.00000000 </v>
    <v>       0.75598683       0.24401317       0.24401317 </v>
   </varray>
  </structure>
  <varray name="primitive_index" >
   <v type="int" >        1 </v>
   <v type="int" >        2 </v>
   <v type="int" >        3 </v>
   <v type="int" >        4 </v>
   <v type="int" >        5 </v>
   <v type="int" >        6 </v>
   <v type="int" >        7 </v>
  </varray>
 </primitive_cell>
 <kpoints>
  <generation param="Gamma">
   <v type="int" name="divisions">       4        4        4 </v>
   <v name="usershift">      0.00000000       0.00000000       0.00000000 </v>
   <v name="genvec1">      0.25000000       0.00000000       0.00000000 </v>
   <v name="genvec2">      0.00000000       0.25000000       0.00000000 </v>
   <v name="genvec3">      0.00000000       0.00000000       0.25000000 </v>
   <v name="shift">      0.00000000       0.00000000       0.00000000 </v>
  </generation>
  <varray name="kpointlist" >
   <v>       0.00000000       0.00000000       0.00000000 </v>
   <v>       0.25000000       0.00000000       0.00000000 </v>
   <v>       0.50000000       0.00000000       0.00000000 </v>
   <v>       0.25000000       0.25000000       0.00000000 </v>
   <v>       0.50000000       0.25000000       0.00000000 </v>
   <v>       0.50000000       0.50000000       0.00000000 </v>
   <v>       0.25000000       0.25000000       0.25000000 </v>
   <v>       0.50000000       0.25000000       0.25000000 </v>
   <v>       0.50000000       0.50000000       0.25000000 </v>
   <v>       0.50000000       0.50000000       0.50000000 </v>
  </varray>
  <varray name="weights" >
   <v>       0.01562500 </v>
   <v>       0.09375000 </v>
   <v>       0.04687500 </v>
   <v>       0.18750000 </v>
   <v>       0.18750000 </v>
   <v>       0.04687500 </v>
   <v>       0.12500000 </v>
   <v>       0.18750000 </v>
   <v>       0.09375000 </v>
   <v>       0.01562500 </v>
  </varray>
 </kpoints>
 <parameters>
  <separator name="general" >
   <i type="string" name="SYSTEM">unknown system</i>
   <i type="logical" name="LCOMPAT"> F  </i>
  </separator>
  <separator name="electronic" >
   <i type="string" name="PREC">accura</i>
   <i name="ENMAX">    500.00000000</i>
   <i name="ENAUG">   1360.00000000</i>
   <i name="EDIFF">      0.00001000</i>
   <i type="int" name="IALGO">    68</i>
   <i type="int" name="IWAVPR">    10</i>
   <i type="int" name="NBANDS">   144</i>
   <i type="int" name="NBANDSLOW">    -1</i>
   <i type="int" name="NBANDSHIGH">    -1</i>
   <i name="NELECT">     27.00000000</i>
   <i type="int" name="TURBO">     0</i>
   <i type="int" name="IRESTART">     0</i>
   <i type="int" name="NREBOOT">     0</i>
   <i type="int" name="NMIN">     0</i>
   <i name="EREF">      0.00000000</i>
   <separator name="electronic smearing" >
    <i type="int" name="ISMEAR">     0</i>
    <i name="SIGMA">      0.05000000</i>
    <i name="KSPACING">      0.50000000</i>
    <i type="logical" name="KGAMMA"> T  </i>
    <i type="logical" name="KBLOWUP"> T  </i>
   </separator>
   <separator name="electronic projectors" >
    <i type="logical" name="LREAL"> F  </i>
    <v name="ROPT">      0.00000000</v>
    <i type="int" name="LMAXPAW">  -100</i>
    <i type="int" name="LMAXMIX">     2</i>
    <i type="logical" name="NLSPLINE"> F  </i>
   </separator>
   <separator name="electronic startup" >
    <i type="int" name="ISTART">     0</i>
    <i type="int" name="ICHARG">     2</i>
    <i type="int" name="INIWAV">     1</i>
   </separator>
   <separator name="electronic spin" >
    <i type="int" name="ISPIN">     2</i>
    <i type="logical" name="LNONCOLLINEAR"> F  </i>
    <v name="MAGMOM">      0.00000000      0.00000000      0.00000000      0.00000000      0.00000000      0.00000000      0.00000000</v>
    <i name="NUPDOWN">     -1.00000000</i>
    <i type="logical" name="LSORBIT"> F  </i>
    <v name="SAXIS">      0.00000000      0.00000000      1.00000000</v>
    <i type="logical" name="LSPIRAL"> F  </i>
    <v name="QSPIRAL">      0.00000000      0.00000000      0.00000000</v>
    <i type="logical" name="LZEROZ"> F  </i>
   </separator>
   <separator name="electronic exchange-correlation" >
    <i type="logical" name="LASPH"> T  </i>
    <i type="logical" name="LMETAGGA"> F  </i>
   </separator>
   <separator name="electronic convergence" >
    <i type="int" name="NELM">   200</i>
    <i type="int" name="NELMDL">    -5</i>
    <i type="int" name="NELMIN">     6</i>
    <i name="ENINI">    500.00000000</i>
    <separator name="electronic convergence detail" >
     <i type="logical" name="LDIAG"> T  </i>
     <i type="logical" name="LSUBROT"> F  </i>
     <i name="WEIMIN">      0.00000000</i>
     <i name="EBREAK">      0.00000002</i>
     <i name="DEPER">      0.30000000</i>
     <i type="int" name="NRMM">     4</i>
     <i name="TIME">      0.40000000</i>
    </separator>
   </separator>
   <separator name="electronic mixer" >
    <i name="AMIX">      0.40000000</i>
    <i name="BMIX">      1.00000000</i>
    <i name="AMIN">      0.10000000</i>
    <i name="AMIX_MAG">      1.60000000</i>
    <i name="BMIX_MAG">      1.00000000</i>
    <separator name="electronic mixer details" >
     <i type="int" name="IMIX">     4</i>
     <i type="logical" name="MIXFIRST"> F  </i>
     <i type="int" name="MAXMIX">   -45</i>
     <i name="WC">    100.00000000</i>
     <i type="int" name="INIMIX">     1</i>
     <i type="int" name="MIXPRE">     1</i>
     <i type="int" name="MREMOVE">     5</i>
    </separator>
   </separator>
   <separator name="electronic dipolcorrection" >
    <i type="logical" name="LDIPOL"> F  </i>
    <i type="logical" name="LMONO"> F  </i>
    <i type="int" name="IDIPOL">     0</i>
    <i name="EPSILON">      1.00000000</i>
    <v name="DIPOL">   -100.00000000   -100.00000000   -100.00000000</v>
    <i name="EFIELD">      0.00000000</i>
   </separator>
  </separator>
  <separator name="grids" >
   <i type="int" name="NGX">    40</i>
   <i type="int" name="NGY">    40</i>
   <i type="int" name="NGZ">    40</i>
   <i type="int" name="NGXF">    80</i>
   <i type="int" name="NGYF">    80</i>
   <i type="int" name="NGZF">    80</i>
   <i type="logical" name="ADDGRID"> F  </i>
  </separator>
  <separator name="ionic" >
   <i type="int" name="NSW">     0</i>
   <i type="int" name="IBRION">    -1</i>
   <i type="int" name="MDALGO">     0</i>
   <i type="int" name="ISIF">     2</i>
   <i name="PSTRESS">      0.00000000</i>
   <i name="EDIFFG">      0.00010000</i>
   <i type="int" name="NFREE">     0</i>
   <i name="POTIM">      0.50000000</i>
   <i name="SMASS">     -3.00000000</i>
   <i name="SCALEE">      1.00000000</i>
  </separator>
  <separator name="ionic md" >
   <i name="TEBEG">      0.00010000</i>
   <i name="TEEND">      0.00010000</i>
   <i type="int" name="NBLOCK">     1</i>
   <i type="int" name="KBLOCK">     1</i>
   <i type="int" name="NPACO">   256</i>
   <i name="APACO">     10.00000000</i>
  </separator>
  <separator name="symmetry" >
   <i type="int" name="ISYM">     2</i>
   <i name="SYMPREC">      0.00001000</i>
  </separator>
  <separator name="dos" >
   <i type="int" name="LORBIT">    11</i>
   <v name="RWIGS">     -1.00000000</v>
   <i type="int" name="NEDOS">   301</i>
   <i name="EMIN">     10.00000000</i>
   <i name="EMAX">    -10.00000000</i>
   <i name="EFERMI">      0.00000000</i>
  </separator>
  <separator name="writing" >
   <i type="int" name="NWRITE">     2</i>
   <i type="logical" name="LWAVE"> T  </i>
   <i type="logical" name="LDOWNSAMPLE"> F  </i>
   <i type="logical" name="LCHARG"> T  </i>
   <i type="logical" name="LPARD"> F  </i>
   <i type="logical" name="LVTOT"> T  </i>
   <i type="logical" name="LVHAR"> F  </i>
   <i type="logical" name="LELF"> F  </i>
   <i type="logical" name="LOPTICS"> F  </i>
   <v name="STM">      0.00000000      0.00000000      0.00000000      0.00000000      0.00000000      0.00000000      0.00000000</v>
  </separator>
  <separator name="performance" >
   <i type="int" name="NPAR">   144</i>
   <i type="int" name="NSIM">     4</i>
   <i type="int" name="NBLK">    -1</i>
   <i type="logical" name="LPLANE"> T  </i>
   <i type="logical" name="LSCALAPACK"> T  </i>
   <i type="logical" name="LSCAAWARE"> T  </i>
   <i type="logical" name="LSCALU"> F  </i>
   <i type="logical" name="LASYNC"> F  </i>
   <i type="logical" name="LORBITALREAL"> F  </i>
  </separator>
  <separator name="miscellaneous" >
   <i type="int" name="IDIOT">     3</i>
   <i type="int" name="PHON_NSTRUCT">    -1</i>
   <i type="logical" name="LMUSIC"> F  </i>
   <v name="POMASS">     28.08500000</v>
   <v name="DARWINR">      0.00000000</v>
   <v name="DARWINV">      1.00000000</v>
   <i type="logical" name="LCORR"> T  </i>
  </separator>
  <i type="logical" name="GGA_COMPAT"> T  </i>
  <i type="logical" name="LBERRY"> F  </i>
  <i type="int" name="ICORELEVEL">     0</i>
  <i type="logical" name="LDAU"> F  </i>
  <i type="int" name="I_CONSTRAINED_M">     0</i>
  <separator name="electronic exchange-correlation" >
   <i type="string" name="GGA">PS</i>
   <i type="int" name="VOSKOWN">     0</i>
   <i type="logical" name="LHFCALC"> F  </i>
   <i type="string" name="PRECFOCK"></i>
   <i type="logical" name="LSYMGRAD"> F  </i>
   <i type="logical" name="LHFONE"> F  </i>
   <i type="logical" name="LRHFCALC"> F  </i>
   <i type="logical" name="LTHOMAS"> F  </i>
   <i type="logical" name="LMODELHF"> F  </i>
   <i type="logical" name="LFOCKACE"> F  </i>
   <i name="ENCUT4O">     -1.00000000</i>
   <i type="int" name="EXXOEP">     0</i>
   <i type="int" name="FOURORBIT">     0</i>
   <i name="AEXX">      0.00000000</i>
   <i name="HFALPHA">      0.00000000</i>
   <i name="MCALPHA">      0.00000000</i>
   <i name="ALDAX">      1.00000000</i>
   <i name="AGGAX">      1.00000000</i>
   <i name="ALDAC">      1.00000000</i>
   <i name="AGGAC">      1.00000000</i>
   <i type="int" name="NKREDX">     1</i>
   <i type="int" name="NKREDY">     1</i>
   <i type="int" name="NKREDZ">     1</i>
   <i type="logical" name="SHIFTRED"> F  </i>
   <i type="logical" name="ODDONLY"> F  </i>
   <i type="logical" name="EVENONLY"> F  </i>
   <i type="int" name="LMAXFOCK">     0</i>
   <i type="int" name="NMAXFOCKAE">     0</i>
   <i type="logical" name="LFOCKAEDFT"> F  </i>
   <i name="HFSCREEN">      0.00000000</i>
   <i name="HFSCREENC">      0.00000000</i>
   <i type="int" name="NBANDSGWLOW">     0</i>
  </separator>
  <separator name="vdW DFT" >
   <i type="logical" name="LUSE_VDW"> F  </i>
   <i name="Zab_VDW">     -0.84910000</i>
   <i name="PARAM1">      0.12340000</i>
   <i name="PARAM2">      1.00000000</i>
   <i name="PARAM3">      0.00000000</i>
  </separator>
  <separator name="model GW" >
   <i type="int" name="MODEL_GW">     0</i>
   <i name="MODEL_EPS0">     13.78270580</i>
   <i name="MODEL_ALPHA">      1.00000000</i>
  </separator>
  <separator name="linear response parameters" >
   <i type="logical" name="LEPSILON"> F  </i>
   <i type="logical" name="LRPA"> F  </i>
   <i type="logical" name="LNABLA"> F  </i>
   <i type="logical" name="LVEL"> F  </i>
   <i name="CSHIFT">      0.10000000</i>
   <i name="OMEGAMAX">     -1.00000000</i>
   <i name="DEG_THRESHOLD">      0.00200000</i>
   <i name="RTIME">     -0.10000000</i>
   <i name="WPLASMAI">      0.00000000</i>
   <v name="DFIELD">      0.00000000      0.00000000      0.00000000</v>
   <v name="WPLASMA">      0.00000000      0.00000000      0.00000000      0.00000000      0.00000000      0.00000000      0.00000000      0.00000000      0.00000000</v>
  </separator>
  <separator name="orbital magnetization" >
   <i type="logical" name="NUCIND"> F  </i>
   <v name="MAGPOS">      0.00000000      0.00000000      0.00000000</v>
   <i type="logical" name="LNICSALL"> T  </i>
   <i type="logical" name="ORBITALMAG"> F  </i>
   <i type="logical" name="LMAGBLOCH"> F  </i>
   <i type="logical" name="LCHIMAG"> F  </i>
   <i type="logical" name="LGAUGE"> T  </i>
   <i type="int" name="MAGATOM">     0</i>
   <v name="MAGDIPOL">      0.00000000      0.00000000      0.00000000</v>
   <v name="AVECCONST">      0.00000000      0.00000000      0.00000000</v>
  </separator>
  <separator name="response functions" >
   <i type="logical" name="LFINITE_TEMPERATURE"> F  </i>
   <i type="logical" name="LADDER"> F  </i>
   <i type="logical" name="LRPAFORCE"> F  </i>
   <i type="logical" name="LFXC"> F  </i>
   <i type="logical" name="LHARTREE"> T  </i>
   <i type="int" name="IBSE">     0</i>
   <v type="int" name="KPOINT">    -1     0     0     0</v>
   <i type="logical" name="LTCTC"> F  </i>
   <i type="logical" name="LTCTE"> F  </i>
   <i type="logical" name="LTETE"> F  </i>
   <i type="logical" name="LTRIPLET"> F  </i>
   <i type="logical" name="LFXCEPS"> F  </i>
   <i type="logical" name="LFXHEG"> F  </i>
   <i type="int" name="NATURALO">     2</i>
   <i type="logical" name="LHOLEGF"> F  </i>
   <i type="logical" name="L2ORDER"> F  </i>
   <i type="logical" name="LDMP1"> F  </i>
   <i type="logical" name="LMP2LT"> F  </i>
   <i type="logical" name="LSMP2LT"> F  </i>
   <i type="logical" name="LGWLF"> F  </i>
   <i name="ENCUTGW">     -2.00000000</i>
   <i name="ENCUTGWSOFT">     -2.00000000</i>
   <i name="ENCUTLF">     -1.00000000</i>
   <i type="logical" name="LESF_SPLINES"> F  </i>
   <i type="int" name="LMAXMP2">    -1</i>
   <i name="SCISSOR">      0.00000000</i>
   <i type="int" name="NOMEGA">     0</i>
   <i type="int" name="NOMEGAR">     0</i>
   <i type="int" name="NBANDSGW">    -1</i>
   <i type="int" name="NBANDSO">    -1</i>
   <i type="int" name="NBANDSV">    -1</i>
   <i type="int" name="NELMGW">     1</i>
   <i type="int" name="NELMHF">     1</i>
   <i type="int" name="DIM">     3</i>
   <i type="int" name="IESPILON">     4</i>
   <i type="int" name="ANTIRES">     0</i>
   <i name="OMEGAMAX">    -30.00000000</i>
   <i name="OMEGAMIN">    -30.00000000</i>
   <i name="OMEGATL">   -200.00000000</i>
   <i type="int" name="OMEGAGRID">     0</i>
   <i name="CSHIFT">     -0.10000000</i>
   <i type="logical" name="LSELFENERGY"> F  </i>
   <i type="logical" name="LSPECTRAL"> F  </i>
   <i type="logical" name="LSPECTRALGW"> F  </i>
   <i type="logical" name="LSINGLES"> F  </i>
   <i type="logical" name="LFERMIGW"> F  </i>
   <i type="logical" name="ODDONLYGW"> F  </i>
   <i type="logical" name="EVENONLYGW"> F  </i>
   <i type="int" name="NKREDLFX">     1</i>
   <i type="int" name="NKREDLFY">     1</i>
   <i type="int" name="NKREDLFZ">     1</i>
   <i type="int" name="MAXMEM">  2800</i>
   <i type="int" name="TELESCOPE">     0</i>
   <i type="int" name="NTAUPAR">    -1</i>
   <i type="int" name="NOMEGAPAR">    -1</i>
   <i name="DAMP_NEWTON">      0.80000001</i>
   <i name="LAMBDA">      1.00000000</i>
  </separator>
  <separator name="External order field" >
   <i name="OFIELD_KAPPA">      0.00000000</i>
   <v name="OFIELD_K">      0.00000000      0.00000000      0.00000000</v>
   <i name="OFIELD_Q6_NEAR">      0.00000000</i>
   <i name="OFIELD_Q6_FAR">      0.00000000</i>
   <i name="OFIELD_A">      0.00000000</i>
  </separator>
  <separator name="optional k-points parameters" >
   <i type="int" name="KPOINTS_OPT_MODE">     1</i>
   <i type="logical" name="LKPOINTS_OPT"> F  </i>
  </separator>
 </parameters>
 <atominfo>
  <atoms>       7 </atoms>
  <types>       1 </types>
  <array name="atoms" >
   <dimension dim="1">ion</dimension>
   <field type="string">element</field>
   <field type="int">atomtype</field>
   <set>
    <rc><c>Si</c><c>   1</c></rc>
    <rc><c>Si</c><c>   1</c></rc>
    <rc><c>Si</c><c>   1</c></rc>
    <rc><c>Si</c><c>   1</c></rc>
    <rc><c>Si</c><c>   1</c></rc>
    <rc><c>Si</c><c>   1</c></rc>
    <rc><c>Si</c><c>   1</c></rc>
   </set>
  </array>
  <array name="atomtypes" >
   <dimension dim="1">type</dimension>
   <field type="int">atomspertype</field>
   <field type="string">element</field>
   <field>mass</field>
   <field>valence</field>
   <field type="string">pseudopotential</field>
   <set>
    <rc><c>   7</c><c>Si</c><c>     28.08500000</c><c>      4.00000000</c><c>  PAW_PBE Si 05Jan2001                  </c></rc>
   </set>
  </array>
 </atominfo>
 <structure name="initialpos" >
  <crystal>
   <varray name="basis" >
    <v>       5.43784835       0.00000000       0.00000000 </v>
    <v>       0.00000000       5.43784835       0.00000000 </v>
    <v>       0.00000000       0.00000000       5.43784835 </v>
   </varray>
   <i name="volume">    160.79823434 </i>
   <varray name="rec_basis" >
    <v>       0.18389626       0.00000000       0.00000000 </v>
    <v>       0.00000000       0.18389626       0.00000000 </v>
    <v>       0.00000000       0.00000000       0.18389626 </v>
   </varray>
  </crystal>
  <varray name="positions" >
   <v>       0.24401317       0.75598683       0.24401317 </v>
   <v>       0.00000000       0.00000000       0.50000000 </v>
   <v>       0.24401317       0.24401317       0.75598683 </v>
   <v>       0.00000000       0.50000000       0.00000000 </v>
   <v>       0.75598683       0.75598683       0.75598683 </v>
   <v>       0.50000000       0.00000000       0.00000000 </v>
   <v>       0.75598683       0.24401317       0.24401317 </v>
  </varray>
 </structure>
 <calculation>
  <scstep>
   <time name="dav">    5.20    5.20</time>
   <time name="total">    5.40    5.41</time>
   <energy>
    <i name="alphaZ">     10.25815623 </i>
    <i name="ewald">   -737.40195061 </i>
    <i name="hartreedc">    -64.22387377 </i>
    <i name="XCdc">    -62.35947365 </i>
    <i name="pawpsdc">    612.34974655 </i>
    <i name="pawaedc">   -491.33201702 </i>
    <i name="eentropy">     -0.00499217 </i>
    <i name="bandstr">     -9.43092686 </i>
    <i name="atom">    718.02812073 </i>
    <i name="e_fr_energy">    -24.11721058 </i>
    <i name="e_wo_entrp">    -24.11221841 </i>
    <i name="e_0_energy">    -24.11471449 </i>
   </energy>
  </scstep>
  <scstep>
   <time name="dav">   12.35   12.37</time>
   <time name="total">   12.35   12.37</time>
   <energy>
    <i name="e_fr_energy">    -42.28778048 </i>
    <i name="e_wo_entrp">    -42.28249121 </i>
    <i name="e_0_energy">    -42.28513584 </i>
   </energy>
  </scstep>
  <scstep>
   <time name="dav">    5.31    5.33</time>
   <time name="total">    5.32    5.33</time>
   <energy>
    <i name="e_fr_energy">    -42.30240069 </i>
    <i name="e_wo_entrp">    -42.29711141 </i>
    <i name="e_0_energy">    -42.29975605 </i>
   </energy>
  </scstep>
  <scstep>
   <time name="dav">   25.47   25.49</time>
   <time name="total">   25.47   25.49</time>
   <energy>
    <i name="e_fr_energy">    -42.30240857 </i>
    <i name="e_wo_entrp">    -42.29711929 </i>
    <i name="e_0_energy">    -42.29976393 </i>
   </energy>
  </scstep>
  <scstep>
   <time name="dav">    5.67    5.69</time>
   <time name="total">    5.72    5.75</time>
   <energy>
    <i name="e_fr_energy">    -42.30240857 </i>
    <i name="e_wo_entrp">    -42.29711929 </i>
    <i name="e_0_energy">    -42.29976393 </i>
   </energy>
  </scstep>
  <scstep>
   <time name="diag">    0.81    0.81</time>
   <time name="diis">    0.19    0.19</time>
   <time name="orth">    0.11    0.11</time>
   <time name="total">    1.38    1.40</time>
   <energy>
    <i name="e_fr_energy">    -41.78792403 </i>
    <i name="e_wo_entrp">    -41.78263476 </i>
    <i name="e_0_energy">    -41.78527939 </i>
   </energy>
  </scstep>
  <scstep>
   <time name="diag">    0.78    0.78</time>
   <time name="diis">    0.30    0.30</time>
   <time name="orth">    0.11    0.11</time>
   <time name="total">    1.45    1.47</time>
   <energy>
    <i name="e_fr_energy">    -41.58389487 </i>
    <i name="e_wo_entrp">    -41.57860559 </i>
    <i name="e_0_energy">    -41.58125023 </i>
   </energy>
  </scstep>
  <scstep>
   <time name="diag">    0.77    0.77</time>
   <time name="diis">    0.27    0.27</time>
   <time name="orth">    0.11    0.11</time>
   <time name="total">    1.41    1.43</time>
   <energy>
    <i name="e_fr_energy">    -41.57572373 </i>
    <i name="e_wo_entrp">    -41.57043445 </i>
    <i name="e_0_energy">    -41.57307909 </i>
   </energy>
  </scstep>
  <scstep>
   <time name="diag">    0.78    0.78</time>
   <time name="diis">    0.31    0.31</time>
   <time name="orth">    0.11    0.11</time>
   <time name="total">    1.46    1.49</time>
   <energy>
    <i name="e_fr_energy">    -41.57563002 </i>
    <i name="e_wo_entrp">    -41.57034075 </i>
    <i name="e_0_energy">    -41.57298538 </i>
   </energy>
  </scstep>
  <scstep>
   <time name="diag">    0.77    0.77</time>
   <time name="diis">    0.30    0.30</time>
   <time name="orth">    0.11    0.11</time>
   <time name="total">    1.45    1.47</time>
   <energy>
    <i name="e_fr_energy">    -41.57569071 </i>
    <i name="e_wo_entrp">    -41.57040143 </i>
    <i name="e_0_energy">    -41.57304607 </i>
   </energy>
  </scstep>
  <scstep>
   <time name="diag">    0.76    0.76</time>
   <time name="diis">    0.32    0.32</time>
   <time name="orth">    0.11    0.11</time>
   <time name="total">    1.45    1.47</time>
   <energy>
    <i name="e_fr_energy">    -41.57565154 </i>
    <i name="e_wo_entrp">    -41.57036226 </i>
    <i name="e_0_energy">    -41.57300690 </i>
   </energy>
  </scstep>
  <scstep>
   <time name="diag">    0.75    0.75</time>
   <time name="diis">    0.31    0.31</time>
   <time name="orth">    0.11    0.11</time>
   <time name="total">    1.40    1.42</time>
   <energy>
    <i name="alphaZ">     10.25815623 </i>
    <i name="ewald">   -737.40195061 </i>
    <i name="hartreedc">    -75.08971011 </i>
    <i name="XCdc">    -63.45765065 </i>
    <i name="pawpsdc">   2449.11453538 </i>
    <i name="pawaedc">  -2328.53839187 </i>
    <i name="eentropy">     -0.00528928 </i>
    <i name="bandstr">    -14.48347189 </i>
    <i name="atom">    718.02812073 </i>
    <i name="e_fr_energy">    -41.57565208 </i>
    <i name="e_wo_entrp">    -41.57036280 </i>
    <i name="e_0_energy">    -41.57300744 </i>
   </energy>
  </scstep>
  <structure>
   <crystal>
    <varray name="basis" >
     <v>       5.43784835       0.00000000       0.00000000 </v>
     <v>       0.00000000       5.43784835       0.00000000 </v>
     <v>       0.00000000       0.00000000       5.43784835 </v>
    </varray>
    <i name="volume">    160.79823434 </i>
    <varray name="rec_basis" >
     <v>       0.18389626       0.00000000       0.00000000 </v>
     <v>       0.00000000       0.18389626       0.00000000 </v>
     <v>       0.00000000       0.00000000       0.18389626 </v>
    </varray>
   </crystal>
   <varray name="positions" >
    <v>       0.24401317       0.75598683       0.24401317 </v>
    <v>       0.00000000       0.00000000       0.50000000 </v>
    <v>       0.24401317       0.24401317       0.75598683 </v>
    <v>       0.00000000       0.50000000       0.00000000 </v>
    <v>       0.75598683       0.75598683       0.75598683 </v>
    <v>       0.50000000       0.00000000       0.00000000 </v>
    <v>       0.75598683       0.24401317       0.24401317 </v>
   </varray>
  </structure>
  <varray name="forces" >
   <v>       0.00595689      -0.00595689       0.00595689 </v>
   <v>       0.00000000      -0.00000000      -0.00000000 </v>
   <v>       0.00595689       0.00595689      -0.00595689 </v>
   <v>       0.00000000      -0.00000000      -0.00000000 </v>
   <v>      -0.00595689      -0.00595689      -0.00595689 </v>
   <v>       0.00000000      -0.00000000      -0.00000000 </v>
   <v>      -0.00595689       0.00595689       0.00595689 </v>
  </varray>
  <varray name="stress" >
   <v>    -106.33365126       0.00000000      -0.00000000 </v>
   <v>       0.00000000    -106.33365126      -0.00000000 </v>
   <v>       0.00000000       0.00000000    -106.33365126 </v>
  </varray>
  <energy>
   <i name="e_fr_energy">    -41.57565208 </i>
   <i name="e_wo_entrp">    -41.57036280 </i>
   <i name="e_0_energy">    -41.57300744 </i>
  </energy>
  <time name="totalsc">   67.13   67.46</time>
  <eigenvalues>
   <array>
    <dimension dim="1">band</dimension>
    <dimension dim="2">kpoint</dimension>
    <dimension dim="3">spin</dimension>
    <field>eigene</field>
    <field>occ</field>
    <set>
     <set comment="spin 1">
      <set comment="kpoint 1">
       <r>   -7.0236    1.0000 </r>
       <r>   -3.3356    1.0000 </r>
       <r>   -3.3356    1.0000 </r>
       <r>   -2.9777    1.0000 </r>
       <r>   -2.9777    1.0000 </r>
       <r>   -2.9777    1.0000 </r>
       <r>    1.5229    1.0000 </r>
       <r>    1.6940    1.0000 </r>
       <r>    1.6940    1.0000 </r>
       <r>    1.6940    1.0000 </r>
       <r>    2.7328    1.0000 </r>
       <r>    2.7328    1.0000 </r>
       <r>    2.7328    1.0000 </r>
       <r>    5.6992    0.0000 </r>
       <r>    5.6992    0.0000 </r>
       <r>    5.6992    0.0000 </r>
       <r>    5.9124    0.0000 </r>
       <r>    5.9124    0.0000 </r>
       <r>    6.0186    0.0000 </r>
       <r>    6.1342    0.0000 </r>
       <r>    6.1342    0.0000 </r>
       <r>    6.1342    0.0000 </r>
       <r>    8.9851    0.0000 </r>
       <r>    8.9851    0.0000 </r>
       <r>    8.9851    0.0000 </r>
       <r>   10.6054    0.0000 </r>
       <r>   12.8959    0.0000 </r>
       <r>   12.8959    0.0000 </r>
       <r>   13.4657    0.0000 </r>
       <r>   14.6994    0.0000 </r>
       <r>   14.6994    0.0000 </r>
       <r>   14.6994    0.0000 </r>
       <r>   15.4256    0.0000 </r>
       <r>   15.4256    0.0000 </r>
       <r>   15.4256    0.0000 </r>
       <r>   15.4297    0.0000 </r>
       <r>   15.4297    0.0000 </r>
       <r>   15.4297    0.0000 </r>
       <r>   16.5502    0.0000 </r>
       <r>   16.5502    0.0000 </r>
       <r>   16.5502    0.0000 </r>
       <r>   17.0827    0.0000 </r>
       <r>   17.4599    0.0000 </r>
       <r>   17.4599    0.0000 </r>
       <r>   17.5361    0.0000 </r>
       <r>   17.5361    0.0000 </r>
       <r>   17.5361    0.0000 </r>
       <r>   18.5454    0.0000 </r>
       <r>   18.5454    0.0000 </r>
       <r>   18.5454    0.0000 </r>
       <r>   19.2304    0.0000 </r>
       <r>   19.4239    0.0000 </r>
       <r>   19.4239    0.0000 </r>
       <r>   20.3583    0.0000 </r>
       <r>   21.1296    0.0000 </r>
       <r>   21.1296    0.0000 </r>
       <r>   21.1296    0.0000 </r>
       <r>   23.5092    0.0000 </r>
       <r>   23.8026    0.0000 </r>
       <r>   23.8026    0.0000 </r>
       <r>   23.8026    0.0000 </r>
       <r>   24.6476    0.0000 </r>
       <r>   24.6476    0.0000 </r>
       <r>   24.6476    0.0000 </r>
       <r>   25.1277    0.0000 </r>
       <r>   25.1277    0.0000 </r>
       <r>   25.1277    0.0000 </r>
       <r>   25.2292    0.0000 </r>
       <r>   25.2292    0.0000 </r>
       <r>   25.2292    0.0000 </r>
       <r>   25.9498    0.0000 </r>
       <r>   25.9498    0.0000 </r>
       <r>   26.2118    0.0000 </r>
       <r>   26.2118    0.0000 </r>
       <r>   26.6146    0.0000 </r>
       <r>   26.6146    0.0000 </r>
       <r>   26.6146    0.0000 </r>
       <r>   27.4683    0.0000 </r>
       <r>   27.4683    0.0000 </r>
       <r>   27.4683    0.0000 </r>
       <r>   27.7012    0.0000 </r>
       <r>   28.1826    0.0000 </r>
       <r>   28.1826    0.0000 </r>
       <r>   28.1826    0.0000 </r>
       <r>   29.3179    0.0000 </r>
       <r>   29.3179    0.0000 </r>
       <r>   31.0261    0.0000 </r>
       <r>   31.5394    0.0000 </r>
       <r>   31.5394    0.0000 </r>
       <r>   31.5394    0.0000 </r>
       <r>   32.8797    0.0000 </r>
       <r>   32.8797    0.0000 </r>
       <r>   33.5349    0.0000 </r>
       <r>   33.5349    0.0000 </r>
       <r>   33.5349    0.0000 </r>
       <r>   33.6841    0.0000 </r>
       <r>   33.6841    0.0000 </r>
       <r>   33.6841    0.0000 </r>
       <r>   36.0150    0.0000 </r>
       <r>   36.0150    0.0000 </r>
       <r>   36.0150    0.0000 </r>
       <r>   37.1733    0.0000 </r>
       <r>   37.1733    0.0000 </r>
       <r>   37.1733    0.0000 </r>
       <r>   39.1197    0.0000 </r>
       <r>   39.1197    0.0000 </r>
       <r>   39.1591    0.0000 </r>
       <r>   39.1591    0.0000 </r>
       <r>   39.1591    0.0000 </r>
       <r>   39.1860    0.0000 </r>
       <r>   39.1860    0.0000 </r>
       <r>   39.1860    0.0000 </r>
       <r>   39.5079    0.0000 </r>
       <r>   40.5146    0.0000 </r>
       <r>   40.5146    0.0000 </r>
       <r>   40.5146    0.0000 </r>
       <r>   40.5454    0.0000 </r>
       <r>   40.9243    0.0000 </r>
       <r>   40.9243    0.0000 </r>
       <r>   40.9243    0.0000 </r>
       <r>   42.1855    0.0000 </r>
       <r>   42.1855    0.0000 </r>
       <r>   42.4510    0.0000 </r>
       <r>   42.4510    0.0000 </r>
       <r>   42.4510    0.0000 </r>
       <r>   42.6948    0.0000 </r>
       <r>   42.9368    0.0000 </r>
       <r>   43.1927    0.0000 </r>
       <r>   43.1927    0.0000 </r>
       <r>   43.1927    0.0000 </r>
       <r>   43.3258    0.0000 </r>
       <r>   43.3258    0.0000 </r>
       <r>   44.3436    0.0000 </r>
       <r>   44.3436    0.0000 </r>
       <r>   44.3436    0.0000 </r>
       <r>   45.0598    0.0000 </r>
       <r>   45.0608    0.0000 </r>
       <r>   45.3080    0.0000 </r>
       <r>   45.3080    0.0000 </r>
       <r>   45.3080    0.0000 </r>
       <r>   45.5217    0.0000 </r>
       <r>   45.5217    0.0000 </r>
       <r>   45.5217    0.0000 </r>
       <r>   46.2180    0.0000 </r>
      </set>
      <set comment="kpoint 2">
       <r>   -6.7865    1.0000 </r>
       <r>   -4.6647    1.0000 </r>
       <r>   -3.2734    1.0000 </r>
       <r>   -2.9130    1.0000 </r>
       <r>   -2.9130    1.0000 </r>
       <r>   -1.5579    1.0000 </r>
       <r>    1.2526    1.0000 </r>
       <r>    1.4257    1.0000 </r>
       <r>    1.4257    1.0000 </r>
       <r>    1.6731    1.0000 </r>
       <r>    2.1188    1.0000 </r>
       <r>    2.5822    1.0000 </r>
       <r>    2.5822    1.0000 </r>
       <r>    5.0330    0.0000 </r>
       <r>    5.4962    0.0000 </r>
       <r>    5.4962    0.0000 </r>
       <r>    5.8040    0.0000 </r>
       <r>    6.4185    0.0000 </r>
       <r>    6.9775    0.0000 </r>
       <r>    6.9775    0.0000 </r>
       <r>    7.0508    0.0000 </r>
       <r>    7.3308    0.0000 </r>
       <r>    8.6096    0.0000 </r>
       <r>    9.9269    0.0000 </r>
       <r>    9.9269    0.0000 </r>
       <r>   10.9051    0.0000 </r>
       <r>   12.1482    0.0000 </r>
       <r>   12.3745    0.0000 </r>
       <r>   12.3745    0.0000 </r>
       <r>   12.6021    0.0000 </r>
       <r>   13.1859    0.0000 </r>
       <r>   13.5914    0.0000 </r>
       <r>   14.5633    0.0000 </r>
       <r>   14.6021    0.0000 </r>
       <r>   14.6021    0.0000 </r>
       <r>   14.9060    0.0000 </r>
       <r>   15.8301    0.0000 </r>
       <r>   15.8301    0.0000 </r>
       <r>   16.0981    0.0000 </r>
       <r>   16.8233    0.0000 </r>
       <r>   16.9276    0.0000 </r>
       <r>   16.9276    0.0000 </r>
       <r>   17.1704    0.0000 </r>
       <r>   17.5005    0.0000 </r>
       <r>   17.9718    0.0000 </r>
       <r>   18.4335    0.0000 </r>
       <r>   18.4335    0.0000 </r>
       <r>   19.1783    0.0000 </r>
       <r>   19.1783    0.0000 </r>
       <r>   19.5009    0.0000 </r>
       <r>   19.8437    0.0000 </r>
       <r>   20.0988    0.0000 </r>
       <r>   20.9161    0.0000 </r>
       <r>   21.2242    0.0000 </r>
       <r>   21.5149    0.0000 </r>
       <r>   21.5149    0.0000 </r>
       <r>   21.6649    0.0000 </r>
       <r>   22.3178    0.0000 </r>
       <r>   22.4922    0.0000 </r>
       <r>   22.4922    0.0000 </r>
       <r>   23.0722    0.0000 </r>
       <r>   23.4884    0.0000 </r>
       <r>   23.4884    0.0000 </r>
       <r>   23.8742    0.0000 </r>
       <r>   24.2926    0.0000 </r>
       <r>   24.4855    0.0000 </r>
       <r>   24.6320    0.0000 </r>
       <r>   24.6320    0.0000 </r>
       <r>   25.2232    0.0000 </r>
       <r>   25.6598    0.0000 </r>
       <r>   25.6598    0.0000 </r>
       <r>   26.3468    0.0000 </r>
       <r>   26.9641    0.0000 </r>
       <r>   27.2938    0.0000 </r>
       <r>   27.2938    0.0000 </r>
       <r>   27.8421    0.0000 </r>
       <r>   27.9899    0.0000 </r>
       <r>   28.1832    0.0000 </r>
       <r>   28.5945    0.0000 </r>
       <r>   28.7437    0.0000 </r>
       <r>   28.7683    0.0000 </r>
       <r>   28.7683    0.0000 </r>
       <r>   29.4167    0.0000 </r>
       <r>   29.7188    0.0000 </r>
       <r>   29.7188    0.0000 </r>
       <r>   30.0978    0.0000 </r>
       <r>   30.5358    0.0000 </r>
       <r>   30.8813    0.0000 </r>
       <r>   31.3665    0.0000 </r>
       <r>   31.4929    0.0000 </r>
       <r>   31.4929    0.0000 </r>
       <r>   32.7413    0.0000 </r>
       <r>   32.7413    0.0000 </r>
       <r>   32.8442    0.0000 </r>
       <r>   34.1420    0.0000 </r>
       <r>   34.8519    0.0000 </r>
       <r>   34.8519    0.0000 </r>
       <r>   34.8942    0.0000 </r>
       <r>   35.2396    0.0000 </r>
       <r>   36.0060    0.0000 </r>
       <r>   36.0060    0.0000 </r>
       <r>   36.7083    0.0000 </r>
       <r>   36.7083    0.0000 </r>
       <r>   36.9144    0.0000 </r>
       <r>   36.9879    0.0000 </r>
       <r>   37.3074    0.0000 </r>
       <r>   37.4391    0.0000 </r>
       <r>   37.5384    0.0000 </r>
       <r>   37.5384    0.0000 </r>
       <r>   38.4108    0.0000 </r>
       <r>   38.4108    0.0000 </r>
       <r>   38.5602    0.0000 </r>
       <r>   38.6858    0.0000 </r>
       <r>   39.9942    0.0000 </r>
       <r>   40.0468    0.0000 </r>
       <r>   40.0468    0.0000 </r>
       <r>   40.6207    0.0000 </r>
       <r>   40.7144    0.0000 </r>
       <r>   40.7144    0.0000 </r>
       <r>   40.7450    0.0000 </r>
       <r>   41.0312    0.0000 </r>
       <r>   41.8359    0.0000 </r>
       <r>   42.0490    0.0000 </r>
       <r>   42.2717    0.0000 </r>
       <r>   42.4560    0.0000 </r>
       <r>   42.4560    0.0000 </r>
       <r>   42.8162    0.0000 </r>
       <r>   43.4321    0.0000 </r>
       <r>   43.4321    0.0000 </r>
       <r>   43.6838    0.0000 </r>
       <r>   44.4114    0.0000 </r>
       <r>   44.4689    0.0000 </r>
       <r>   44.6592    0.0000 </r>
       <r>   44.7148    0.0000 </r>
       <r>   44.7148    0.0000 </r>
       <r>   44.9197    0.0000 </r>
       <r>   45.0633    0.0000 </r>
       <r>   45.0633    0.0000 </r>
       <r>   45.1938    0.0000 </r>
       <r>   45.3873    0.0000 </r>
       <r>   45.7470    0.0000 </r>
       <r>   45.7471    0.0000 </r>
       <r>   46.2531    0.0000 </r>
       <r>   46.2749    0.0000 </r>
      </set>
      <set comment="kpoint 3">
       <r>   -6.3306    1.0000 </r>
       <r>   -5.5625    1.0000 </r>
       <r>   -3.2066    1.0000 </r>
       <r>   -2.8431    1.0000 </r>
       <r>   -2.8431    1.0000 </r>
       <r>   -0.4661    1.0000 </r>
       <r>    0.6818    1.0000 </r>
       <r>    0.8917    1.0000 </r>
       <r>    1.1216    1.0000 </r>
       <r>    1.1216    1.0000 </r>
       <r>    2.6077    1.0000 </r>
       <r>    2.6077    1.0000 </r>
       <r>    3.0238    1.0000 </r>
       <r>    3.7506    1.0000 </r>
       <r>    5.0668    0.0000 </r>
       <r>    5.0668    0.0000 </r>
       <r>    6.1639    0.0000 </r>
       <r>    6.5774    0.0000 </r>
       <r>    8.1199    0.0000 </r>
       <r>    9.1116    0.0000 </r>
       <r>    9.1116    0.0000 </r>
       <r>    9.2368    0.0000 </r>
       <r>    9.4149    0.0000 </r>
       <r>    9.7152    0.0000 </r>
       <r>    9.7323    0.0000 </r>
       <r>    9.7323    0.0000 </r>
       <r>   10.4971    0.0000 </r>
       <r>   10.6113    0.0000 </r>
       <r>   11.2647    0.0000 </r>
       <r>   11.2647    0.0000 </r>
       <r>   13.2300    0.0000 </r>
       <r>   13.2300    0.0000 </r>
       <r>   13.4770    0.0000 </r>
       <r>   14.2956    0.0000 </r>
       <r>   14.7539    0.0000 </r>
       <r>   14.8221    0.0000 </r>
       <r>   15.3407    0.0000 </r>
       <r>   15.8043    0.0000 </r>
       <r>   15.8043    0.0000 </r>
       <r>   16.4643    0.0000 </r>
       <r>   16.9601    0.0000 </r>
       <r>   17.5085    0.0000 </r>
       <r>   17.6392    0.0000 </r>
       <r>   17.6392    0.0000 </r>
       <r>   18.3200    0.0000 </r>
       <r>   18.3938    0.0000 </r>
       <r>   18.7771    0.0000 </r>
       <r>   18.7771    0.0000 </r>
       <r>   19.6394    0.0000 </r>
       <r>   19.7889    0.0000 </r>
       <r>   19.7889    0.0000 </r>
       <r>   20.6887    0.0000 </r>
       <r>   21.5855    0.0000 </r>
       <r>   21.5855    0.0000 </r>
       <r>   21.6178    0.0000 </r>
       <r>   21.7860    0.0000 </r>
       <r>   22.3471    0.0000 </r>
       <r>   22.3471    0.0000 </r>
       <r>   22.5536    0.0000 </r>
       <r>   22.5536    0.0000 </r>
       <r>   22.9833    0.0000 </r>
       <r>   23.0683    0.0000 </r>
       <r>   23.6271    0.0000 </r>
       <r>   23.6271    0.0000 </r>
       <r>   23.9628    0.0000 </r>
       <r>   24.0257    0.0000 </r>
       <r>   24.1654    0.0000 </r>
       <r>   24.8204    0.0000 </r>
       <r>   24.8284    0.0000 </r>
       <r>   25.6460    0.0000 </r>
       <r>   26.4385    0.0000 </r>
       <r>   26.4385    0.0000 </r>
       <r>   26.5862    0.0000 </r>
       <r>   26.7505    0.0000 </r>
       <r>   27.1521    0.0000 </r>
       <r>   27.1521    0.0000 </r>
       <r>   27.3597    0.0000 </r>
       <r>   27.4033    0.0000 </r>
       <r>   29.5523    0.0000 </r>
       <r>   29.6670    0.0000 </r>
       <r>   29.9957    0.0000 </r>
       <r>   29.9957    0.0000 </r>
       <r>   30.2718    0.0000 </r>
       <r>   31.4152    0.0000 </r>
       <r>   31.7018    0.0000 </r>
       <r>   31.7611    0.0000 </r>
       <r>   31.7611    0.0000 </r>
       <r>   32.0372    0.0000 </r>
       <r>   32.2743    0.0000 </r>
       <r>   32.5626    0.0000 </r>
       <r>   32.5626    0.0000 </r>
       <r>   32.6622    0.0000 </r>
       <r>   32.6622    0.0000 </r>
       <r>   32.6675    0.0000 </r>
       <r>   33.8985    0.0000 </r>
       <r>   34.0298    0.0000 </r>
       <r>   34.2304    0.0000 </r>
       <r>   34.2304    0.0000 </r>
       <r>   34.4405    0.0000 </r>
       <r>   34.6539    0.0000 </r>
       <r>   34.7401    0.0000 </r>
       <r>   34.7401    0.0000 </r>
       <r>   35.0215    0.0000 </r>
       <r>   35.5316    0.0000 </r>
       <r>   35.5316    0.0000 </r>
       <r>   35.8746    0.0000 </r>
       <r>   36.3907    0.0000 </r>
       <r>   36.3907    0.0000 </r>
       <r>   36.7150    0.0000 </r>
       <r>   38.0846    0.0000 </r>
       <r>   38.3022    0.0000 </r>
       <r>   38.3022    0.0000 </r>
       <r>   38.9579    0.0000 </r>
       <r>   39.8135    0.0000 </r>
       <r>   39.9845    0.0000 </r>
       <r>   40.3907    0.0000 </r>
       <r>   40.5774    0.0000 </r>
       <r>   40.5785    0.0000 </r>
       <r>   40.5785    0.0000 </r>
       <r>   41.4853    0.0000 </r>
       <r>   41.4853    0.0000 </r>
       <r>   41.5864    0.0000 </r>
       <r>   41.7546    0.0000 </r>
       <r>   42.0418    0.0000 </r>
       <r>   42.0418    0.0000 </r>
       <r>   42.2232    0.0000 </r>
       <r>   42.7489    0.0000 </r>
       <r>   42.7489    0.0000 </r>
       <r>   42.8965    0.0000 </r>
       <r>   42.9315    0.0000 </r>
       <r>   43.4108    0.0000 </r>
       <r>   43.4108    0.0000 </r>
       <r>   44.3215    0.0000 </r>
       <r>   44.7074    0.0000 </r>
       <r>   44.8658    0.0000 </r>
       <r>   44.8658    0.0000 </r>
       <r>   45.1701    0.0000 </r>
       <r>   45.2277    0.0000 </r>
       <r>   45.2277    0.0000 </r>
       <r>   45.5765    0.0000 </r>
       <r>   45.8196    0.0000 </r>
       <r>   45.8771    0.0000 </r>
       <r>   46.7196    0.0000 </r>
       <r>   46.7721    0.0000 </r>
      </set>
      <set comment="kpoint 4">
       <r>   -6.5517    1.0000 </r>
       <r>   -4.7366    1.0000 </r>
       <r>   -4.2635    1.0000 </r>
       <r>   -2.9707    1.0000 </r>
       <r>   -2.0648    1.0000 </r>
       <r>   -1.1908    1.0000 </r>
       <r>    0.4779    1.0000 </r>
       <r>    1.2951    1.0000 </r>
       <r>    1.4896    1.0000 </r>
       <r>    1.8225    1.0000 </r>
       <r>    1.8362    1.0000 </r>
       <r>    2.7712    1.0000 </r>
       <r>    2.8194    1.0000 </r>
       <r>    4.2422    0.5000 </r>
       <r>    4.9822    0.0000 </r>
       <r>    5.8531    0.0000 </r>
       <r>    6.2428    0.0000 </r>
       <r>    6.8310    0.0000 </r>
       <r>    7.1876    0.0000 </r>
       <r>    7.5180    0.0000 </r>
       <r>    7.5569    0.0000 </r>
       <r>    9.0139    0.0000 </r>
       <r>    9.5445    0.0000 </r>
       <r>    9.5936    0.0000 </r>
       <r>    9.7946    0.0000 </r>
       <r>   10.2434    0.0000 </r>
       <r>   11.5946    0.0000 </r>
       <r>   11.6131    0.0000 </r>
       <r>   12.2297    0.0000 </r>
       <r>   12.3315    0.0000 </r>
       <r>   12.6625    0.0000 </r>
       <r>   13.2303    0.0000 </r>
       <r>   13.2453    0.0000 </r>
       <r>   14.1681    0.0000 </r>
       <r>   14.4312    0.0000 </r>
       <r>   15.0213    0.0000 </r>
       <r>   15.1066    0.0000 </r>
       <r>   15.4363    0.0000 </r>
       <r>   15.9959    0.0000 </r>
       <r>   16.3710    0.0000 </r>
       <r>   16.5317    0.0000 </r>
       <r>   16.7547    0.0000 </r>
       <r>   17.7426    0.0000 </r>
       <r>   18.1740    0.0000 </r>
       <r>   18.6009    0.0000 </r>
       <r>   18.8568    0.0000 </r>
       <r>   18.8742    0.0000 </r>
       <r>   19.2716    0.0000 </r>
       <r>   19.5264    0.0000 </r>
       <r>   19.6259    0.0000 </r>
       <r>   19.9384    0.0000 </r>
       <r>   20.1012    0.0000 </r>
       <r>   20.3479    0.0000 </r>
       <r>   21.0912    0.0000 </r>
       <r>   21.3106    0.0000 </r>
       <r>   21.5829    0.0000 </r>
       <r>   21.7117    0.0000 </r>
       <r>   22.4480    0.0000 </r>
       <r>   22.5908    0.0000 </r>
       <r>   22.8054    0.0000 </r>
       <r>   22.9309    0.0000 </r>
       <r>   23.1885    0.0000 </r>
       <r>   23.4426    0.0000 </r>
       <r>   23.9379    0.0000 </r>
       <r>   24.4778    0.0000 </r>
       <r>   24.9140    0.0000 </r>
       <r>   25.1856    0.0000 </r>
       <r>   25.1945    0.0000 </r>
       <r>   25.9242    0.0000 </r>
       <r>   25.9362    0.0000 </r>
       <r>   26.4278    0.0000 </r>
       <r>   26.5021    0.0000 </r>
       <r>   26.6906    0.0000 </r>
       <r>   27.0609    0.0000 </r>
       <r>   27.2989    0.0000 </r>
       <r>   27.6005    0.0000 </r>
       <r>   27.6157    0.0000 </r>
       <r>   27.9334    0.0000 </r>
       <r>   28.4618    0.0000 </r>
       <r>   28.6798    0.0000 </r>
       <r>   28.8921    0.0000 </r>
       <r>   29.2576    0.0000 </r>
       <r>   29.4301    0.0000 </r>
       <r>   30.0462    0.0000 </r>
       <r>   30.4343    0.0000 </r>
       <r>   30.8254    0.0000 </r>
       <r>   31.0828    0.0000 </r>
       <r>   31.2127    0.0000 </r>
       <r>   32.2403    0.0000 </r>
       <r>   32.3186    0.0000 </r>
       <r>   32.6434    0.0000 </r>
       <r>   32.9939    0.0000 </r>
       <r>   33.1632    0.0000 </r>
       <r>   33.2206    0.0000 </r>
       <r>   33.6091    0.0000 </r>
       <r>   33.7339    0.0000 </r>
       <r>   34.5348    0.0000 </r>
       <r>   34.5984    0.0000 </r>
       <r>   34.7782    0.0000 </r>
       <r>   35.3633    0.0000 </r>
       <r>   35.5597    0.0000 </r>
       <r>   35.5687    0.0000 </r>
       <r>   36.1156    0.0000 </r>
       <r>   36.7075    0.0000 </r>
       <r>   36.8565    0.0000 </r>
       <r>   37.1795    0.0000 </r>
       <r>   37.4403    0.0000 </r>
       <r>   37.5774    0.0000 </r>
       <r>   37.8290    0.0000 </r>
       <r>   38.0365    0.0000 </r>
       <r>   38.2456    0.0000 </r>
       <r>   38.2609    0.0000 </r>
       <r>   38.7424    0.0000 </r>
       <r>   38.7428    0.0000 </r>
       <r>   39.2360    0.0000 </r>
       <r>   39.3154    0.0000 </r>
       <r>   39.6404    0.0000 </r>
       <r>   39.6961    0.0000 </r>
       <r>   40.1274    0.0000 </r>
       <r>   40.1919    0.0000 </r>
       <r>   40.7773    0.0000 </r>
       <r>   41.1155    0.0000 </r>
       <r>   41.3339    0.0000 </r>
       <r>   42.2491    0.0000 </r>
       <r>   42.3937    0.0000 </r>
       <r>   42.4361    0.0000 </r>
       <r>   42.6595    0.0000 </r>
       <r>   43.0850    0.0000 </r>
       <r>   43.1793    0.0000 </r>
       <r>   43.4440    0.0000 </r>
       <r>   43.5237    0.0000 </r>
       <r>   43.6173    0.0000 </r>
       <r>   44.2299    0.0000 </r>
       <r>   44.2710    0.0000 </r>
       <r>   44.6379    0.0000 </r>
       <r>   44.9878    0.0000 </r>
       <r>   44.9898    0.0000 </r>
       <r>   45.1443    0.0000 </r>
       <r>   45.1871    0.0000 </r>
       <r>   46.0928    0.0000 </r>
       <r>   46.1173    0.0000 </r>
       <r>   46.2429    0.0000 </r>
       <r>   46.4965    0.0000 </r>
       <r>   46.7815    0.0000 </r>
      </set>
      <set comment="kpoint 5">
       <r>   -6.0876    1.0000 </r>
       <r>   -5.4385    1.0000 </r>
       <r>   -4.2947    1.0000 </r>
       <r>   -3.0721    1.0000 </r>
       <r>   -1.8081    1.0000 </r>
       <r>   -0.6383    1.0000 </r>
       <r>    0.1929    1.0000 </r>
       <r>    0.5906    1.0000 </r>
       <r>    1.4875    1.0000 </r>
       <r>    1.6985    1.0000 </r>
       <r>    2.3805    1.0000 </r>
       <r>    2.4779    1.0000 </r>
       <r>    3.0141    1.0000 </r>
       <r>    3.8110    1.0000 </r>
       <r>    5.0490    0.0000 </r>
       <r>    5.1424    0.0000 </r>
       <r>    7.3029    0.0000 </r>
       <r>    7.7251    0.0000 </r>
       <r>    7.7495    0.0000 </r>
       <r>    7.8102    0.0000 </r>
       <r>    9.0329    0.0000 </r>
       <r>    9.3551    0.0000 </r>
       <r>    9.4280    0.0000 </r>
       <r>    9.8984    0.0000 </r>
       <r>    9.9722    0.0000 </r>
       <r>   10.1848    0.0000 </r>
       <r>   10.3972    0.0000 </r>
       <r>   10.8089    0.0000 </r>
       <r>   11.7280    0.0000 </r>
       <r>   11.9062    0.0000 </r>
       <r>   12.4640    0.0000 </r>
       <r>   12.4999    0.0000 </r>
       <r>   13.1640    0.0000 </r>
       <r>   13.1748    0.0000 </r>
       <r>   13.5155    0.0000 </r>
       <r>   14.2582    0.0000 </r>
       <r>   15.5401    0.0000 </r>
       <r>   15.6289    0.0000 </r>
       <r>   15.8440    0.0000 </r>
       <r>   16.4158    0.0000 </r>
       <r>   16.7687    0.0000 </r>
       <r>   17.0249    0.0000 </r>
       <r>   17.4255    0.0000 </r>
       <r>   17.8816    0.0000 </r>
       <r>   18.7942    0.0000 </r>
       <r>   18.9175    0.0000 </r>
       <r>   19.0666    0.0000 </r>
       <r>   19.3620    0.0000 </r>
       <r>   19.5791    0.0000 </r>
       <r>   19.8662    0.0000 </r>
       <r>   20.0785    0.0000 </r>
       <r>   20.3836    0.0000 </r>
       <r>   20.4145    0.0000 </r>
       <r>   20.6084    0.0000 </r>
       <r>   21.0891    0.0000 </r>
       <r>   21.4344    0.0000 </r>
       <r>   22.1859    0.0000 </r>
       <r>   22.3845    0.0000 </r>
       <r>   22.5484    0.0000 </r>
       <r>   22.9527    0.0000 </r>
       <r>   22.9806    0.0000 </r>
       <r>   23.7096    0.0000 </r>
       <r>   23.8536    0.0000 </r>
       <r>   23.8760    0.0000 </r>
       <r>   24.8237    0.0000 </r>
       <r>   24.9739    0.0000 </r>
       <r>   25.1162    0.0000 </r>
       <r>   25.6728    0.0000 </r>
       <r>   25.7598    0.0000 </r>
       <r>   26.0397    0.0000 </r>
       <r>   26.1517    0.0000 </r>
       <r>   26.7387    0.0000 </r>
       <r>   27.2715    0.0000 </r>
       <r>   27.2770    0.0000 </r>
       <r>   27.4026    0.0000 </r>
       <r>   27.6364    0.0000 </r>
       <r>   27.9901    0.0000 </r>
       <r>   28.3820    0.0000 </r>
       <r>   28.8608    0.0000 </r>
       <r>   29.1448    0.0000 </r>
       <r>   29.1811    0.0000 </r>
       <r>   29.7217    0.0000 </r>
       <r>   29.7653    0.0000 </r>
       <r>   30.4625    0.0000 </r>
       <r>   30.8779    0.0000 </r>
       <r>   31.2932    0.0000 </r>
       <r>   31.6796    0.0000 </r>
       <r>   31.6903    0.0000 </r>
       <r>   32.3351    0.0000 </r>
       <r>   32.4213    0.0000 </r>
       <r>   32.4807    0.0000 </r>
       <r>   32.9991    0.0000 </r>
       <r>   33.0124    0.0000 </r>
       <r>   33.1217    0.0000 </r>
       <r>   33.5709    0.0000 </r>
       <r>   33.9585    0.0000 </r>
       <r>   34.0183    0.0000 </r>
       <r>   34.4050    0.0000 </r>
       <r>   34.7018    0.0000 </r>
       <r>   34.9261    0.0000 </r>
       <r>   35.0539    0.0000 </r>
       <r>   35.1463    0.0000 </r>
       <r>   35.6741    0.0000 </r>
       <r>   36.1854    0.0000 </r>
       <r>   36.2995    0.0000 </r>
       <r>   36.3859    0.0000 </r>
       <r>   36.5217    0.0000 </r>
       <r>   36.9130    0.0000 </r>
       <r>   37.3097    0.0000 </r>
       <r>   37.4553    0.0000 </r>
       <r>   37.7809    0.0000 </r>
       <r>   38.2640    0.0000 </r>
       <r>   38.3972    0.0000 </r>
       <r>   38.6576    0.0000 </r>
       <r>   39.0283    0.0000 </r>
       <r>   39.2503    0.0000 </r>
       <r>   39.3805    0.0000 </r>
       <r>   39.5277    0.0000 </r>
       <r>   40.3561    0.0000 </r>
       <r>   40.3858    0.0000 </r>
       <r>   40.4909    0.0000 </r>
       <r>   40.8191    0.0000 </r>
       <r>   40.9886    0.0000 </r>
       <r>   41.7290    0.0000 </r>
       <r>   41.7916    0.0000 </r>
       <r>   42.0668    0.0000 </r>
       <r>   42.1131    0.0000 </r>
       <r>   42.8594    0.0000 </r>
       <r>   42.9186    0.0000 </r>
       <r>   43.2216    0.0000 </r>
       <r>   43.3542    0.0000 </r>
       <r>   43.5246    0.0000 </r>
       <r>   44.0226    0.0000 </r>
       <r>   44.0437    0.0000 </r>
       <r>   44.3980    0.0000 </r>
       <r>   44.8976    0.0000 </r>
       <r>   45.1653    0.0000 </r>
       <r>   45.2418    0.0000 </r>
       <r>   45.5472    0.0000 </r>
       <r>   45.7219    0.0000 </r>
       <r>   45.7688    0.0000 </r>
       <r>   46.1710    0.0000 </r>
       <r>   46.3741    0.0000 </r>
       <r>   46.5242    0.0000 </r>
      </set>
      <set comment="kpoint 6">
       <r>   -5.4643    1.0000 </r>
       <r>   -5.2863    1.0000 </r>
       <r>   -5.2863    1.0000 </r>
       <r>   -3.3501    1.0000 </r>
       <r>   -0.7655    1.0000 </r>
       <r>   -0.6380    1.0000 </r>
       <r>   -0.6380    1.0000 </r>
       <r>    0.5205    1.0000 </r>
       <r>    1.3237    1.0000 </r>
       <r>    1.3237    1.0000 </r>
       <r>    2.7067    1.0000 </r>
       <r>    2.9618    1.0000 </r>
       <r>    3.3096    1.0000 </r>
       <r>    3.4692    1.0000 </r>
       <r>    5.4952    0.0000 </r>
       <r>    5.4952    0.0000 </r>
       <r>    6.9837    0.0000 </r>
       <r>    6.9837    0.0000 </r>
       <r>    8.6231    0.0000 </r>
       <r>    8.7852    0.0000 </r>
       <r>    9.3788    0.0000 </r>
       <r>    9.5423    0.0000 </r>
       <r>    9.7074    0.0000 </r>
       <r>    9.7074    0.0000 </r>
       <r>    9.9995    0.0000 </r>
       <r>   10.3003    0.0000 </r>
       <r>   10.3003    0.0000 </r>
       <r>   10.3325    0.0000 </r>
       <r>   11.2034    0.0000 </r>
       <r>   11.9185    0.0000 </r>
       <r>   11.9185    0.0000 </r>
       <r>   12.9667    0.0000 </r>
       <r>   12.9667    0.0000 </r>
       <r>   13.1134    0.0000 </r>
       <r>   13.1942    0.0000 </r>
       <r>   13.2549    0.0000 </r>
       <r>   14.4849    0.0000 </r>
       <r>   15.6052    0.0000 </r>
       <r>   15.6052    0.0000 </r>
       <r>   15.7056    0.0000 </r>
       <r>   17.0569    0.0000 </r>
       <r>   17.7448    0.0000 </r>
       <r>   17.7448    0.0000 </r>
       <r>   17.8312    0.0000 </r>
       <r>   18.3964    0.0000 </r>
       <r>   18.3964    0.0000 </r>
       <r>   18.5778    0.0000 </r>
       <r>   19.1951    0.0000 </r>
       <r>   19.3236    0.0000 </r>
       <r>   19.3236    0.0000 </r>
       <r>   19.6536    0.0000 </r>
       <r>   20.8976    0.0000 </r>
       <r>   21.6592    0.0000 </r>
       <r>   21.6592    0.0000 </r>
       <r>   21.6767    0.0000 </r>
       <r>   21.8775    0.0000 </r>
       <r>   22.1160    0.0000 </r>
       <r>   22.1752    0.0000 </r>
       <r>   22.1752    0.0000 </r>
       <r>   22.2581    0.0000 </r>
       <r>   23.2309    0.0000 </r>
       <r>   23.5434    0.0000 </r>
       <r>   23.5581    0.0000 </r>
       <r>   23.5581    0.0000 </r>
       <r>   24.8007    0.0000 </r>
       <r>   25.4289    0.0000 </r>
       <r>   26.0677    0.0000 </r>
       <r>   26.0677    0.0000 </r>
       <r>   26.4219    0.0000 </r>
       <r>   26.4219    0.0000 </r>
       <r>   26.6222    0.0000 </r>
       <r>   27.1777    0.0000 </r>
       <r>   27.3115    0.0000 </r>
       <r>   27.3115    0.0000 </r>
       <r>   27.7618    0.0000 </r>
       <r>   28.0335    0.0000 </r>
       <r>   29.0707    0.0000 </r>
       <r>   29.4607    0.0000 </r>
       <r>   29.4607    0.0000 </r>
       <r>   29.7772    0.0000 </r>
       <r>   29.9068    0.0000 </r>
       <r>   29.9068    0.0000 </r>
       <r>   30.2051    0.0000 </r>
       <r>   30.7049    0.0000 </r>
       <r>   31.1949    0.0000 </r>
       <r>   31.2234    0.0000 </r>
       <r>   31.5903    0.0000 </r>
       <r>   31.5903    0.0000 </r>
       <r>   31.9678    0.0000 </r>
       <r>   32.0485    0.0000 </r>
       <r>   32.1012    0.0000 </r>
       <r>   32.1012    0.0000 </r>
       <r>   32.7291    0.0000 </r>
       <r>   32.7386    0.0000 </r>
       <r>   32.7386    0.0000 </r>
       <r>   32.9523    0.0000 </r>
       <r>   32.9523    0.0000 </r>
       <r>   33.6767    0.0000 </r>
       <r>   33.7876    0.0000 </r>
       <r>   33.7987    0.0000 </r>
       <r>   34.5917    0.0000 </r>
       <r>   34.7313    0.0000 </r>
       <r>   35.7031    0.0000 </r>
       <r>   35.9319    0.0000 </r>
       <r>   35.9319    0.0000 </r>
       <r>   36.0518    0.0000 </r>
       <r>   36.5841    0.0000 </r>
       <r>   36.5841    0.0000 </r>
       <r>   37.6542    0.0000 </r>
       <r>   37.6542    0.0000 </r>
       <r>   37.7360    0.0000 </r>
       <r>   38.9432    0.0000 </r>
       <r>   38.9432    0.0000 </r>
       <r>   39.0402    0.0000 </r>
       <r>   39.4280    0.0000 </r>
       <r>   40.3405    0.0000 </r>
       <r>   40.4601    0.0000 </r>
       <r>   40.7980    0.0000 </r>
       <r>   40.7980    0.0000 </r>
       <r>   40.8621    0.0000 </r>
       <r>   40.9891    0.0000 </r>
       <r>   41.3141    0.0000 </r>
       <r>   41.4035    0.0000 </r>
       <r>   41.8857    0.0000 </r>
       <r>   41.8857    0.0000 </r>
       <r>   42.0140    0.0000 </r>
       <r>   42.2148    0.0000 </r>
       <r>   42.5663    0.0000 </r>
       <r>   42.8047    0.0000 </r>
       <r>   42.8047    0.0000 </r>
       <r>   43.0568    0.0000 </r>
       <r>   43.0568    0.0000 </r>
       <r>   43.0847    0.0000 </r>
       <r>   43.3083    0.0000 </r>
       <r>   43.3083    0.0000 </r>
       <r>   43.5487    0.0000 </r>
       <r>   43.7879    0.0000 </r>
       <r>   44.1195    0.0000 </r>
       <r>   44.1195    0.0000 </r>
       <r>   44.3403    0.0000 </r>
       <r>   44.5691    0.0000 </r>
       <r>   44.5691    0.0000 </r>
       <r>   44.9407    0.0000 </r>
       <r>   45.5741    0.0000 </r>
      </set>
      <set comment="kpoint 7">
       <r>   -6.3235    1.0000 </r>
       <r>   -4.6443    1.0000 </r>
       <r>   -4.6443    1.0000 </r>
       <r>   -3.3110    1.0000 </r>
       <r>   -1.4862    1.0000 </r>
       <r>   -1.4862    1.0000 </r>
       <r>    0.0458    1.0000 </r>
       <r>    1.1485    1.0000 </r>
       <r>    1.1485    1.0000 </r>
       <r>    2.3314    1.0000 </r>
       <r>    2.3912    1.0000 </r>
       <r>    2.9366    1.0000 </r>
       <r>    2.9366    1.0000 </r>
       <r>    3.8490    1.0000 </r>
       <r>    5.6527    0.0000 </r>
       <r>    5.6527    0.0000 </r>
       <r>    6.2651    0.0000 </r>
       <r>    6.5916    0.0000 </r>
       <r>    6.5916    0.0000 </r>
       <r>    8.8046    0.0000 </r>
       <r>    8.8046    0.0000 </r>
       <r>    8.8948    0.0000 </r>
       <r>    9.8458    0.0000 </r>
       <r>    9.9416    0.0000 </r>
       <r>    9.9416    0.0000 </r>
       <r>   10.3333    0.0000 </r>
       <r>   10.3333    0.0000 </r>
       <r>   10.3902    0.0000 </r>
       <r>   11.8540    0.0000 </r>
       <r>   11.8540    0.0000 </r>
       <r>   12.7548    0.0000 </r>
       <r>   13.2781    0.0000 </r>
       <r>   13.2781    0.0000 </r>
       <r>   14.0405    0.0000 </r>
       <r>   14.2337    0.0000 </r>
       <r>   15.2404    0.0000 </r>
       <r>   15.4712    0.0000 </r>
       <r>   15.4712    0.0000 </r>
       <r>   15.8408    0.0000 </r>
       <r>   15.8408    0.0000 </r>
       <r>   16.0003    0.0000 </r>
       <r>   17.2566    0.0000 </r>
       <r>   17.3621    0.0000 </r>
       <r>   17.5540    0.0000 </r>
       <r>   17.5540    0.0000 </r>
       <r>   17.9413    0.0000 </r>
       <r>   18.9922    0.0000 </r>
       <r>   18.9922    0.0000 </r>
       <r>   19.4854    0.0000 </r>
       <r>   19.4854    0.0000 </r>
       <r>   19.6526    0.0000 </r>
       <r>   20.3853    0.0000 </r>
       <r>   20.3853    0.0000 </r>
       <r>   22.1778    0.0000 </r>
       <r>   22.1778    0.0000 </r>
       <r>   22.4595    0.0000 </r>
       <r>   22.5105    0.0000 </r>
       <r>   22.7232    0.0000 </r>
       <r>   22.7232    0.0000 </r>
       <r>   23.2114    0.0000 </r>
       <r>   23.4663    0.0000 </r>
       <r>   23.4663    0.0000 </r>
       <r>   23.9086    0.0000 </r>
       <r>   24.0283    0.0000 </r>
       <r>   24.0283    0.0000 </r>
       <r>   24.4679    0.0000 </r>
       <r>   24.7642    0.0000 </r>
       <r>   25.0181    0.0000 </r>
       <r>   25.0181    0.0000 </r>
       <r>   26.2991    0.0000 </r>
       <r>   26.2991    0.0000 </r>
       <r>   26.3671    0.0000 </r>
       <r>   26.7432    0.0000 </r>
       <r>   26.9734    0.0000 </r>
       <r>   26.9734    0.0000 </r>
       <r>   27.6914    0.0000 </r>
       <r>   27.6914    0.0000 </r>
       <r>   29.2110    0.0000 </r>
       <r>   29.2243    0.0000 </r>
       <r>   29.2243    0.0000 </r>
       <r>   29.9486    0.0000 </r>
       <r>   29.9486    0.0000 </r>
       <r>   30.0026    0.0000 </r>
       <r>   30.0974    0.0000 </r>
       <r>   30.5653    0.0000 </r>
       <r>   30.5653    0.0000 </r>
       <r>   31.6355    0.0000 </r>
       <r>   32.2991    0.0000 </r>
       <r>   32.2991    0.0000 </r>
       <r>   32.6126    0.0000 </r>
       <r>   32.8514    0.0000 </r>
       <r>   32.8514    0.0000 </r>
       <r>   33.6072    0.0000 </r>
       <r>   33.6072    0.0000 </r>
       <r>   33.7636    0.0000 </r>
       <r>   33.7845    0.0000 </r>
       <r>   34.1996    0.0000 </r>
       <r>   34.5391    0.0000 </r>
       <r>   34.5931    0.0000 </r>
       <r>   34.5931    0.0000 </r>
       <r>   34.9366    0.0000 </r>
       <r>   34.9366    0.0000 </r>
       <r>   36.0590    0.0000 </r>
       <r>   36.0590    0.0000 </r>
       <r>   36.3025    0.0000 </r>
       <r>   36.3960    0.0000 </r>
       <r>   36.4199    0.0000 </r>
       <r>   36.4199    0.0000 </r>
       <r>   37.3079    0.0000 </r>
       <r>   37.3931    0.0000 </r>
       <r>   37.3931    0.0000 </r>
       <r>   38.1397    0.0000 </r>
       <r>   38.1397    0.0000 </r>
       <r>   38.9458    0.0000 </r>
       <r>   39.2418    0.0000 </r>
       <r>   39.2418    0.0000 </r>
       <r>   39.3614    0.0000 </r>
       <r>   40.2092    0.0000 </r>
       <r>   40.2092    0.0000 </r>
       <r>   40.7966    0.0000 </r>
       <r>   40.7966    0.0000 </r>
       <r>   41.2256    0.0000 </r>
       <r>   41.4178    0.0000 </r>
       <r>   41.4178    0.0000 </r>
       <r>   41.5683    0.0000 </r>
       <r>   41.7490    0.0000 </r>
       <r>   41.8346    0.0000 </r>
       <r>   41.8346    0.0000 </r>
       <r>   42.9520    0.0000 </r>
       <r>   42.9520    0.0000 </r>
       <r>   42.9547    0.0000 </r>
       <r>   43.4559    0.0000 </r>
       <r>   43.6088    0.0000 </r>
       <r>   43.6088    0.0000 </r>
       <r>   44.1261    0.0000 </r>
       <r>   44.7482    0.0000 </r>
       <r>   44.7482    0.0000 </r>
       <r>   44.9434    0.0000 </r>
       <r>   45.3114    0.0000 </r>
       <r>   45.7658    0.0000 </r>
       <r>   45.7658    0.0000 </r>
       <r>   46.9206    0.0000 </r>
       <r>   46.9220    0.0000 </r>
       <r>   47.0133    0.0000 </r>
      </set>
      <set comment="kpoint 8">
       <r>   -5.8635    1.0000 </r>
       <r>   -5.3257    1.0000 </r>
       <r>   -4.5393    1.0000 </r>
       <r>   -3.3109    1.0000 </r>
       <r>   -1.7830    1.0000 </r>
       <r>   -1.1495    1.0000 </r>
       <r>   -0.5186    1.0000 </r>
       <r>    1.1245    1.0000 </r>
       <r>    2.0290    1.0000 </r>
       <r>    2.1784    1.0000 </r>
       <r>    2.3993    1.0000 </r>
       <r>    2.5150    1.0000 </r>
       <r>    2.8910    1.0000 </r>
       <r>    4.5572    0.0000 </r>
       <r>    5.0883    0.0000 </r>
       <r>    5.5024    0.0000 </r>
       <r>    6.9010    0.0000 </r>
       <r>    7.6469    0.0000 </r>
       <r>    7.8404    0.0000 </r>
       <r>    7.9529    0.0000 </r>
       <r>    8.0252    0.0000 </r>
       <r>    8.7157    0.0000 </r>
       <r>    9.7192    0.0000 </r>
       <r>    9.7990    0.0000 </r>
       <r>   10.1123    0.0000 </r>
       <r>   10.2390    0.0000 </r>
       <r>   10.4742    0.0000 </r>
       <r>   10.8696    0.0000 </r>
       <r>   11.9852    0.0000 </r>
       <r>   12.0461    0.0000 </r>
       <r>   12.4348    0.0000 </r>
       <r>   12.7737    0.0000 </r>
       <r>   12.8135    0.0000 </r>
       <r>   13.3994    0.0000 </r>
       <r>   14.1986    0.0000 </r>
       <r>   14.9136    0.0000 </r>
       <r>   15.2047    0.0000 </r>
       <r>   15.2668    0.0000 </r>
       <r>   15.4416    0.0000 </r>
       <r>   15.9057    0.0000 </r>
       <r>   16.0213    0.0000 </r>
       <r>   16.7041    0.0000 </r>
       <r>   16.9513    0.0000 </r>
       <r>   17.1914    0.0000 </r>
       <r>   18.3696    0.0000 </r>
       <r>   18.7060    0.0000 </r>
       <r>   18.7915    0.0000 </r>
       <r>   18.9603    0.0000 </r>
       <r>   19.0117    0.0000 </r>
       <r>   19.0687    0.0000 </r>
       <r>   20.4357    0.0000 </r>
       <r>   20.6460    0.0000 </r>
       <r>   20.8222    0.0000 </r>
       <r>   20.9571    0.0000 </r>
       <r>   21.4613    0.0000 </r>
       <r>   22.2608    0.0000 </r>
       <r>   22.3303    0.0000 </r>
       <r>   22.6966    0.0000 </r>
       <r>   22.9227    0.0000 </r>
       <r>   23.2035    0.0000 </r>
       <r>   23.4504    0.0000 </r>
       <r>   23.6194    0.0000 </r>
       <r>   23.9853    0.0000 </r>
       <r>   24.2864    0.0000 </r>
       <r>   24.3854    0.0000 </r>
       <r>   24.9072    0.0000 </r>
       <r>   25.1671    0.0000 </r>
       <r>   25.9608    0.0000 </r>
       <r>   26.1258    0.0000 </r>
       <r>   26.3195    0.0000 </r>
       <r>   26.6354    0.0000 </r>
       <r>   26.7280    0.0000 </r>
       <r>   27.0305    0.0000 </r>
       <r>   27.5524    0.0000 </r>
       <r>   28.0703    0.0000 </r>
       <r>   28.1445    0.0000 </r>
       <r>   28.3748    0.0000 </r>
       <r>   28.8145    0.0000 </r>
       <r>   29.5650    0.0000 </r>
       <r>   29.6216    0.0000 </r>
       <r>   29.7277    0.0000 </r>
       <r>   30.0755    0.0000 </r>
       <r>   30.4236    0.0000 </r>
       <r>   30.4466    0.0000 </r>
       <r>   30.6311    0.0000 </r>
       <r>   31.0929    0.0000 </r>
       <r>   31.2000    0.0000 </r>
       <r>   31.2904    0.0000 </r>
       <r>   31.9400    0.0000 </r>
       <r>   32.0155    0.0000 </r>
       <r>   32.3175    0.0000 </r>
       <r>   32.5389    0.0000 </r>
       <r>   32.8882    0.0000 </r>
       <r>   33.4001    0.0000 </r>
       <r>   34.0965    0.0000 </r>
       <r>   34.3522    0.0000 </r>
       <r>   34.4599    0.0000 </r>
       <r>   34.7614    0.0000 </r>
       <r>   34.8658    0.0000 </r>
       <r>   35.1003    0.0000 </r>
       <r>   35.1570    0.0000 </r>
       <r>   35.3489    0.0000 </r>
       <r>   35.5910    0.0000 </r>
       <r>   35.8157    0.0000 </r>
       <r>   36.1292    0.0000 </r>
       <r>   36.2796    0.0000 </r>
       <r>   36.4540    0.0000 </r>
       <r>   36.8613    0.0000 </r>
       <r>   36.9389    0.0000 </r>
       <r>   37.0375    0.0000 </r>
       <r>   37.2679    0.0000 </r>
       <r>   37.4650    0.0000 </r>
       <r>   37.5653    0.0000 </r>
       <r>   37.6270    0.0000 </r>
       <r>   38.0597    0.0000 </r>
       <r>   38.4960    0.0000 </r>
       <r>   39.1181    0.0000 </r>
       <r>   39.6411    0.0000 </r>
       <r>   39.7569    0.0000 </r>
       <r>   40.0420    0.0000 </r>
       <r>   40.1290    0.0000 </r>
       <r>   40.5814    0.0000 </r>
       <r>   41.0943    0.0000 </r>
       <r>   41.4633    0.0000 </r>
       <r>   41.4751    0.0000 </r>
       <r>   41.6082    0.0000 </r>
       <r>   41.7091    0.0000 </r>
       <r>   42.2710    0.0000 </r>
       <r>   42.3168    0.0000 </r>
       <r>   42.7784    0.0000 </r>
       <r>   43.2654    0.0000 </r>
       <r>   43.3117    0.0000 </r>
       <r>   43.6570    0.0000 </r>
       <r>   43.7510    0.0000 </r>
       <r>   44.0976    0.0000 </r>
       <r>   44.3832    0.0000 </r>
       <r>   44.8916    0.0000 </r>
       <r>   45.0647    0.0000 </r>
       <r>   45.4752    0.0000 </r>
       <r>   45.7480    0.0000 </r>
       <r>   45.9910    0.0000 </r>
       <r>   46.3665    0.0000 </r>
       <r>   47.0841    0.0000 </r>
       <r>   47.0971    0.0000 </r>
      </set>
      <set comment="kpoint 9">
       <r>   -5.3027    1.0000 </r>
       <r>   -5.1910    1.0000 </r>
       <r>   -5.1910    1.0000 </r>
       <r>   -3.4693    1.0000 </r>
       <r>   -1.5382    1.0000 </r>
       <r>   -1.3592    1.0000 </r>
       <r>   -1.3592    1.0000 </r>
       <r>    1.5245    1.0000 </r>
       <r>    1.9379    1.0000 </r>
       <r>    2.3638    1.0000 </r>
       <r>    2.3638    1.0000 </r>
       <r>    3.0345    1.0000 </r>
       <r>    3.3201    1.0000 </r>
       <r>    4.9196    0.0000 </r>
       <r>    5.6461    0.0000 </r>
       <r>    5.6461    0.0000 </r>
       <r>    6.9058    0.0000 </r>
       <r>    6.9058    0.0000 </r>
       <r>    7.5892    0.0000 </r>
       <r>    8.2546    0.0000 </r>
       <r>    8.2546    0.0000 </r>
       <r>    8.3495    0.0000 </r>
       <r>    8.8703    0.0000 </r>
       <r>    9.4040    0.0000 </r>
       <r>    9.4560    0.0000 </r>
       <r>   10.5299    0.0000 </r>
       <r>   10.5299    0.0000 </r>
       <r>   11.0483    0.0000 </r>
       <r>   12.4992    0.0000 </r>
       <r>   12.6097    0.0000 </r>
       <r>   12.6234    0.0000 </r>
       <r>   12.6234    0.0000 </r>
       <r>   13.7272    0.0000 </r>
       <r>   14.0516    0.0000 </r>
       <r>   14.0516    0.0000 </r>
       <r>   14.4095    0.0000 </r>
       <r>   14.6746    0.0000 </r>
       <r>   15.1719    0.0000 </r>
       <r>   15.1719    0.0000 </r>
       <r>   15.3382    0.0000 </r>
       <r>   16.0395    0.0000 </r>
       <r>   16.2805    0.0000 </r>
       <r>   16.2805    0.0000 </r>
       <r>   17.1377    0.0000 </r>
       <r>   18.3541    0.0000 </r>
       <r>   18.3541    0.0000 </r>
       <r>   18.6247    0.0000 </r>
       <r>   18.7839    0.0000 </r>
       <r>   19.0357    0.0000 </r>
       <r>   19.2247    0.0000 </r>
       <r>   19.2247    0.0000 </r>
       <r>   19.5921    0.0000 </r>
       <r>   20.5430    0.0000 </r>
       <r>   21.7454    0.0000 </r>
       <r>   21.7454    0.0000 </r>
       <r>   22.0790    0.0000 </r>
       <r>   22.4258    0.0000 </r>
       <r>   22.7178    0.0000 </r>
       <r>   22.7178    0.0000 </r>
       <r>   22.7499    0.0000 </r>
       <r>   23.9687    0.0000 </r>
       <r>   23.9994    0.0000 </r>
       <r>   23.9994    0.0000 </r>
       <r>   25.3007    0.0000 </r>
       <r>   25.7085    0.0000 </r>
       <r>   25.7816    0.0000 </r>
       <r>   25.9974    0.0000 </r>
       <r>   25.9974    0.0000 </r>
       <r>   26.9407    0.0000 </r>
       <r>   26.9407    0.0000 </r>
       <r>   27.2047    0.0000 </r>
       <r>   27.2220    0.0000 </r>
       <r>   27.5860    0.0000 </r>
       <r>   27.7453    0.0000 </r>
       <r>   27.7453    0.0000 </r>
       <r>   28.6586    0.0000 </r>
       <r>   28.9382    0.0000 </r>
       <r>   28.9382    0.0000 </r>
       <r>   29.2203    0.0000 </r>
       <r>   29.2588    0.0000 </r>
       <r>   29.8315    0.0000 </r>
       <r>   30.4085    0.0000 </r>
       <r>   30.4085    0.0000 </r>
       <r>   30.5649    0.0000 </r>
       <r>   30.8263    0.0000 </r>
       <r>   30.8263    0.0000 </r>
       <r>   30.9098    0.0000 </r>
       <r>   31.3505    0.0000 </r>
       <r>   32.2538    0.0000 </r>
       <r>   32.2538    0.0000 </r>
       <r>   32.3503    0.0000 </r>
       <r>   32.4089    0.0000 </r>
       <r>   33.1323    0.0000 </r>
       <r>   33.3670    0.0000 </r>
       <r>   33.3670    0.0000 </r>
       <r>   33.4753    0.0000 </r>
       <r>   33.8421    0.0000 </r>
       <r>   33.8421    0.0000 </r>
       <r>   33.8629    0.0000 </r>
       <r>   34.3037    0.0000 </r>
       <r>   34.8575    0.0000 </r>
       <r>   35.3964    0.0000 </r>
       <r>   35.3964    0.0000 </r>
       <r>   35.4988    0.0000 </r>
       <r>   36.1576    0.0000 </r>
       <r>   36.3038    0.0000 </r>
       <r>   36.3038    0.0000 </r>
       <r>   36.4629    0.0000 </r>
       <r>   37.0674    0.0000 </r>
       <r>   37.5216    0.0000 </r>
       <r>   37.5216    0.0000 </r>
       <r>   37.6244    0.0000 </r>
       <r>   37.7214    0.0000 </r>
       <r>   38.5935    0.0000 </r>
       <r>   38.5935    0.0000 </r>
       <r>   38.6673    0.0000 </r>
       <r>   39.3599    0.0000 </r>
       <r>   39.3830    0.0000 </r>
       <r>   39.3830    0.0000 </r>
       <r>   39.4012    0.0000 </r>
       <r>   39.8630    0.0000 </r>
       <r>   39.8630    0.0000 </r>
       <r>   40.1416    0.0000 </r>
       <r>   40.8855    0.0000 </r>
       <r>   41.0474    0.0000 </r>
       <r>   41.6085    0.0000 </r>
       <r>   41.6085    0.0000 </r>
       <r>   41.7737    0.0000 </r>
       <r>   42.2649    0.0000 </r>
       <r>   42.8936    0.0000 </r>
       <r>   43.3092    0.0000 </r>
       <r>   43.3628    0.0000 </r>
       <r>   43.3628    0.0000 </r>
       <r>   43.6321    0.0000 </r>
       <r>   44.2983    0.0000 </r>
       <r>   44.2983    0.0000 </r>
       <r>   44.5627    0.0000 </r>
       <r>   45.3462    0.0000 </r>
       <r>   45.3462    0.0000 </r>
       <r>   45.5810    0.0000 </r>
       <r>   45.7517    0.0000 </r>
       <r>   45.7733    0.0000 </r>
       <r>   45.7734    0.0000 </r>
       <r>   46.2953    0.0000 </r>
      </set>
      <set comment="kpoint 10">
       <r>   -5.0826    1.0000 </r>
       <r>   -5.0826    1.0000 </r>
       <r>   -5.0826    1.0000 </r>
       <r>   -3.7077    1.0000 </r>
       <r>   -1.8544    1.0000 </r>
       <r>   -1.8544    1.0000 </r>
       <r>   -1.8544    1.0000 </r>
       <r>    1.0139    1.0000 </r>
       <r>    3.1232    1.0000 </r>
       <r>    3.1232    1.0000 </r>
       <r>    3.3186    1.0000 </r>
       <r>    3.3186    1.0000 </r>
       <r>    3.3186    1.0000 </r>
       <r>    5.9713    0.0000 </r>
       <r>    5.9713    0.0000 </r>
       <r>    5.9713    0.0000 </r>
       <r>    6.2805    0.0000 </r>
       <r>    6.2805    0.0000 </r>
       <r>    6.2805    0.0000 </r>
       <r>    7.8462    0.0000 </r>
       <r>    7.8462    0.0000 </r>
       <r>    7.8462    0.0000 </r>
       <r>    9.0786    0.0000 </r>
       <r>    9.0786    0.0000 </r>
       <r>    9.9611    0.0000 </r>
       <r>    9.9611    0.0000 </r>
       <r>    9.9611    0.0000 </r>
       <r>   10.0746    0.0000 </r>
       <r>   12.4028    0.0000 </r>
       <r>   13.1375    0.0000 </r>
       <r>   13.1375    0.0000 </r>
       <r>   13.1375    0.0000 </r>
       <r>   15.1055    0.0000 </r>
       <r>   15.1055    0.0000 </r>
       <r>   15.1055    0.0000 </r>
       <r>   15.2752    0.0000 </r>
       <r>   15.2752    0.0000 </r>
       <r>   15.6538    0.0000 </r>
       <r>   15.6538    0.0000 </r>
       <r>   15.6538    0.0000 </r>
       <r>   16.4132    0.0000 </r>
       <r>   16.6419    0.0000 </r>
       <r>   16.6419    0.0000 </r>
       <r>   16.6419    0.0000 </r>
       <r>   16.6695    0.0000 </r>
       <r>   16.6695    0.0000 </r>
       <r>   16.6695    0.0000 </r>
       <r>   17.7661    0.0000 </r>
       <r>   17.7661    0.0000 </r>
       <r>   17.7661    0.0000 </r>
       <r>   18.2795    0.0000 </r>
       <r>   18.2795    0.0000 </r>
       <r>   19.5398    0.0000 </r>
       <r>   21.1446    0.0000 </r>
       <r>   21.1446    0.0000 </r>
       <r>   21.1446    0.0000 </r>
       <r>   24.5810    0.0000 </r>
       <r>   25.0954    0.0000 </r>
       <r>   25.0954    0.0000 </r>
       <r>   25.0954    0.0000 </r>
       <r>   25.4042    0.0000 </r>
       <r>   25.4042    0.0000 </r>
       <r>   25.4042    0.0000 </r>
       <r>   25.8867    0.0000 </r>
       <r>   26.1110    0.0000 </r>
       <r>   26.1110    0.0000 </r>
       <r>   26.2877    0.0000 </r>
       <r>   26.2877    0.0000 </r>
       <r>   26.2877    0.0000 </r>
       <r>   26.6744    0.0000 </r>
       <r>   26.6744    0.0000 </r>
       <r>   26.6744    0.0000 </r>
       <r>   26.8535    0.0000 </r>
       <r>   26.8535    0.0000 </r>
       <r>   26.8535    0.0000 </r>
       <r>   28.3475    0.0000 </r>
       <r>   28.3475    0.0000 </r>
       <r>   28.3475    0.0000 </r>
       <r>   30.1389    0.0000 </r>
       <r>   30.1389    0.0000 </r>
       <r>   30.2943    0.0000 </r>
       <r>   30.6550    0.0000 </r>
       <r>   30.6550    0.0000 </r>
       <r>   30.6550    0.0000 </r>
       <r>   31.5855    0.0000 </r>
       <r>   31.5855    0.0000 </r>
       <r>   31.5855    0.0000 </r>
       <r>   31.7430    0.0000 </r>
       <r>   31.7430    0.0000 </r>
       <r>   32.2334    0.0000 </r>
       <r>   32.2334    0.0000 </r>
       <r>   32.2334    0.0000 </r>
       <r>   32.7027    0.0000 </r>
       <r>   32.7027    0.0000 </r>
       <r>   32.7027    0.0000 </r>
       <r>   33.1745    0.0000 </r>
       <r>   33.1745    0.0000 </r>
       <r>   33.1745    0.0000 </r>
       <r>   33.9226    0.0000 </r>
       <r>   33.9226    0.0000 </r>
       <r>   34.1851    0.0000 </r>
       <r>   35.3577    0.0000 </r>
       <r>   36.7000    0.0000 </r>
       <r>   36.7000    0.0000 </r>
       <r>   36.7000    0.0000 </r>
       <r>   37.0403    0.0000 </r>
       <r>   37.0403    0.0000 </r>
       <r>   37.0403    0.0000 </r>
       <r>   37.1565    0.0000 </r>
       <r>   37.1565    0.0000 </r>
       <r>   37.1565    0.0000 </r>
       <r>   37.5981    0.0000 </r>
       <r>   37.5981    0.0000 </r>
       <r>   38.0420    0.0000 </r>
       <r>   38.0420    0.0000 </r>
       <r>   38.0420    0.0000 </r>
       <r>   38.2430    0.0000 </r>
       <r>   38.2430    0.0000 </r>
       <r>   38.2430    0.0000 </r>
       <r>   38.7092    0.0000 </r>
       <r>   39.4770    0.0000 </r>
       <r>   39.4770    0.0000 </r>
       <r>   39.4770    0.0000 </r>
       <r>   41.3375    0.0000 </r>
       <r>   41.3375    0.0000 </r>
       <r>   41.3822    0.0000 </r>
       <r>   41.7701    0.0000 </r>
       <r>   41.7701    0.0000 </r>
       <r>   41.7701    0.0000 </r>
       <r>   41.8558    0.0000 </r>
       <r>   41.9834    0.0000 </r>
       <r>   41.9834    0.0000 </r>
       <r>   41.9834    0.0000 </r>
       <r>   42.5288    0.0000 </r>
       <r>   42.5288    0.0000 </r>
       <r>   42.5288    0.0000 </r>
       <r>   45.3884    0.0000 </r>
       <r>   45.3884    0.0000 </r>
       <r>   45.9877    0.0000 </r>
       <r>   45.9878    0.0000 </r>
       <r>   45.9878    0.0000 </r>
       <r>   47.5728    0.0000 </r>
       <r>   47.5732    0.0000 </r>
       <r>   47.5750    0.0000 </r>
      </set>
     </set>
     <set comment="spin 2">
      <set comment="kpoint 1">
       <r>   -7.0236    1.0000 </r>
       <r>   -3.3356    1.0000 </r>
       <r>   -3.3356    1.0000 </r>
       <r>   -2.9777    1.0000 </r>
       <r>   -2.9777    1.0000 </r>
       <r>   -2.9777    1.0000 </r>
       <r>    1.5229    1.0000 </r>
       <r>    1.6940    1.0000 </r>
       <r>    1.6940    1.0000 </r>
       <r>    1.6940    1.0000 </r>
       <r>    2.7328    1.0000 </r>
       <r>    2.7328    1.0000 </r>
       <r>    2.7328    1.0000 </r>
       <r>    5.6992    0.0000 </r>
       <r>    5.6992    0.0000 </r>
       <r>    5.6992    0.0000 </r>
       <r>    5.9124    0.0000 </r>
       <r>    5.9124    0.0000 </r>
       <r>    6.0186    0.0000 </r>
       <r>    6.1342    0.0000 </r>
       <r>    6.1342    0.0000 </r>
       <r>    6.1342    0.0000 </r>
       <r>    8.9851    0.0000 </r>
       <r>    8.9851    0.0000 </r>
       <r>    8.9851    0.0000 </r>
       <r>   10.6054    0.0000 </r>
[...]
        <r>  0.0027  0.0001  0.0002  0.0002  0.0000  0.0000  0.0000  0.0000  0.0000 </r>
       </set>
       <set comment="band 117">
        <r>  0.0000  0.0013  0.0003  0.0016  0.0000  0.0000  0.0000  0.0000  0.0000 </r>
        <r>  0.0000  0.0066  0.0000  0.0128  0.0000  0.0000  0.0000  0.0000  0.0000 </r>
        <r>  0.0000  0.0005  0.0034  0.0016  0.0000  0.0000  0.0000  0.0000  0.0000 </r>
        <r>  0.0000  0.0000  0.0066  0.0026  0.0000  0.0000  0.0000  0.0000  0.0000 </r>
        <r>  0.0000  0.0013  0.0034  0.0013  0.0000  0.0000  0.0000  0.0000  0.0000 </r>
        <r>  0.0000  0.0026  0.0128  0.0000  0.0000  0.0000  0.0000  0.0000  0.0000 </r>
        <r>  0.0000  0.0005  0.0003  0.0013  0.0000  0.0000  0.0000  0.0000  0.0000 </r>
       </set>
       <set comment="band 118">
        <r>  0.0000  0.0019  0.0037  0.0004  0.0000  0.0000  0.0000  0.0000  0.0000 </r>
        <r>  0.0000  0.0137  0.0000  0.0077  0.0000  0.0000  0.0000  0.0000  0.0000 </r>
        <r>  0.0000  0.0008  0.0004  0.0004  0.0000  0.0000  0.0000  0.0000  0.0000 </r>
        <r>  0.0000  0.0000  0.0137  0.0006  0.0000  0.0000  0.0000  0.0000  0.0000 </r>
        <r>  0.0000  0.0019  0.0004  0.0012  0.0000  0.0000  0.0000  0.0000  0.0000 </r>
        <r>  0.0000  0.0006  0.0077  0.0000  0.0000  0.0000  0.0000  0.0000  0.0000 </r>
        <r>  0.0000  0.0008  0.0037  0.0012  0.0000  0.0000  0.0000  0.0000  0.0000 </r>
       </set>
       <set comment="band 119">
        <r>  0.0000  0.0010  0.0002  0.0022  0.0000  0.0000  0.0000  0.0000  0.0000 </r>
        <r>  0.0000  0.0017  0.0000  0.0015  0.0000  0.0000  0.0000  0.0000  0.0000 </r>
        <r>  0.0000  0.0029  0.0004  0.0022  0.0000  0.0000  0.0000  0.0000  0.0000 </r>
        <r>  0.0000  0.0000  0.0017  0.0188  0.0000  0.0000  0.0000  0.0000  0.0000 </r>
        <r>  0.0000  0.0010  0.0004  0.0017  0.0000  0.0000  0.0000  0.0000  0.0000 </r>
        <r>  0.0000  0.0188  0.0015  0.0000  0.0000  0.0000  0.0000  0.0000  0.0000 </r>
        <r>  0.0000  0.0029  0.0002  0.0017  0.0000  0.0000  0.0000  0.0000  0.0000 </r>
       </set>
       <set comment="band 120">
        <r>  0.0165  0.0000  0.0000  0.0000  0.0000  0.0000  0.0000  0.0000  0.0000 </r>
        <r>  0.0000  0.0000  0.0001  0.0000  0.0000  0.0000  0.0000  0.0000  0.0000 </r>
        <r>  0.0165  0.0000  0.0000  0.0000  0.0000  0.0000  0.0000  0.0000  0.0000 </r>
        <r>  0.0000  0.0001  0.0000  0.0000  0.0000  0.0000  0.0000  0.0000  0.0000 </r>
        <r>  0.0165  0.0000  0.0000  0.0000  0.0000  0.0000  0.0000  0.0000  0.0000 </r>
        <r>  0.0000  0.0000  0.0000  0.0001  0.0000  0.0000  0.0000  0.0000  0.0000 </r>
        <r>  0.0165  0.0000  0.0000  0.0000  0.0000  0.0000  0.0000  0.0000  0.0000 </r>
       </set>
       <set comment="band 121">
        <r>  0.0246  0.0024  0.0026  0.0013  0.0000  0.0000  0.0000  0.0000  0.0000 </r>
        <r>  0.0008  0.0095  0.0000  0.0012  0.0000  0.0000  0.0000  0.0000  0.0000 </r>
        <r>  0.0049  0.0009  0.0006  0.0003  0.0000  0.0000  0.0000  0.0000  0.0000 </r>
        <r>  0.0006  0.0000  0.0095  0.0014  0.0000  0.0000  0.0000  0.0000  0.0000 </r>
        <r>  0.0075  0.0014  0.0007  0.0002  0.0000  0.0000  0.0000  0.0000  0.0000 </r>
        <r>  0.0050  0.0014  0.0012  0.0000  0.0000  0.0000  0.0000  0.0000  0.0000 </r>
        <r>  0.0149  0.0014  0.0021  0.0006  0.0000  0.0000  0.0000  0.0000  0.0000 </r>
       </set>
       <set comment="band 122">
        <r>  0.0116  0.0012  0.0004  0.0016  0.0000  0.0000  0.0000  0.0000  0.0000 </r>
        <r>  0.0053  0.0018  0.0000  0.0003  0.0000  0.0000  0.0000  0.0000  0.0000 </r>
        <r>  0.0220  0.0024  0.0011  0.0022  0.0000  0.0000  0.0000  0.0000  0.0000 </r>
        <r>  0.0002  0.0000  0.0018  0.0100  0.0000  0.0000  0.0000  0.0000  0.0000 </r>
        <r>  0.0053  0.0009  0.0002  0.0008  0.0000  0.0000  0.0000  0.0000  0.0000 </r>
        <r>  0.0010  0.0100  0.0003  0.0000  0.0000  0.0000  0.0000  0.0000  0.0000 </r>
        <r>  0.0130  0.0019  0.0005  0.0012  0.0000  0.0000  0.0000  0.0000  0.0000 </r>
       </set>
       <set comment="band 123">
        <r>  0.0027  0.0000  0.0006  0.0006  0.0000  0.0000  0.0000  0.0000  0.0000 </r>
        <r>  0.0004  0.0008  0.0000  0.0107  0.0000  0.0000  0.0000  0.0000  0.0000 </r>
        <r>  0.0121  0.0003  0.0020  0.0011  0.0000  0.0000  0.0000  0.0000  0.0000 </r>
        <r>  0.0056  0.0000  0.0008  0.0007  0.0000  0.0000  0.0000  0.0000  0.0000 </r>
        <r>  0.0262  0.0013  0.0027  0.0027  0.0000  0.0000  0.0000  0.0000  0.0000 </r>
        <r>  0.0004  0.0007  0.0107  0.0000  0.0000  0.0000  0.0000  0.0000  0.0000 </r>
        <r>  0.0110  0.0003  0.0010  0.0019  0.0000  0.0000  0.0000  0.0000  0.0000 </r>
       </set>
       <set comment="band 124">
        <r>  0.0000  0.0031  0.0074  0.0017  0.0000  0.0000  0.0000  0.0000  0.0000 </r>
        <r>  0.0000  0.0000  0.0072  0.0000  0.0000  0.0000  0.0000  0.0000  0.0000 </r>
        <r>  0.0000  0.0031  0.0074  0.0017  0.0000  0.0000  0.0000  0.0000  0.0000 </r>
        <r>  0.0000  0.0030  0.0000  0.0000  0.0000  0.0000  0.0000  0.0000  0.0000 </r>
        <r>  0.0000  0.0031  0.0074  0.0017  0.0000  0.0000  0.0000  0.0000  0.0000 </r>
        <r>  0.0000  0.0000  0.0000  0.0017  0.0000  0.0000  0.0000  0.0000  0.0000 </r>
        <r>  0.0000  0.0031  0.0074  0.0017  0.0000  0.0000  0.0000  0.0000  0.0000 </r>
       </set>
       <set comment="band 125">
        <r>  0.0000  0.0050  0.0007  0.0064  0.0000  0.0000  0.0000  0.0000  0.0000 </r>
        <r>  0.0000  0.0000  0.0007  0.0000  0.0000  0.0000  0.0000  0.0000  0.0000 </r>
        <r>  0.0000  0.0050  0.0007  0.0064  0.0000  0.0000  0.0000  0.0000  0.0000 </r>
        <r>  0.0000  0.0049  0.0000  0.0000  0.0000  0.0000  0.0000  0.0000  0.0000 </r>
        <r>  0.0000  0.0050  0.0007  0.0064  0.0000  0.0000  0.0000  0.0000  0.0000 </r>
        <r>  0.0000  0.0000  0.0000  0.0063  0.0000  0.0000  0.0000  0.0000  0.0000 </r>
        <r>  0.0000  0.0050  0.0007  0.0064  0.0000  0.0000  0.0000  0.0000  0.0000 </r>
       </set>
       <set comment="band 126">
        <r>  0.0000  0.0000  0.0000  0.0000  0.0000  0.0000  0.0000  0.0000  0.0000 </r>
        <r>  0.0000  0.0000  0.0000  0.0000  0.0000  0.0000  0.0000  0.0000  0.0000 </r>
        <r>  0.0000  0.0000  0.0000  0.0000  0.0000  0.0000  0.0000  0.0000  0.0000 </r>
        <r>  0.0000  0.0000  0.0000  0.0000  0.0000  0.0000  0.0000  0.0000  0.0000 </r>
        <r>  0.0000  0.0000  0.0000  0.0000  0.0000  0.0000  0.0000  0.0000  0.0000 </r>
        <r>  0.0000  0.0000  0.0000  0.0000  0.0000  0.0000  0.0000  0.0000  0.0000 </r>
        <r>  0.0000  0.0000  0.0000  0.0000  0.0000  0.0000  0.0000  0.0000  0.0000 </r>
       </set>
       <set comment="band 127">
        <r>  0.0010  0.0001  0.0005  0.0031  0.0000  0.0000  0.0000  0.0000  0.0000 </r>
        <r>  0.0045  0.0040  0.0000  0.0006  0.0000  0.0000  0.0000  0.0000  0.0000 </r>
        <r>  0.0002  0.0009  0.0007  0.0044  0.0000  0.0000  0.0000  0.0000  0.0000 </r>
        <r>  0.0038  0.0000  0.0040  0.0007  0.0000  0.0000  0.0000  0.0000  0.0000 </r>
        <r>  0.0003  0.0012  0.0006  0.0039  0.0000  0.0000  0.0000  0.0000  0.0000 </r>
        <r>  0.0280  0.0007  0.0006  0.0000  0.0000  0.0000  0.0000  0.0000  0.0000 </r>
        <r>  0.0006  0.0003  0.0011  0.0034  0.0000  0.0000  0.0000  0.0000  0.0000 </r>
       </set>
       <set comment="band 128">
        <r>  0.0004  0.0000  0.0040  0.0012  0.0000  0.0000  0.0000  0.0000  0.0000 </r>
        <r>  0.0300  0.0008  0.0000  0.0001  0.0000  0.0000  0.0000  0.0000  0.0000 </r>
        <r>  0.0008  0.0001  0.0034  0.0006  0.0000  0.0000  0.0000  0.0000  0.0000 </r>
        <r>  0.0008  0.0000  0.0008  0.0043  0.0000  0.0000  0.0000  0.0000  0.0000 </r>
        <r>  0.0002  0.0004  0.0044  0.0011  0.0000  0.0000  0.0000  0.0000  0.0000 </r>
        <r>  0.0056  0.0043  0.0001  0.0000  0.0000  0.0000  0.0000  0.0000  0.0000 </r>
        <r>  0.0005  0.0005  0.0038  0.0005  0.0000  0.0000  0.0000  0.0000  0.0000 </r>
       </set>
       <set comment="band 129">
        <r>  0.0001  0.0049  0.0006  0.0008  0.0000  0.0000  0.0000  0.0000  0.0000 </r>
        <r>  0.0019  0.0004  0.0000  0.0046  0.0000  0.0000  0.0000  0.0000  0.0000 </r>
        <r>  0.0005  0.0041  0.0009  0.0001  0.0000  0.0000  0.0000  0.0000  0.0000 </r>
        <r>  0.0318  0.0000  0.0004  0.0003  0.0000  0.0000  0.0000  0.0000  0.0000 </r>
        <r>  0.0010  0.0034  0.0000  0.0000  0.0000  0.0000  0.0000  0.0000  0.0000 </r>
        <r>  0.0027  0.0003  0.0046  0.0000  0.0000  0.0000  0.0000  0.0000  0.0000 </r>
        <r>  0.0004  0.0042  0.0001  0.0011  0.0000  0.0000  0.0000  0.0000  0.0000 </r>
       </set>
       <set comment="band 130">
        <r>  0.0074  0.0017  0.0017  0.0017  0.0000  0.0000  0.0000  0.0000  0.0000 </r>
        <r>  0.0000  0.0000  0.0033  0.0000  0.0000  0.0000  0.0000  0.0000  0.0000 </r>
        <r>  0.0074  0.0017  0.0017  0.0017  0.0000  0.0000  0.0000  0.0000  0.0000 </r>
        <r>  0.0000  0.0033  0.0000  0.0000  0.0000  0.0000  0.0000  0.0000  0.0000 </r>
        <r>  0.0074  0.0017  0.0017  0.0017  0.0000  0.0000  0.0000  0.0000  0.0000 </r>
        <r>  0.0000  0.0000  0.0000  0.0033  0.0000  0.0000  0.0000  0.0000  0.0000 </r>
        <r>  0.0074  0.0017  0.0017  0.0017  0.0000  0.0000  0.0000  0.0000  0.0000 </r>
       </set>
       <set comment="band 131">
        <r>  0.0000  0.0004  0.0007  0.0019  0.0000  0.0000  0.0000  0.0000  0.0000 </r>
        <r>  0.0000  0.0000  0.0000  0.0001  0.0000  0.0000  0.0000  0.0000  0.0000 </r>
        <r>  0.0000  0.0013  0.0002  0.0019  0.0000  0.0000  0.0000  0.0000  0.0000 </r>
        <r>  0.0000  0.0000  0.0000  0.0001  0.0000  0.0000  0.0000  0.0000  0.0000 </r>
        <r>  0.0000  0.0004  0.0002  0.0005  0.0000  0.0000  0.0000  0.0000  0.0000 </r>
        <r>  0.0000  0.0001  0.0001  0.0000  0.0000  0.0000  0.0000  0.0000  0.0000 </r>
        <r>  0.0000  0.0013  0.0007  0.0005  0.0000  0.0000  0.0000  0.0000  0.0000 </r>
       </set>
       <set comment="band 132">
        <r>  0.0000  0.0010  0.0003  0.0006  0.0000  0.0000  0.0000  0.0000  0.0000 </r>
        <r>  0.0000  0.0001  0.0000  0.0001  0.0000  0.0000  0.0000  0.0000  0.0000 </r>
        <r>  0.0000  0.0004  0.0017  0.0006  0.0000  0.0000  0.0000  0.0000  0.0000 </r>
        <r>  0.0000  0.0000  0.0001  0.0000  0.0000  0.0000  0.0000  0.0000  0.0000 </r>
        <r>  0.0000  0.0010  0.0017  0.0011  0.0000  0.0000  0.0000  0.0000  0.0000 </r>
        <r>  0.0000  0.0000  0.0001  0.0000  0.0000  0.0000  0.0000  0.0000  0.0000 </r>
        <r>  0.0000  0.0004  0.0003  0.0011  0.0000  0.0000  0.0000  0.0000  0.0000 </r>
       </set>
       <set comment="band 133">
        <r>  0.0000  0.0011  0.0015  0.0000  0.0000  0.0000  0.0000  0.0000  0.0000 </r>
        <r>  0.0000  0.0001  0.0000  0.0000  0.0000  0.0000  0.0000  0.0000  0.0000 </r>
        <r>  0.0000  0.0009  0.0007  0.0000  0.0000  0.0000  0.0000  0.0000  0.0000 </r>
        <r>  0.0000  0.0000  0.0001  0.0000  0.0000  0.0000  0.0000  0.0000  0.0000 </r>
        <r>  0.0000  0.0011  0.0007  0.0009  0.0000  0.0000  0.0000  0.0000  0.0000 </r>
        <r>  0.0000  0.0000  0.0000  0.0000  0.0000  0.0000  0.0000  0.0000  0.0000 </r>
        <r>  0.0000  0.0009  0.0015  0.0009  0.0000  0.0000  0.0000  0.0000  0.0000 </r>
       </set>
       <set comment="band 134">
        <r>  0.0149  0.0000  0.0002  0.0002  0.0000  0.0000  0.0000  0.0000  0.0000 </r>
        <r>  0.0091  0.0000  0.0000  0.0000  0.0000  0.0000  0.0000  0.0000  0.0000 </r>
        <r>  0.0219  0.0001  0.0001  0.0001  0.0000  0.0000  0.0000  0.0000  0.0000 </r>
        <r>  0.0004  0.0000  0.0000  0.0000  0.0000  0.0000  0.0000  0.0000  0.0000 </r>
        <r>  0.0067  0.0001  0.0002  0.0001  0.0000  0.0000  0.0000  0.0000  0.0000 </r>
        <r>  0.0021  0.0000  0.0000  0.0000  0.0000  0.0000  0.0000  0.0000  0.0000 </r>
        <r>  0.0112  0.0002  0.0002  0.0001  0.0000  0.0000  0.0000  0.0000  0.0000 </r>
       </set>
       <set comment="band 135">
        <r>  0.0230  0.0000  0.0001  0.0001  0.0000  0.0000  0.0000  0.0000  0.0000 </r>
        <r>  0.0017  0.0000  0.0000  0.0000  0.0000  0.0000  0.0000  0.0000  0.0000 </r>
        <r>  0.0072  0.0001  0.0001  0.0003  0.0000  0.0000  0.0000  0.0000  0.0000 </r>
        <r>  0.0010  0.0000  0.0000  0.0000  0.0000  0.0000  0.0000  0.0000  0.0000 </r>
        <r>  0.0070  0.0002  0.0001  0.0002  0.0000  0.0000  0.0000  0.0000  0.0000 </r>
        <r>  0.0089  0.0000  0.0000  0.0000  0.0000  0.0000  0.0000  0.0000  0.0000 </r>
        <r>  0.0175  0.0000  0.0002  0.0001  0.0000  0.0000  0.0000  0.0000  0.0000 </r>
       </set>
       <set comment="band 136">
        <r>  0.0031  0.0003  0.0001  0.0001  0.0000  0.0000  0.0000  0.0000  0.0000 </r>
        <r>  0.0008  0.0000  0.0000  0.0000  0.0000  0.0000  0.0000  0.0000  0.0000 </r>
        <r>  0.0120  0.0002  0.0002  0.0000  0.0000  0.0000  0.0000  0.0000  0.0000 </r>
        <r>  0.0101  0.0000  0.0000  0.0000  0.0000  0.0000  0.0000  0.0000  0.0000 </r>
        <r>  0.0273  0.0001  0.0001  0.0001  0.0000  0.0000  0.0000  0.0000  0.0000 </r>
        <r>  0.0006  0.0000  0.0000  0.0000  0.0000  0.0000  0.0000  0.0000  0.0000 </r>
        <r>  0.0124  0.0002  0.0000  0.0002  0.0000  0.0000  0.0000  0.0000  0.0000 </r>
       </set>
       <set comment="band 137">
        <r>  0.0000  0.0005  0.0004  0.0003  0.0000  0.0000  0.0000  0.0000  0.0000 </r>
        <r>  0.0000  0.0000  0.0003  0.0000  0.0000  0.0000  0.0000  0.0000  0.0000 </r>
        <r>  0.0000  0.0005  0.0004  0.0003  0.0000  0.0000  0.0000  0.0000  0.0000 </r>
        <r>  0.0000  0.0004  0.0000  0.0000  0.0000  0.0000  0.0000  0.0000  0.0000 </r>
        <r>  0.0000  0.0005  0.0004  0.0003  0.0000  0.0000  0.0000  0.0000  0.0000 </r>
        <r>  0.0000  0.0000  0.0000  0.0003  0.0000  0.0000  0.0000  0.0000  0.0000 </r>
        <r>  0.0000  0.0005  0.0004  0.0003  0.0000  0.0000  0.0000  0.0000  0.0000 </r>
       </set>
       <set comment="band 138">
        <r>  0.0000  0.0003  0.0004  0.0005  0.0000  0.0000  0.0000  0.0000  0.0000 </r>
        <r>  0.0000  0.0000  0.0004  0.0000  0.0000  0.0000  0.0000  0.0000  0.0000 </r>
        <r>  0.0000  0.0003  0.0004  0.0005  0.0000  0.0000  0.0000  0.0000  0.0000 </r>
        <r>  0.0000  0.0003  0.0000  0.0000  0.0000  0.0000  0.0000  0.0000  0.0000 </r>
        <r>  0.0000  0.0003  0.0004  0.0005  0.0000  0.0000  0.0000  0.0000  0.0000 </r>
        <r>  0.0000  0.0000  0.0000  0.0004  0.0000  0.0000  0.0000  0.0000  0.0000 </r>
        <r>  0.0000  0.0003  0.0004  0.0005  0.0000  0.0000  0.0000  0.0000  0.0000 </r>
       </set>
       <set comment="band 139">
        <r>  0.0000  0.0001  0.0000  0.0001  0.0000  0.0000  0.0000  0.0000  0.0000 </r>
        <r>  0.0000  0.0000  0.0000  0.0000  0.0000  0.0000  0.0000  0.0000  0.0000 </r>
        <r>  0.0000  0.0000  0.0001  0.0001  0.0000  0.0000  0.0000  0.0000  0.0000 </r>
        <r>  0.0000  0.0000  0.0000  0.0000  0.0000  0.0000  0.0000  0.0000  0.0000 </r>
        <r>  0.0000  0.0001  0.0001  0.0000  0.0000  0.0000  0.0000  0.0000  0.0000 </r>
        <r>  0.0000  0.0000  0.0000  0.0000  0.0000  0.0000  0.0000  0.0000  0.0000 </r>
        <r>  0.0000  0.0000  0.0000  0.0000  0.0000  0.0000  0.0000  0.0000  0.0000 </r>
       </set>
       <set comment="band 140">
        <r>  0.0000  0.0001  0.0001  0.0000  0.0000  0.0000  0.0000  0.0000  0.0000 </r>
        <r>  0.0000  0.0000  0.0000  0.0000  0.0000  0.0000  0.0000  0.0000  0.0000 </r>
        <r>  0.0000  0.0000  0.0000  0.0000  0.0000  0.0000  0.0000  0.0000  0.0000 </r>
        <r>  0.0000  0.0000  0.0000  0.0000  0.0000  0.0000  0.0000  0.0000  0.0000 </r>
        <r>  0.0000  0.0001  0.0000  0.0001  0.0000  0.0000  0.0000  0.0000  0.0000 </r>
        <r>  0.0000  0.0000  0.0000  0.0000  0.0000  0.0000  0.0000  0.0000  0.0000 </r>
        <r>  0.0000  0.0000  0.0001  0.0001  0.0000  0.0000  0.0000  0.0000  0.0000 </r>
       </set>
       <set comment="band 141">
        <r>  0.0000  0.0000  0.0000  0.0001  0.0000  0.0000  0.0000  0.0000  0.0000 </r>
        <r>  0.0000  0.0000  0.0000  0.0000  0.0000  0.0000  0.0000  0.0000  0.0000 </r>
        <r>  0.0000  0.0001  0.0000  0.0001  0.0000  0.0000  0.0000  0.0000  0.0000 </r>
        <r>  0.0000  0.0000  0.0000  0.0000  0.0000  0.0000  0.0000  0.0000  0.0000 </r>
        <r>  0.0000  0.0000  0.0000  0.0001  0.0000  0.0000  0.0000  0.0000  0.0000 </r>
        <r>  0.0000  0.0000  0.0000  0.0000  0.0000  0.0000  0.0000  0.0000  0.0000 </r>
        <r>  0.0000  0.0001  0.0000  0.0001  0.0000  0.0000  0.0000  0.0000  0.0000 </r>
       </set>
       <set comment="band 142">
        <r>  0.0078  0.0003  0.0002  0.0008  0.0000  0.0000  0.0000  0.0000  0.0000 </r>
        <r>  0.0001  0.0018  0.0000  0.0003  0.0000  0.0000  0.0000  0.0000  0.0000 </r>
        <r>  0.0016  0.0000  0.0001  0.0005  0.0000  0.0000  0.0000  0.0000  0.0000 </r>
        <r>  0.0001  0.0000  0.0018  0.0003  0.0000  0.0000  0.0000  0.0000  0.0000 </r>
        <r>  0.0020  0.0000  0.0001  0.0006  0.0000  0.0000  0.0000  0.0000  0.0000 </r>
        <r>  0.0005  0.0003  0.0003  0.0000  0.0000  0.0000  0.0000  0.0000  0.0000 </r>
        <r>  0.0055  0.0002  0.0001  0.0008  0.0000  0.0000  0.0000  0.0000  0.0000 </r>
       </set>
       <set comment="band 143">
        <r>  0.0041  0.0001  0.0007  0.0001  0.0000  0.0000  0.0000  0.0000  0.0000 </r>
        <r>  0.0006  0.0004  0.0000  0.0001  0.0000  0.0000  0.0000  0.0000  0.0000 </r>
        <r>  0.0066  0.0001  0.0009  0.0002  0.0000  0.0000  0.0000  0.0000  0.0000 </r>
        <r>  0.0000  0.0000  0.0003  0.0020  0.0000  0.0000  0.0000  0.0000  0.0000 </r>
        <r>  0.0017  0.0000  0.0006  0.0001  0.0000  0.0000  0.0000  0.0000  0.0000 </r>
        <r>  0.0001  0.0020  0.0001  0.0000  0.0000  0.0000  0.0000  0.0000  0.0000 </r>
        <r>  0.0044  0.0000  0.0007  0.0002  0.0000  0.0000  0.0000  0.0000  0.0000 </r>
       </set>
       <set comment="band 144">
        <r>  0.0002  0.0003  0.0000  0.0001  0.0000  0.0000  0.0000  0.0000  0.0000 </r>
        <r>  0.0000  0.0002  0.0002  0.0020  0.0000  0.0000  0.0000  0.0000  0.0000 </r>
        <r>  0.0059  0.0010  0.0000  0.0004  0.0000  0.0000  0.0000  0.0000  0.0000 </r>
        <r>  0.0006  0.0001  0.0002  0.0001  0.0000  0.0000  0.0000  0.0000  0.0000 </r>
        <r>  0.0067  0.0007  0.0001  0.0001  0.0000  0.0000  0.0000  0.0000  0.0000 </r>
        <r>  0.0001  0.0001  0.0020  0.0001  0.0000  0.0000  0.0000  0.0000  0.0000 </r>
        <r>  0.0041  0.0010  0.0002  0.0000  0.0000  0.0000  0.0000  0.0000  0.0000 </r>
       </set>
      </set>
     </set>
    </set>
   </array>
  </projected>
 </calculation>
 <structure name="finalpos" >
  <crystal>
   <varray name="basis" >
    <v>       5.43784835       0.00000000       0.00000000 </v>
    <v>       0.00000000       5.43784835       0.00000000 </v>
    <v>       0.00000000       0.00000000       5.43784835 </v>
   </varray>
   <i name="volume">    160.79823434 </i>
   <varray name="rec_basis" >
    <v>       0.18389626       0.00000000       0.00000000 </v>
    <v>       0.00000000       0.18389626       0.00000000 </v>
    <v>       0.00000000       0.00000000       0.18389626 </v>
   </varray>
  </crystal>
  <varray name="positions" >
   <v>       0.24401317       0.75598683       0.24401317 </v>
   <v>       0.00000000       0.00000000       0.50000000 </v>
   <v>       0.24401317       0.24401317       0.75598683 </v>
   <v>       0.00000000       0.50000000       0.00000000 </v>
   <v>       0.75598683       0.75598683       0.75598683 </v>
   <v>       0.50000000       0.00000000       0.00000000 </v>
   <v>       0.75598683       0.24401317       0.24401317 </v>
  </varray>
 </structure>
</modeling>
