 vasp.6.3.1 04May22 (build May  6 2022 16:02:18) complex
 executed on             LinuxGNU date 2023.03.22  13:00:50
 running   80 mpi-ranks, with    1 threads/rank
 distrk:  each k-point on   80 cores,    1 groups
 distr:  one band on NCORE=  20 cores,    4 groups


--------------------------------------------------------------------------------------------------------


 INCAR:
   ALGO = Normal
   EDIFF = 1e-07
   ENAUG = 1360.0
   ENCUT = 680.0
   GGA = Ps
   ICHARG = 11
   ISMEAR = -5
   ISPIN = 1
   ISYM = 0
   LAECHG = False
   LASPH = True
   LCHARG = False
   LELF = False
   LMIXTAU = True
   LORBIT = 11
   LREAL = False
   LVTOT = False
   LWAVE = True
   NBANDS = 8
   NEDOS = 1100
   NELM = 200
   NPAR = 4
   NSW = 0
   PREC = Accurate
   SIGMA = 0.05

 POTCAR:    PAW_PBE Si 05Jan2001
 POTCAR:    PAW_PBE Si 05Jan2001
   VRHFIN =Si: s2p2
   LEXCH  = PE
   EATOM  =   103.0669 eV,    7.5752 Ry

   TITEL  = PAW_PBE Si 05Jan2001
   LULTRA =        F    use ultrasoft PP ?
   IUNSCR =        1    unscreen: 0-lin 1-nonlin 2-no
   RPACOR =    1.500    partial core radius
   POMASS =   28.085; ZVAL   =    4.000    mass and valenz
   RCORE  =    1.900    outmost cutoff radius
   RWIGS  =    2.480; RWIGS  =    1.312    wigner-seitz radius (au A)
   ENMAX  =  245.345; ENMIN  =  184.009 eV
   ICORE  =        2    local potential
   LCOR   =        T    correct aug charges
   LPAW   =        T    paw PP
   EAUG   =  322.069
   DEXC   =    0.000
   RMAX   =    1.950    core radius for proj-oper
   RAUG   =    1.300    factor for augmentation sphere
   RDEP   =    1.993    radius for radial grids
   RDEPT  =    1.837    core radius for aug-charge

   Atomic configuration
    6 entries
     n  l   j            E        occ.
     1  0  0.50     -1785.8828   2.0000
     2  0  0.50      -139.4969   2.0000
     2  1  1.50       -95.5546   6.0000
     3  0  0.50       -10.8127   2.0000
     3  1  0.50        -4.0811   2.0000
     3  2  1.50        -4.0817   0.0000
   Description
     l       E           TYP  RCUT    TYP  RCUT
     0    -10.8127223     23  1.900
     0     -7.6451159     23  1.900
     1     -4.0811372     23  1.900
     1      2.4879257     23  1.900
     2     -4.0817478      7  1.900
  local pseudopotential read in
  partial core-charges read in
  partial kinetic energy density read in
  atomic valenz-charges read in
  non local Contribution for L=           0  read in
    real space projection operators read in
  non local Contribution for L=           0  read in
    real space projection operators read in
  non local Contribution for L=           1  read in
    real space projection operators read in
  non local Contribution for L=           1  read in
    real space projection operators read in
    PAW grid and wavefunctions read in

   number of l-projection  operators is LMAX  =           4
   number of lm-projection operators is LMMAX =           8

 -----------------------------------------------------------------------------
|                                                                             |
|               ----> ADVICE to this user running VASP <----                  |
|                                                                             |
|     You enforced a specific xc type in the INCAR file but a different       |
|     type was found in the POTCAR file.                                      |
|     I HOPE YOU KNOW WHAT YOU ARE DOING!                                     |
|                                                                             |
 -----------------------------------------------------------------------------

  PAW_PBE Si 05Jan2001                  :
 energy of atom  1       EATOM= -103.0669
 kinetic energy error for atom=    0.0003 (will be added to EATOM!!)


 POSCAR: Si2
  positions in direct lattice
  velocities in cartesian coordinates
 exchange correlation table for  LEXCH =       14
   RHO(1)=    0.500       N(1)  =     2000
   RHO(2)=  100.500       N(2)  =     4000



--------------------------------------------------------------------------------------------------------


 ion  position               nearest neighbor table
   1  0.000  0.000  0.000-   2 2.35   2 2.35   2 2.35   2 2.35
   2  0.250  0.250  0.250-   1 2.35   1 2.35   1 2.35   1 2.35


IMPORTANT INFORMATION: All symmetrisations will be switched off!
NOSYMM: (Re-)initialisation of all symmetry stuff for point group C_1.


----------------------------------------------------------------------------------------

                                     Primitive cell

  volume of cell :      40.1601

  direct lattice vectors                    reciprocal lattice vectors
    -0.000000000  2.718034660  2.718034660    -0.183956447  0.183956447  0.183956447
     2.718034660 -0.000000000  2.718034660     0.183956447 -0.183956447  0.183956447
     2.718034660  2.718034660 -0.000000000     0.183956447  0.183956447 -0.183956447

  length of vectors
     3.843881479  3.843881479  3.843881479     0.318621913  0.318621913  0.318621913

  position of ions in fractional coordinates (direct lattice)
     0.000000000  0.000000000  0.000000000
     0.250000000  0.250000000  0.250000000

  ion indices of the primitive-cell ions
   primitive index   ion index
                 1           1
                 2           2

----------------------------------------------------------------------------------------



 KPOINTS: pymatgen with grid density = 4941 / numb

Automatic generation of k-mesh.
 Grid dimensions read from file:
 generate k-points for:   13   13   13

 Generating k-lattice:

  Cartesian coordinates                     Fractional coordinates (reciprocal lattice)
    -0.014150496  0.014150496  0.014150496     0.076923077  0.000000000 -0.000000000
     0.014150496 -0.014150496  0.014150496     0.000000000  0.076923077  0.000000000
     0.014150496  0.014150496 -0.014150496    -0.000000000 -0.000000000  0.076923077

  Length of vectors
     0.024509378  0.024509378  0.024509378

  Shift w.r.t. Gamma in fractional coordinates (k-lattice)
     0.000000000  0.000000000  0.000000000

 TETIRR: Found   6588 inequivalent tetrahedra from    13182

 Subroutine IBZKPT returns following result:
 ===========================================

 Found   1099 irreducible k-points:

 Following reciprocal coordinates:
            Coordinates               Weight
  0.000000  0.000000  0.000000      1.000000
  0.076923  0.000000  0.000000      2.000000
  0.000000  0.076923  0.000000      2.000000
  0.000000  0.000000  0.076923      2.000000
  0.076923  0.076923  0.076923      2.000000
  0.153846  0.000000  0.000000      2.000000
  0.000000  0.153846  0.000000      2.000000
  0.000000  0.000000  0.153846      2.000000
  0.153846  0.153846  0.153846      2.000000
  0.230769  0.000000  0.000000      2.000000
  0.000000  0.230769  0.000000      2.000000
  0.000000  0.000000  0.230769      2.000000
  0.230769  0.230769  0.230769      2.000000
  0.307692  0.000000  0.000000      2.000000
  0.000000  0.307692  0.000000      2.000000
  0.000000  0.000000  0.307692      2.000000
  0.307692  0.307692  0.307692      2.000000
  0.384615  0.000000  0.000000      2.000000
  0.000000  0.384615  0.000000      2.000000
  0.000000  0.000000  0.384615      2.000000
  0.384615  0.384615  0.384615      2.000000
  0.461538  0.000000  0.000000      2.000000
  0.000000  0.461538  0.000000      2.000000
  0.000000  0.000000  0.461538      2.000000
  0.461538  0.461538  0.461538      2.000000
  0.076923  0.076923  0.000000      2.000000
  0.000000  0.076923  0.076923      2.000000
  0.076923  0.000000  0.076923      2.000000
  0.153846  0.076923  0.000000      2.000000
  0.000000  0.153846  0.076923      2.000000
  0.076923  0.000000  0.153846      2.000000
  0.076923  0.076923 -0.076923      2.000000
  0.153846  0.076923  0.153846      2.000000
  0.076923  0.153846  0.000000      2.000000
  0.076923 -0.076923 -0.076923      2.000000
  0.153846  0.153846  0.076923      2.000000
  0.000000  0.076923  0.153846      2.000000
 -0.076923  0.076923 -0.076923      2.000000
  0.076923  0.153846  0.153846      2.000000
  0.153846  0.000000  0.076923      2.000000
  0.230769  0.076923  0.000000      2.000000
  0.000000  0.230769  0.076923      2.000000
  0.076923  0.000000  0.230769      2.000000
  0.076923  0.076923 -0.153846      2.000000
  0.230769  0.153846  0.230769      2.000000
  0.076923  0.230769  0.000000      2.000000
  0.153846 -0.076923 -0.076923      2.000000
  0.230769  0.230769  0.153846      2.000000
  0.000000  0.076923  0.230769      2.000000
 -0.076923  0.153846 -0.076923      2.000000
  0.153846  0.230769  0.230769      2.000000
  0.230769  0.000000  0.076923      2.000000
  0.307692  0.076923  0.000000      2.000000
  0.000000  0.307692  0.076923      2.000000
  0.076923  0.000000  0.307692      2.000000
  0.076923  0.076923 -0.230769      2.000000
  0.307692  0.230769  0.307692      2.000000
  0.076923  0.307692  0.000000      2.000000
  0.230769 -0.076923 -0.076923      2.000000
  0.307692  0.307692  0.230769      2.000000
  0.000000  0.076923  0.307692      2.000000
 -0.076923  0.230769 -0.076923      2.000000
  0.230769  0.307692  0.307692      2.000000
  0.307692  0.000000  0.076923      2.000000
  0.384615  0.076923  0.000000      2.000000
  0.000000  0.384615  0.076923      2.000000
  0.076923  0.000000  0.384615      2.000000
  0.076923  0.076923 -0.307692      2.000000
  0.384615  0.307692  0.384615      2.000000
  0.076923  0.384615  0.000000      2.000000
  0.307692 -0.076923 -0.076923      2.000000
  0.384615  0.384615  0.307692      2.000000
  0.000000  0.076923  0.384615      2.000000
 -0.076923  0.307692 -0.076923      2.000000
  0.307692  0.384615  0.384615      2.000000
  0.384615  0.000000  0.076923      2.000000
  0.461538  0.076923  0.000000      2.000000
  0.000000  0.461538  0.076923      2.000000
  0.076923  0.000000  0.461538      2.000000
  0.076923  0.076923 -0.384615      2.000000
  0.461538  0.384615  0.461538      2.000000
  0.076923  0.461538  0.000000      2.000000
  0.384615 -0.076923 -0.076923      2.000000
  0.461538  0.461538  0.384615      2.000000
  0.000000  0.076923  0.461538      2.000000
 -0.076923  0.384615 -0.076923      2.000000
  0.384615  0.461538  0.461538      2.000000
  0.461538  0.000000  0.076923      2.000000
 -0.461538  0.076923  0.000000      2.000000
  0.000000 -0.461538  0.076923      2.000000
  0.076923  0.000000 -0.461538      2.000000
  0.076923  0.076923 -0.461538      2.000000
 -0.461538  0.461538 -0.461538      2.000000
  0.076923 -0.461538  0.000000      2.000000
  0.461538 -0.076923 -0.076923      2.000000
 -0.461538 -0.461538  0.461538      2.000000
  0.000000  0.076923 -0.461538      2.000000
 -0.076923  0.461538 -0.076923      2.000000
  0.461538 -0.461538 -0.461538      2.000000
 -0.461538  0.000000  0.076923      2.000000
 -0.384615  0.076923  0.000000      2.000000
  0.000000 -0.384615  0.076923      2.000000
  0.076923  0.000000 -0.384615      2.000000
  0.076923  0.076923  0.461538      2.000000
 -0.384615 -0.461538 -0.384615      2.000000
  0.076923 -0.384615  0.000000      2.000000
 -0.461538 -0.076923 -0.076923      2.000000
 -0.384615 -0.384615 -0.461538      2.000000
  0.000000  0.076923 -0.384615      2.000000
 -0.076923 -0.461538 -0.076923      2.000000
 -0.461538 -0.384615 -0.384615      2.000000
 -0.384615  0.000000  0.076923      2.000000
 -0.307692  0.076923  0.000000      2.000000
  0.000000 -0.307692  0.076923      2.000000
  0.076923  0.000000 -0.307692      2.000000
  0.076923  0.076923  0.384615      2.000000
 -0.307692 -0.384615 -0.307692      2.000000
  0.076923 -0.307692  0.000000      2.000000
 -0.384615 -0.076923 -0.076923      2.000000
 -0.307692 -0.307692 -0.384615      2.000000
  0.000000  0.076923 -0.307692      2.000000
 -0.076923 -0.384615 -0.076923      2.000000
 -0.384615 -0.307692 -0.307692      2.000000
 -0.307692  0.000000  0.076923      2.000000
 -0.230769  0.076923  0.000000      2.000000
  0.000000 -0.230769  0.076923      2.000000
  0.076923  0.000000 -0.230769      2.000000
  0.076923  0.076923  0.307692      2.000000
 -0.230769 -0.307692 -0.230769      2.000000
  0.076923 -0.230769  0.000000      2.000000
 -0.307692 -0.076923 -0.076923      2.000000
 -0.230769 -0.230769 -0.307692      2.000000
  0.000000  0.076923 -0.230769      2.000000
 -0.076923 -0.307692 -0.076923      2.000000
 -0.307692 -0.230769 -0.230769      2.000000
 -0.230769  0.000000  0.076923      2.000000
 -0.153846  0.076923  0.000000      2.000000
  0.000000 -0.153846  0.076923      2.000000
  0.076923  0.000000 -0.153846      2.000000
  0.076923  0.076923  0.230769      2.000000
 -0.153846 -0.230769 -0.153846      2.000000
  0.076923 -0.153846  0.000000      2.000000
 -0.230769 -0.076923 -0.076923      2.000000
 -0.153846 -0.153846 -0.230769      2.000000
  0.000000  0.076923 -0.153846      2.000000
 -0.076923 -0.230769 -0.076923      2.000000
 -0.230769 -0.153846 -0.153846      2.000000
 -0.153846  0.000000  0.076923      2.000000
 -0.076923  0.076923  0.000000      2.000000
  0.000000 -0.076923  0.076923      2.000000
  0.076923  0.000000 -0.076923      2.000000
  0.076923  0.076923  0.153846      2.000000
 -0.076923 -0.153846 -0.076923      2.000000
 -0.153846 -0.076923 -0.076923      2.000000
  0.153846  0.153846  0.000000      2.000000
  0.000000  0.153846  0.153846      2.000000
  0.153846  0.000000  0.153846      2.000000
  0.230769  0.153846  0.000000      2.000000
  0.000000  0.230769  0.153846      2.000000
  0.153846  0.000000  0.230769      2.000000
  0.153846  0.153846 -0.076923      2.000000
  0.230769  0.076923  0.230769      2.000000
  0.153846  0.230769  0.000000      2.000000
  0.076923 -0.153846 -0.153846      2.000000
  0.230769  0.230769  0.076923      2.000000
  0.000000  0.153846  0.230769      2.000000
 -0.153846  0.076923 -0.153846      2.000000
  0.076923  0.230769  0.230769      2.000000
  0.230769  0.000000  0.153846      2.000000
  0.307692  0.153846  0.000000      2.000000
  0.000000  0.307692  0.153846      2.000000
  0.153846  0.000000  0.307692      2.000000
  0.153846  0.153846 -0.153846      2.000000
  0.307692  0.153846  0.307692      2.000000
  0.153846  0.307692  0.000000      2.000000
  0.153846 -0.153846 -0.153846      2.000000
  0.307692  0.307692  0.153846      2.000000
  0.000000  0.153846  0.307692      2.000000
 -0.153846  0.153846 -0.153846      2.000000
  0.153846  0.307692  0.307692      2.000000
  0.307692  0.000000  0.153846      2.000000
  0.384615  0.153846  0.000000      2.000000
  0.000000  0.384615  0.153846      2.000000
  0.153846  0.000000  0.384615      2.000000
  0.153846  0.153846 -0.230769      2.000000
  0.384615  0.230769  0.384615      2.000000
  0.153846  0.384615  0.000000      2.000000
  0.230769 -0.153846 -0.153846      2.000000
  0.384615  0.384615  0.230769      2.000000
  0.000000  0.153846  0.384615      2.000000
 -0.153846  0.230769 -0.153846      2.000000
  0.230769  0.384615  0.384615      2.000000
  0.384615  0.000000  0.153846      2.000000
  0.461538  0.153846  0.000000      2.000000
  0.000000  0.461538  0.153846      2.000000
  0.153846  0.000000  0.461538      2.000000
  0.153846  0.153846 -0.307692      2.000000
  0.461538  0.307692  0.461538      2.000000
  0.153846  0.461538  0.000000      2.000000
  0.307692 -0.153846 -0.153846      2.000000
  0.461538  0.461538  0.307692      2.000000
  0.000000  0.153846  0.461538      2.000000
 -0.153846  0.307692 -0.153846      2.000000
  0.307692  0.461538  0.461538      2.000000
  0.461538  0.000000  0.153846      2.000000
 -0.461538  0.153846  0.000000      2.000000
  0.000000 -0.461538  0.153846      2.000000
  0.153846  0.000000 -0.461538      2.000000
  0.153846  0.153846 -0.384615      2.000000
 -0.461538  0.384615 -0.461538      2.000000
  0.153846 -0.461538  0.000000      2.000000
  0.384615 -0.153846 -0.153846      2.000000
 -0.461538 -0.461538  0.384615      2.000000
  0.000000  0.153846 -0.461538      2.000000
 -0.153846  0.384615 -0.153846      2.000000
  0.384615 -0.461538 -0.461538      2.000000
 -0.461538  0.000000  0.153846      2.000000
 -0.384615  0.153846  0.000000      2.000000
  0.000000 -0.384615  0.153846      2.000000
  0.153846  0.000000 -0.384615      2.000000
  0.153846  0.153846 -0.461538      2.000000
 -0.384615  0.461538 -0.384615      2.000000
  0.153846 -0.384615  0.000000      2.000000
  0.461538 -0.153846 -0.153846      2.000000
 -0.384615 -0.384615  0.461538      2.000000
  0.000000  0.153846 -0.384615      2.000000
 -0.153846  0.461538 -0.153846      2.000000
  0.461538 -0.384615 -0.384615      2.000000
 -0.384615  0.000000  0.153846      2.000000
 -0.307692  0.153846  0.000000      2.000000
  0.000000 -0.307692  0.153846      2.000000
  0.153846  0.000000 -0.307692      2.000000
  0.153846  0.153846  0.461538      2.000000
 -0.307692 -0.461538 -0.307692      2.000000
  0.153846 -0.307692  0.000000      2.000000
 -0.461538 -0.153846 -0.153846      2.000000
 -0.307692 -0.307692 -0.461538      2.000000
  0.000000  0.153846 -0.307692      2.000000
 -0.153846 -0.461538 -0.153846      2.000000
 -0.461538 -0.307692 -0.307692      2.000000
 -0.307692  0.000000  0.153846      2.000000
 -0.230769  0.153846  0.000000      2.000000
  0.000000 -0.230769  0.153846      2.000000
  0.153846  0.000000 -0.230769      2.000000
  0.153846  0.153846  0.384615      2.000000
 -0.230769 -0.384615 -0.230769      2.000000
  0.153846 -0.230769  0.000000      2.000000
 -0.384615 -0.153846 -0.153846      2.000000
 -0.230769 -0.230769 -0.384615      2.000000
  0.000000  0.153846 -0.230769      2.000000
 -0.153846 -0.384615 -0.153846      2.000000
 -0.384615 -0.230769 -0.230769      2.000000
 -0.230769  0.000000  0.153846      2.000000
 -0.153846  0.153846  0.000000      2.000000
  0.000000 -0.153846  0.153846      2.000000
  0.153846  0.000000 -0.153846      2.000000
  0.153846  0.153846  0.307692      2.000000
 -0.153846 -0.307692 -0.153846      2.000000
 -0.307692 -0.153846 -0.153846      2.000000
  0.230769  0.230769  0.000000      2.000000
  0.000000  0.230769  0.230769      2.000000
  0.230769  0.000000  0.230769      2.000000
  0.307692  0.230769  0.000000      2.000000
  0.000000  0.307692  0.230769      2.000000
  0.230769  0.000000  0.307692      2.000000
  0.230769  0.230769 -0.076923      2.000000
  0.307692  0.076923  0.307692      2.000000
  0.230769  0.307692  0.000000      2.000000
  0.076923 -0.230769 -0.230769      2.000000
  0.307692  0.307692  0.076923      2.000000
  0.000000  0.230769  0.307692      2.000000
 -0.230769  0.076923 -0.230769      2.000000
  0.076923  0.307692  0.307692      2.000000
  0.307692  0.000000  0.230769      2.000000
  0.384615  0.230769  0.000000      2.000000
  0.000000  0.384615  0.230769      2.000000
  0.230769  0.000000  0.384615      2.000000
  0.230769  0.230769 -0.153846      2.000000
  0.384615  0.153846  0.384615      2.000000
  0.230769  0.384615  0.000000      2.000000
  0.153846 -0.230769 -0.230769      2.000000
  0.384615  0.384615  0.153846      2.000000
  0.000000  0.230769  0.384615      2.000000
 -0.230769  0.153846 -0.230769      2.000000
  0.153846  0.384615  0.384615      2.000000
  0.384615  0.000000  0.230769      2.000000
  0.461538  0.230769  0.000000      2.000000
  0.000000  0.461538  0.230769      2.000000
  0.230769  0.000000  0.461538      2.000000
  0.230769  0.230769 -0.230769      2.000000
  0.461538  0.230769  0.461538      2.000000
  0.230769  0.461538  0.000000      2.000000
  0.230769 -0.230769 -0.230769      2.000000
  0.461538  0.461538  0.230769      2.000000
  0.000000  0.230769  0.461538      2.000000
 -0.230769  0.230769 -0.230769      2.000000
  0.230769  0.461538  0.461538      2.000000
  0.461538  0.000000  0.230769      2.000000
 -0.461538  0.230769  0.000000      2.000000
  0.000000 -0.461538  0.230769      2.000000
  0.230769  0.000000 -0.461538      2.000000
  0.230769  0.230769 -0.307692      2.000000
 -0.461538  0.307692 -0.461538      2.000000
  0.230769 -0.461538  0.000000      2.000000
  0.307692 -0.230769 -0.230769      2.000000
 -0.461538 -0.461538  0.307692      2.000000
  0.000000  0.230769 -0.461538      2.000000
 -0.230769  0.307692 -0.230769      2.000000
  0.307692 -0.461538 -0.461538      2.000000
 -0.461538  0.000000  0.230769      2.000000
 -0.384615  0.230769  0.000000      2.000000
  0.000000 -0.384615  0.230769      2.000000
  0.230769  0.000000 -0.384615      2.000000
  0.230769  0.230769 -0.384615      2.000000
 -0.384615  0.384615 -0.384615      2.000000
  0.230769 -0.384615  0.000000      2.000000
  0.384615 -0.230769 -0.230769      2.000000
 -0.384615 -0.384615  0.384615      2.000000
  0.000000  0.230769 -0.384615      2.000000
 -0.230769  0.384615 -0.230769      2.000000
  0.384615 -0.384615 -0.384615      2.000000
 -0.384615  0.000000  0.230769      2.000000
 -0.307692  0.230769  0.000000      2.000000
  0.000000 -0.307692  0.230769      2.000000
  0.230769  0.000000 -0.307692      2.000000
  0.230769  0.230769 -0.461538      2.000000
 -0.307692  0.461538 -0.307692      2.000000
  0.230769 -0.307692  0.000000      2.000000
  0.461538 -0.230769 -0.230769      2.000000
 -0.307692 -0.307692  0.461538      2.000000
  0.000000  0.230769 -0.307692      2.000000
 -0.230769  0.461538 -0.230769      2.000000
  0.461538 -0.307692 -0.307692      2.000000
 -0.307692  0.000000  0.230769      2.000000
 -0.230769  0.230769  0.000000      2.000000
  0.000000 -0.230769  0.230769      2.000000
  0.230769  0.000000 -0.230769      2.000000
  0.230769  0.230769  0.461538      2.000000
 -0.230769 -0.461538 -0.230769      2.000000
 -0.461538 -0.230769 -0.230769      2.000000
  0.307692  0.307692  0.000000      2.000000
  0.000000  0.307692  0.307692      2.000000
  0.307692  0.000000  0.307692      2.000000
  0.384615  0.307692  0.000000      2.000000
  0.000000  0.384615  0.307692      2.000000
  0.307692  0.000000  0.384615      2.000000
  0.307692  0.307692 -0.076923      2.000000
  0.384615  0.076923  0.384615      2.000000
  0.307692  0.384615  0.000000      2.000000
  0.076923 -0.307692 -0.307692      2.000000
  0.384615  0.384615  0.076923      2.000000
  0.000000  0.307692  0.384615      2.000000
 -0.307692  0.076923 -0.307692      2.000000
  0.076923  0.384615  0.384615      2.000000
  0.384615  0.000000  0.307692      2.000000
  0.461538  0.307692  0.000000      2.000000
  0.000000  0.461538  0.307692      2.000000
  0.307692  0.000000  0.461538      2.000000
  0.307692  0.307692 -0.153846      2.000000
  0.461538  0.153846  0.461538      2.000000
  0.307692  0.461538  0.000000      2.000000
  0.153846 -0.307692 -0.307692      2.000000
  0.461538  0.461538  0.153846      2.000000
  0.000000  0.307692  0.461538      2.000000
 -0.307692  0.153846 -0.307692      2.000000
  0.153846  0.461538  0.461538      2.000000
  0.461538  0.000000  0.307692      2.000000
 -0.461538  0.307692  0.000000      2.000000
  0.000000 -0.461538  0.307692      2.000000
  0.307692  0.000000 -0.461538      2.000000
  0.307692  0.307692 -0.230769      2.000000
 -0.461538  0.230769 -0.461538      2.000000
  0.307692 -0.461538  0.000000      2.000000
  0.230769 -0.307692 -0.307692      2.000000
 -0.461538 -0.461538  0.230769      2.000000
  0.000000  0.307692 -0.461538      2.000000
 -0.307692  0.230769 -0.307692      2.000000
  0.230769 -0.461538 -0.461538      2.000000
 -0.461538  0.000000  0.307692      2.000000
 -0.384615  0.307692  0.000000      2.000000
  0.000000 -0.384615  0.307692      2.000000
  0.307692  0.000000 -0.384615      2.000000
  0.307692  0.307692 -0.307692      2.000000
 -0.384615  0.307692 -0.384615      2.000000
  0.307692 -0.384615  0.000000      2.000000
  0.307692 -0.307692 -0.307692      2.000000
 -0.384615 -0.384615  0.307692      2.000000
  0.000000  0.307692 -0.384615      2.000000
 -0.307692  0.307692 -0.307692      2.000000
  0.307692 -0.384615 -0.384615      2.000000
 -0.384615  0.000000  0.307692      2.000000
 -0.307692  0.307692  0.000000      2.000000
  0.000000 -0.307692  0.307692      2.000000
  0.307692  0.000000 -0.307692      2.000000
  0.307692  0.307692 -0.384615      2.000000
 -0.307692  0.384615 -0.307692      2.000000
  0.384615 -0.307692 -0.307692      2.000000
  0.384615  0.384615  0.000000      2.000000
  0.000000  0.384615  0.384615      2.000000
  0.384615  0.000000  0.384615      2.000000
  0.461538  0.384615  0.000000      2.000000
  0.000000  0.461538  0.384615      2.000000
  0.384615  0.000000  0.461538      2.000000
  0.384615  0.384615 -0.076923      2.000000
  0.461538  0.076923  0.461538      2.000000
  0.384615  0.461538  0.000000      2.000000
  0.076923 -0.384615 -0.384615      2.000000
  0.461538  0.461538  0.076923      2.000000
  0.000000  0.384615  0.461538      2.000000
 -0.384615  0.076923 -0.384615      2.000000
  0.076923  0.461538  0.461538      2.000000
  0.461538  0.000000  0.384615      2.000000
 -0.461538  0.384615  0.000000      2.000000
  0.000000 -0.461538  0.384615      2.000000
  0.384615  0.000000 -0.461538      2.000000
  0.384615  0.384615 -0.153846      2.000000
 -0.461538  0.153846 -0.461538      2.000000
  0.384615 -0.461538  0.000000      2.000000
  0.153846 -0.384615 -0.384615      2.000000
 -0.461538 -0.461538  0.153846      2.000000
  0.000000  0.384615 -0.461538      2.000000
 -0.384615  0.153846 -0.384615      2.000000
  0.153846 -0.461538 -0.461538      2.000000
 -0.461538  0.000000  0.384615      2.000000
 -0.384615  0.384615  0.000000      2.000000
  0.000000 -0.384615  0.384615      2.000000
  0.384615  0.000000 -0.384615      2.000000
  0.384615  0.384615 -0.230769      2.000000
 -0.384615  0.230769 -0.384615      2.000000
  0.230769 -0.384615 -0.384615      2.000000
  0.461538  0.461538  0.000000      2.000000
  0.000000  0.461538  0.461538      2.000000
  0.461538  0.000000  0.461538      2.000000
 -0.461538  0.461538  0.000000      2.000000
  0.000000 -0.461538  0.461538      2.000000
  0.461538  0.000000 -0.461538      2.000000
  0.461538  0.461538 -0.076923      2.000000
 -0.461538  0.076923 -0.461538      2.000000
  0.076923 -0.461538 -0.461538      2.000000
  0.230769  0.153846  0.076923      2.000000
  0.076923  0.230769  0.153846      2.000000
  0.153846  0.076923  0.230769      2.000000
  0.153846  0.076923 -0.076923      2.000000
  0.230769  0.076923  0.153846      2.000000
  0.076923 -0.153846 -0.076923      2.000000
  0.076923  0.153846 -0.076923      2.000000
  0.076923 -0.076923 -0.153846      2.000000
  0.153846  0.230769  0.076923      2.000000
 -0.076923  0.076923 -0.153846      2.000000
 -0.153846  0.076923 -0.076923      2.000000
  0.076923  0.153846  0.230769      2.000000
  0.307692  0.153846  0.076923      2.000000
  0.076923  0.307692  0.153846      2.000000
  0.153846  0.076923  0.307692      2.000000
  0.153846  0.076923 -0.153846      2.000000
  0.307692  0.153846  0.230769      2.000000
  0.076923 -0.230769 -0.076923      2.000000
  0.076923  0.230769 -0.076923      2.000000
  0.153846 -0.076923 -0.153846      2.000000
 -0.230769 -0.153846 -0.307692      2.000000
  0.230769  0.307692  0.153846      2.000000
 -0.076923  0.076923 -0.230769      2.000000
 -0.153846  0.153846  0.076923      2.000000
 -0.076923  0.076923  0.230769      2.000000
 -0.153846  0.153846 -0.076923      2.000000
 -0.307692 -0.230769 -0.153846      2.000000
  0.153846  0.230769  0.307692      2.000000
 -0.230769 -0.076923  0.076923      2.000000
  0.076923 -0.153846  0.153846      2.000000
  0.230769 -0.076923  0.076923      2.000000
 -0.076923 -0.153846  0.153846      2.000000
 -0.153846 -0.307692 -0.230769      2.000000
 -0.307692 -0.076923 -0.153846      2.000000
 -0.153846 -0.307692 -0.076923      2.000000
 -0.076923 -0.153846 -0.307692      2.000000
  0.384615  0.153846  0.076923      2.000000
  0.076923  0.384615  0.153846      2.000000
  0.153846  0.076923  0.384615      2.000000
  0.153846  0.076923 -0.230769      2.000000
  0.384615  0.230769  0.307692      2.000000
  0.076923 -0.307692 -0.076923      2.000000
  0.076923  0.307692 -0.076923      2.000000
  0.230769 -0.076923 -0.153846      2.000000
 -0.307692 -0.230769 -0.384615      2.000000
  0.307692  0.384615  0.230769      2.000000
 -0.076923  0.076923 -0.307692      2.000000
 -0.230769  0.153846  0.076923      2.000000
 -0.076923  0.076923  0.307692      2.000000
 -0.153846  0.230769 -0.076923      2.000000
 -0.384615 -0.307692 -0.230769      2.000000
  0.230769  0.307692  0.384615      2.000000
 -0.307692 -0.076923  0.076923      2.000000
  0.076923 -0.230769  0.153846      2.000000
  0.307692 -0.076923  0.076923      2.000000
 -0.076923 -0.153846  0.230769      2.000000
 -0.230769 -0.384615 -0.307692      2.000000
 -0.384615 -0.076923 -0.153846      2.000000
 -0.153846 -0.384615 -0.076923      2.000000
 -0.076923 -0.153846 -0.384615      2.000000
  0.461538  0.153846  0.076923      2.000000
  0.076923  0.461538  0.153846      2.000000
  0.153846  0.076923  0.461538      2.000000
  0.153846  0.076923 -0.307692      2.000000
  0.461538  0.307692  0.384615      2.000000
  0.076923 -0.384615 -0.076923      2.000000
  0.076923  0.384615 -0.076923      2.000000
  0.307692 -0.076923 -0.153846      2.000000
 -0.384615 -0.307692 -0.461538      2.000000
  0.384615  0.461538  0.307692      2.000000
 -0.076923  0.076923 -0.384615      2.000000
 -0.307692  0.153846  0.076923      2.000000
 -0.076923  0.076923  0.384615      2.000000
 -0.153846  0.307692 -0.076923      2.000000
 -0.461538 -0.384615 -0.307692      2.000000
  0.307692  0.384615  0.461538      2.000000
 -0.384615 -0.076923  0.076923      2.000000
  0.076923 -0.307692  0.153846      2.000000
  0.384615 -0.076923  0.076923      2.000000
 -0.076923 -0.153846  0.307692      2.000000
 -0.307692 -0.461538 -0.384615      2.000000
 -0.461538 -0.076923 -0.153846      2.000000
 -0.153846 -0.461538 -0.076923      2.000000
 -0.076923 -0.153846 -0.461538      2.000000
 -0.461538  0.153846  0.076923      2.000000
  0.076923 -0.461538  0.153846      2.000000
  0.153846  0.076923 -0.461538      2.000000
  0.153846  0.076923 -0.384615      2.000000
 -0.461538  0.384615  0.461538      2.000000
  0.076923 -0.461538 -0.076923      2.000000
  0.076923  0.461538 -0.076923      2.000000
  0.384615 -0.076923 -0.153846      2.000000
 -0.461538 -0.384615  0.461538      2.000000
  0.461538 -0.461538  0.384615      2.000000
 -0.076923  0.076923 -0.461538      2.000000
 -0.384615  0.153846  0.076923      2.000000
 -0.076923  0.076923  0.461538      2.000000
 -0.153846  0.384615 -0.076923      2.000000
  0.461538 -0.461538 -0.384615      2.000000
  0.384615  0.461538 -0.461538      2.000000
 -0.461538 -0.076923  0.076923      2.000000
  0.076923 -0.384615  0.153846      2.000000
  0.461538 -0.076923  0.076923      2.000000
 -0.076923 -0.153846  0.384615      2.000000
 -0.384615  0.461538 -0.461538      2.000000
  0.461538 -0.076923 -0.153846      2.000000
 -0.153846  0.461538 -0.076923      2.000000
 -0.076923 -0.153846  0.461538      2.000000
  0.307692  0.230769  0.076923      2.000000
  0.076923  0.307692  0.230769      2.000000
  0.230769  0.076923  0.307692      2.000000
  0.230769  0.153846 -0.076923      2.000000
  0.307692  0.076923  0.230769      2.000000
  0.076923 -0.230769 -0.153846      2.000000
  0.153846  0.230769 -0.076923      2.000000
  0.076923 -0.153846 -0.230769      2.000000
  0.230769  0.307692  0.076923      2.000000
 -0.153846  0.076923 -0.230769      2.000000
 -0.230769  0.076923 -0.153846      2.000000
  0.076923  0.230769  0.307692      2.000000
  0.384615  0.230769  0.076923      2.000000
  0.076923  0.384615  0.230769      2.000000
  0.230769  0.076923  0.384615      2.000000
  0.230769  0.153846 -0.153846      2.000000
  0.384615  0.153846  0.307692      2.000000
  0.076923 -0.307692 -0.153846      2.000000
  0.153846  0.307692 -0.076923      2.000000
  0.153846 -0.153846 -0.230769      2.000000
 -0.307692 -0.153846 -0.384615      2.000000
  0.307692  0.384615  0.153846      2.000000
 -0.153846  0.076923 -0.307692      2.000000
 -0.153846  0.230769  0.153846      2.000000
 -0.076923  0.153846  0.307692      2.000000
 -0.230769  0.153846 -0.153846      2.000000
 -0.384615 -0.307692 -0.153846      2.000000
  0.153846  0.307692  0.384615      2.000000
 -0.307692 -0.153846  0.076923      2.000000
  0.153846 -0.153846  0.230769      2.000000
  0.307692 -0.076923  0.153846      2.000000
 -0.153846 -0.230769  0.153846      2.000000
 -0.153846 -0.384615 -0.307692      2.000000
 -0.384615 -0.076923 -0.230769      2.000000
 -0.230769 -0.384615 -0.076923      2.000000
 -0.076923 -0.230769 -0.384615      2.000000
  0.461538  0.230769  0.076923      2.000000
  0.076923  0.461538  0.230769      2.000000
  0.230769  0.076923  0.461538      2.000000
  0.230769  0.153846 -0.230769      2.000000
  0.461538  0.230769  0.384615      2.000000
  0.076923 -0.384615 -0.153846      2.000000
  0.153846  0.384615 -0.076923      2.000000
  0.230769 -0.153846 -0.230769      2.000000
 -0.384615 -0.230769 -0.461538      2.000000
  0.384615  0.461538  0.230769      2.000000
 -0.153846  0.076923 -0.384615      2.000000
 -0.230769  0.230769  0.153846      2.000000
 -0.076923  0.153846  0.384615      2.000000
 -0.230769  0.230769 -0.153846      2.000000
 -0.461538 -0.384615 -0.230769      2.000000
  0.230769  0.384615  0.461538      2.000000
 -0.384615 -0.153846  0.076923      2.000000
  0.153846 -0.230769  0.230769      2.000000
  0.384615 -0.076923  0.153846      2.000000
 -0.153846 -0.230769  0.230769      2.000000
 -0.230769 -0.461538 -0.384615      2.000000
 -0.461538 -0.076923 -0.230769      2.000000
 -0.230769 -0.461538 -0.076923      2.000000
 -0.076923 -0.230769 -0.461538      2.000000
 -0.461538  0.230769  0.076923      2.000000
  0.076923 -0.461538  0.230769      2.000000
  0.230769  0.076923 -0.461538      2.000000
  0.230769  0.153846 -0.307692      2.000000
 -0.461538  0.307692  0.461538      2.000000
  0.076923 -0.461538 -0.153846      2.000000
  0.153846  0.461538 -0.076923      2.000000
  0.307692 -0.153846 -0.230769      2.000000
 -0.461538 -0.307692  0.461538      2.000000
  0.461538 -0.461538  0.307692      2.000000
 -0.153846  0.076923 -0.461538      2.000000
 -0.307692  0.230769  0.153846      2.000000
 -0.076923  0.153846  0.461538      2.000000
 -0.230769  0.307692 -0.153846      2.000000
  0.461538 -0.461538 -0.307692      2.000000
  0.307692  0.461538 -0.461538      2.000000
 -0.461538 -0.153846  0.076923      2.000000
  0.153846 -0.307692  0.230769      2.000000
  0.461538 -0.076923  0.153846      2.000000
 -0.153846 -0.230769  0.307692      2.000000
 -0.307692  0.461538 -0.461538      2.000000
  0.461538 -0.076923 -0.230769      2.000000
 -0.230769  0.461538 -0.076923      2.000000
 -0.076923 -0.230769  0.461538      2.000000
 -0.384615  0.230769  0.076923      2.000000
  0.076923 -0.384615  0.230769      2.000000
  0.230769  0.076923 -0.384615      2.000000
  0.230769  0.153846 -0.384615      2.000000
 -0.384615  0.384615 -0.461538      2.000000
  0.076923  0.461538 -0.153846      2.000000
  0.153846 -0.461538 -0.076923      2.000000
  0.384615 -0.153846 -0.230769      2.000000
  0.461538 -0.384615  0.384615      2.000000
 -0.461538 -0.384615  0.384615      2.000000
 -0.153846  0.076923  0.461538      2.000000
 -0.384615  0.230769  0.153846      2.000000
 -0.076923  0.153846 -0.461538      2.000000
 -0.230769  0.384615 -0.153846      2.000000
  0.384615  0.461538 -0.384615      2.000000
  0.384615 -0.461538 -0.384615      2.000000
  0.461538 -0.153846  0.076923      2.000000
  0.153846 -0.384615  0.230769      2.000000
 -0.461538 -0.076923  0.153846      2.000000
 -0.153846 -0.230769  0.384615      2.000000
 -0.384615  0.384615  0.461538      2.000000
  0.384615 -0.076923 -0.230769      2.000000
 -0.230769  0.384615 -0.076923      2.000000
 -0.076923 -0.230769  0.384615      2.000000
 -0.307692  0.230769  0.076923      2.000000
  0.076923 -0.307692  0.230769      2.000000
  0.230769  0.076923 -0.307692      2.000000
  0.230769  0.153846 -0.461538      2.000000
 -0.307692  0.461538 -0.384615      2.000000
  0.076923  0.384615 -0.153846      2.000000
  0.153846 -0.384615 -0.076923      2.000000
  0.461538 -0.153846 -0.230769      2.000000
  0.384615 -0.461538  0.307692      2.000000
 -0.384615 -0.307692  0.461538      2.000000
 -0.153846  0.076923  0.384615      2.000000
 -0.461538  0.230769  0.153846      2.000000
 -0.076923  0.153846 -0.384615      2.000000
 -0.230769  0.461538 -0.153846      2.000000
  0.307692  0.384615 -0.461538      2.000000
  0.461538 -0.384615 -0.307692      2.000000
  0.384615 -0.153846  0.076923      2.000000
  0.153846 -0.461538  0.230769      2.000000
 -0.384615 -0.076923  0.153846      2.000000
 -0.153846 -0.230769  0.461538      2.000000
 -0.461538  0.307692  0.384615      2.000000
  0.307692 -0.076923 -0.230769      2.000000
 -0.230769  0.307692 -0.076923      2.000000
 -0.076923 -0.230769  0.307692      2.000000
 -0.230769  0.230769  0.076923      2.000000
  0.076923 -0.230769  0.230769      2.000000
  0.230769  0.076923 -0.230769      2.000000
  0.230769  0.153846  0.461538      2.000000
 -0.230769 -0.461538 -0.307692      2.000000
  0.076923  0.307692 -0.153846      2.000000
  0.153846 -0.307692 -0.076923      2.000000
 -0.461538 -0.153846 -0.230769      2.000000
  0.307692  0.461538  0.230769      2.000000
 -0.307692 -0.230769 -0.461538      2.000000
 -0.153846  0.076923  0.307692      2.000000
  0.461538  0.230769  0.153846      2.000000
 -0.076923  0.153846 -0.307692      2.000000
 -0.230769 -0.461538 -0.153846      2.000000
  0.230769  0.307692  0.461538      2.000000
 -0.461538 -0.307692 -0.230769      2.000000
  0.307692 -0.153846  0.076923      2.000000
  0.153846  0.461538  0.230769      2.000000
 -0.307692 -0.076923  0.153846      2.000000
 -0.153846 -0.230769 -0.461538      2.000000
  0.461538  0.230769  0.307692      2.000000
  0.230769 -0.076923 -0.230769      2.000000
 -0.230769  0.230769 -0.076923      2.000000
 -0.076923 -0.230769  0.230769      2.000000
 -0.153846  0.230769  0.076923      2.000000
  0.076923 -0.153846  0.230769      2.000000
  0.230769  0.076923 -0.153846      2.000000
  0.230769  0.153846  0.384615      2.000000
 -0.153846 -0.384615 -0.230769      2.000000
  0.076923  0.230769 -0.153846      2.000000
 -0.384615 -0.153846 -0.230769      2.000000
  0.230769  0.384615  0.153846      2.000000
 -0.153846  0.076923  0.230769      2.000000
  0.384615  0.230769  0.153846      2.000000
  0.153846  0.230769  0.384615      2.000000
  0.230769 -0.153846  0.076923      2.000000
  0.384615  0.307692  0.076923      2.000000
  0.076923  0.384615  0.307692      2.000000
  0.307692  0.076923  0.384615      2.000000
  0.307692  0.230769 -0.076923      2.000000
  0.384615  0.076923  0.307692      2.000000
  0.076923 -0.307692 -0.230769      2.000000
  0.230769  0.307692 -0.076923      2.000000
  0.076923 -0.230769 -0.307692      2.000000
  0.307692  0.384615  0.076923      2.000000
 -0.230769  0.076923 -0.307692      2.000000
 -0.307692  0.076923 -0.230769      2.000000
  0.076923  0.307692  0.384615      2.000000
  0.461538  0.307692  0.076923      2.000000
  0.076923  0.461538  0.307692      2.000000
  0.307692  0.076923  0.461538      2.000000
  0.307692  0.230769 -0.153846      2.000000
  0.461538  0.153846  0.384615      2.000000
  0.076923 -0.384615 -0.230769      2.000000
  0.230769  0.384615 -0.076923      2.000000
  0.153846 -0.230769 -0.307692      2.000000
 -0.384615 -0.153846 -0.461538      2.000000
  0.384615  0.461538  0.153846      2.000000
 -0.230769  0.076923 -0.384615      2.000000
 -0.153846  0.307692  0.230769      2.000000
 -0.076923  0.230769  0.384615      2.000000
 -0.307692  0.153846 -0.230769      2.000000
 -0.461538 -0.384615 -0.153846      2.000000
  0.153846  0.384615  0.461538      2.000000
 -0.384615 -0.230769  0.076923      2.000000
  0.230769 -0.153846  0.307692      2.000000
  0.384615 -0.076923  0.230769      2.000000
 -0.230769 -0.307692  0.153846      2.000000
 -0.153846 -0.461538 -0.384615      2.000000
 -0.461538 -0.076923 -0.307692      2.000000
 -0.307692 -0.461538 -0.076923      2.000000
 -0.076923 -0.307692 -0.461538      2.000000
 -0.461538  0.307692  0.076923      2.000000
  0.076923 -0.461538  0.307692      2.000000
  0.307692  0.076923 -0.461538      2.000000
  0.307692  0.230769 -0.230769      2.000000
 -0.461538  0.230769  0.461538      2.000000
  0.076923 -0.461538 -0.230769      2.000000
  0.230769  0.461538 -0.076923      2.000000
  0.230769 -0.230769 -0.307692      2.000000
 -0.461538 -0.230769  0.461538      2.000000
  0.461538 -0.461538  0.230769      2.000000
 -0.230769  0.076923 -0.461538      2.000000
 -0.230769  0.307692  0.230769      2.000000
 -0.076923  0.230769  0.461538      2.000000
 -0.307692  0.230769 -0.230769      2.000000
  0.461538 -0.461538 -0.230769      2.000000
  0.230769  0.461538 -0.461538      2.000000
 -0.461538 -0.230769  0.076923      2.000000
  0.230769 -0.230769  0.307692      2.000000
  0.461538 -0.076923  0.230769      2.000000
 -0.230769 -0.307692  0.230769      2.000000
 -0.230769  0.461538 -0.461538      2.000000
  0.461538 -0.076923 -0.307692      2.000000
 -0.307692  0.461538 -0.076923      2.000000
 -0.076923 -0.307692  0.461538      2.000000
 -0.384615  0.307692  0.076923      2.000000
  0.076923 -0.384615  0.307692      2.000000
  0.307692  0.076923 -0.384615      2.000000
  0.307692  0.230769 -0.307692      2.000000
 -0.384615  0.307692 -0.461538      2.000000
  0.076923  0.461538 -0.230769      2.000000
  0.230769 -0.461538 -0.076923      2.000000
  0.307692 -0.230769 -0.307692      2.000000
  0.461538 -0.307692  0.384615      2.000000
 -0.461538 -0.384615  0.307692      2.000000
 -0.230769  0.076923  0.461538      2.000000
 -0.307692  0.307692  0.230769      2.000000
 -0.076923  0.230769 -0.461538      2.000000
 -0.307692  0.307692 -0.230769      2.000000
  0.384615  0.461538 -0.307692      2.000000
  0.307692 -0.461538 -0.384615      2.000000
  0.461538 -0.230769  0.076923      2.000000
  0.230769 -0.307692  0.307692      2.000000
 -0.461538 -0.076923  0.230769      2.000000
 -0.230769 -0.307692  0.307692      2.000000
 -0.307692  0.384615  0.461538      2.000000
  0.384615 -0.076923 -0.307692      2.000000
 -0.307692  0.384615 -0.076923      2.000000
 -0.076923 -0.307692  0.384615      2.000000
 -0.307692  0.307692  0.076923      2.000000
  0.076923 -0.307692  0.307692      2.000000
  0.307692  0.076923 -0.307692      2.000000
  0.307692  0.230769 -0.384615      2.000000
 -0.307692  0.384615 -0.384615      2.000000
  0.076923  0.384615 -0.230769      2.000000
  0.230769 -0.384615 -0.076923      2.000000
  0.384615 -0.230769 -0.307692      2.000000
  0.384615 -0.384615  0.307692      2.000000
 -0.384615 -0.307692  0.384615      2.000000
 -0.230769  0.076923  0.384615      2.000000
 -0.384615  0.307692  0.230769      2.000000
 -0.076923  0.230769 -0.384615      2.000000
 -0.307692  0.384615 -0.230769      2.000000
  0.307692  0.384615 -0.384615      2.000000
  0.384615 -0.384615 -0.307692      2.000000
  0.384615 -0.230769  0.076923      2.000000
  0.230769 -0.384615  0.307692      2.000000
 -0.384615 -0.076923  0.230769      2.000000
 -0.230769 -0.307692  0.384615      2.000000
 -0.384615  0.307692  0.384615      2.000000
  0.307692 -0.076923 -0.307692      2.000000
 -0.307692  0.307692 -0.076923      2.000000
 -0.076923 -0.307692  0.307692      2.000000
 -0.230769  0.307692  0.076923      2.000000
  0.076923 -0.230769  0.307692      2.000000
  0.307692  0.076923 -0.230769      2.000000
  0.307692  0.230769 -0.461538      2.000000
 -0.230769  0.461538 -0.307692      2.000000
  0.076923  0.307692 -0.230769      2.000000
  0.461538 -0.230769 -0.307692      2.000000
  0.307692 -0.461538  0.230769      2.000000
 -0.230769  0.076923  0.307692      2.000000
 -0.461538  0.307692  0.230769      2.000000
  0.230769  0.307692 -0.461538      2.000000
  0.307692 -0.230769  0.076923      2.000000
  0.461538  0.384615  0.076923      2.000000
  0.076923  0.461538  0.384615      2.000000
  0.384615  0.076923  0.461538      2.000000
  0.384615  0.307692 -0.076923      2.000000
  0.461538  0.076923  0.384615      2.000000
  0.076923 -0.384615 -0.307692      2.000000
  0.307692  0.384615 -0.076923      2.000000
  0.076923 -0.307692 -0.384615      2.000000
  0.384615  0.461538  0.076923      2.000000
 -0.307692  0.076923 -0.384615      2.000000
 -0.384615  0.076923 -0.307692      2.000000
  0.076923  0.384615  0.461538      2.000000
 -0.461538  0.384615  0.076923      2.000000
  0.076923 -0.461538  0.384615      2.000000
  0.384615  0.076923 -0.461538      2.000000
  0.384615  0.307692 -0.153846      2.000000
 -0.461538  0.153846  0.461538      2.000000
  0.076923 -0.461538 -0.307692      2.000000
  0.307692  0.461538 -0.076923      2.000000
  0.153846 -0.307692 -0.384615      2.000000
 -0.461538 -0.153846  0.461538      2.000000
  0.461538 -0.461538  0.153846      2.000000
 -0.307692  0.076923 -0.461538      2.000000
 -0.153846  0.384615  0.307692      2.000000
 -0.076923  0.307692  0.461538      2.000000
 -0.384615  0.153846 -0.307692      2.000000
  0.461538 -0.461538 -0.153846      2.000000
  0.153846  0.461538 -0.461538      2.000000
 -0.461538 -0.307692  0.076923      2.000000
  0.307692 -0.153846  0.384615      2.000000
  0.461538 -0.076923  0.307692      2.000000
 -0.307692 -0.384615  0.153846      2.000000
 -0.153846  0.461538 -0.461538      2.000000
  0.461538 -0.076923 -0.384615      2.000000
 -0.384615  0.461538 -0.076923      2.000000
 -0.076923 -0.384615  0.461538      2.000000
 -0.384615  0.384615  0.076923      2.000000
  0.076923 -0.384615  0.384615      2.000000
  0.384615  0.076923 -0.384615      2.000000
  0.384615  0.307692 -0.230769      2.000000
 -0.384615  0.230769 -0.461538      2.000000
  0.076923  0.461538 -0.307692      2.000000
  0.307692 -0.461538 -0.076923      2.000000
  0.230769 -0.307692 -0.384615      2.000000
  0.461538 -0.230769  0.384615      2.000000
 -0.461538 -0.384615  0.230769      2.000000
 -0.307692  0.076923  0.461538      2.000000
 -0.230769  0.384615  0.307692      2.000000
 -0.076923  0.307692 -0.461538      2.000000
 -0.384615  0.230769 -0.307692      2.000000
  0.384615  0.461538 -0.230769      2.000000
  0.230769 -0.461538 -0.384615      2.000000
  0.461538 -0.307692  0.076923      2.000000
  0.307692 -0.230769  0.384615      2.000000
 -0.461538 -0.076923  0.307692      2.000000
 -0.307692 -0.384615  0.230769      2.000000
 -0.230769  0.384615  0.461538      2.000000
  0.384615 -0.076923 -0.384615      2.000000
 -0.384615  0.384615 -0.076923      2.000000
 -0.076923 -0.384615  0.384615      2.000000
 -0.307692  0.384615  0.076923      2.000000
  0.076923 -0.307692  0.384615      2.000000
  0.384615  0.076923 -0.307692      2.000000
  0.384615  0.307692 -0.307692      2.000000
 -0.307692  0.307692 -0.384615      2.000000
  0.076923  0.384615 -0.307692      2.000000
  0.307692 -0.307692 -0.384615      2.000000
  0.384615 -0.307692  0.307692      2.000000
 -0.307692  0.076923  0.384615      2.000000
 -0.307692  0.384615  0.307692      2.000000
  0.307692  0.384615 -0.307692      2.000000
  0.384615 -0.307692  0.076923      2.000000
 -0.461538  0.461538  0.076923      2.000000
  0.076923 -0.461538  0.461538      2.000000
  0.461538  0.076923 -0.461538      2.000000
  0.461538  0.384615 -0.076923      2.000000
 -0.461538  0.076923  0.461538      2.000000
  0.076923 -0.461538 -0.384615      2.000000
  0.384615  0.461538 -0.076923      2.000000
  0.076923 -0.384615 -0.461538      2.000000
  0.461538 -0.461538  0.076923      2.000000
 -0.384615  0.076923 -0.461538      2.000000
 -0.461538  0.076923 -0.384615      2.000000
  0.076923  0.461538 -0.461538      2.000000
 -0.384615  0.461538  0.076923      2.000000
  0.076923 -0.384615  0.461538      2.000000
  0.461538  0.076923 -0.384615      2.000000
  0.461538  0.384615 -0.153846      2.000000
 -0.384615  0.153846 -0.461538      2.000000
  0.076923  0.461538 -0.384615      2.000000
  0.153846 -0.384615 -0.461538      2.000000
  0.461538 -0.153846  0.384615      2.000000
 -0.384615  0.076923  0.461538      2.000000
 -0.153846  0.461538  0.384615      2.000000
  0.384615  0.461538 -0.153846      2.000000
  0.461538 -0.384615  0.076923      2.000000
  0.461538  0.307692  0.153846      2.000000
  0.153846  0.461538  0.307692      2.000000
  0.307692  0.153846  0.461538      2.000000
  0.307692  0.153846 -0.153846      2.000000
  0.461538  0.153846  0.307692      2.000000
  0.153846 -0.307692 -0.153846      2.000000
  0.153846  0.307692 -0.153846      2.000000
  0.153846 -0.153846 -0.307692      2.000000
  0.307692  0.461538  0.153846      2.000000
 -0.153846  0.153846 -0.307692      2.000000
 -0.307692  0.153846 -0.153846      2.000000
  0.153846  0.307692  0.461538      2.000000
 -0.461538  0.307692  0.153846      2.000000
  0.153846 -0.461538  0.307692      2.000000
  0.307692  0.153846 -0.461538      2.000000
  0.307692  0.153846 -0.230769      2.000000
 -0.461538  0.230769  0.384615      2.000000
  0.153846 -0.384615 -0.153846      2.000000
  0.153846  0.384615 -0.153846      2.000000
  0.230769 -0.153846 -0.307692      2.000000
 -0.384615 -0.230769  0.461538      2.000000
  0.384615 -0.461538  0.230769      2.000000
 -0.153846  0.153846 -0.384615      2.000000
 -0.230769  0.307692  0.153846      2.000000
 -0.153846  0.153846  0.384615      2.000000
 -0.307692  0.230769 -0.153846      2.000000
  0.461538 -0.384615 -0.230769      2.000000
  0.230769  0.384615 -0.461538      2.000000
 -0.384615 -0.153846  0.153846      2.000000
  0.153846 -0.230769  0.307692      2.000000
  0.384615 -0.153846  0.153846      2.000000
 -0.153846 -0.307692  0.230769      2.000000
 -0.230769  0.461538 -0.384615      2.000000
  0.461538 -0.153846 -0.307692      2.000000
 -0.307692  0.461538 -0.153846      2.000000
 -0.153846 -0.307692  0.461538      2.000000
 -0.384615  0.307692  0.153846      2.000000
  0.153846 -0.384615  0.307692      2.000000
  0.307692  0.153846 -0.384615      2.000000
  0.307692  0.153846 -0.307692      2.000000
 -0.384615  0.307692  0.461538      2.000000
  0.153846 -0.461538 -0.153846      2.000000
  0.153846  0.461538 -0.153846      2.000000
  0.307692 -0.153846 -0.307692      2.000000
 -0.461538 -0.307692  0.384615      2.000000
  0.461538 -0.384615  0.307692      2.000000
 -0.153846  0.153846 -0.461538      2.000000
 -0.307692  0.307692  0.153846      2.000000
 -0.153846  0.153846  0.461538      2.000000
 -0.307692  0.307692 -0.153846      2.000000
  0.384615 -0.461538 -0.307692      2.000000
  0.307692  0.461538 -0.384615      2.000000
 -0.461538 -0.153846  0.153846      2.000000
  0.153846 -0.307692  0.307692      2.000000
  0.461538 -0.153846  0.153846      2.000000
 -0.153846 -0.307692  0.307692      2.000000
 -0.307692  0.384615 -0.461538      2.000000
  0.384615 -0.153846 -0.307692      2.000000
 -0.307692  0.384615 -0.153846      2.000000
 -0.153846 -0.307692  0.384615      2.000000
 -0.461538  0.384615  0.153846      2.000000
  0.153846 -0.461538  0.384615      2.000000
  0.384615  0.153846 -0.461538      2.000000
  0.384615  0.230769 -0.153846      2.000000
 -0.461538  0.153846  0.384615      2.000000
  0.153846 -0.384615 -0.230769      2.000000
  0.230769  0.384615 -0.153846      2.000000
  0.153846 -0.230769 -0.384615      2.000000
  0.384615 -0.461538  0.153846      2.000000
 -0.230769  0.153846 -0.384615      2.000000
 -0.384615  0.153846 -0.230769      2.000000
  0.153846  0.384615 -0.461538      2.000000
 -0.384615  0.384615  0.153846      2.000000
  0.153846 -0.384615  0.384615      2.000000
  0.384615  0.153846 -0.384615      2.000000
  0.384615  0.230769 -0.230769      2.000000
 -0.384615  0.230769  0.461538      2.000000
  0.153846 -0.461538 -0.230769      2.000000
  0.230769  0.461538 -0.153846      2.000000
  0.230769 -0.230769 -0.384615      2.000000
 -0.461538 -0.230769  0.384615      2.000000
  0.461538 -0.384615  0.230769      2.000000
 -0.230769  0.153846 -0.461538      2.000000
 -0.230769  0.384615  0.230769      2.000000
 -0.153846  0.230769  0.461538      2.000000
 -0.384615  0.230769 -0.230769      2.000000
  0.384615 -0.461538 -0.230769      2.000000
  0.230769  0.461538 -0.384615      2.000000
 -0.461538 -0.230769  0.153846      2.000000
  0.230769 -0.230769  0.384615      2.000000
  0.461538 -0.153846  0.230769      2.000000
 -0.230769 -0.384615  0.230769      2.000000
 -0.230769  0.384615 -0.461538      2.000000
  0.384615 -0.153846 -0.384615      2.000000
 -0.384615  0.384615 -0.153846      2.000000
 -0.153846 -0.384615  0.384615      2.000000
 -0.307692  0.384615  0.153846      2.000000
  0.153846 -0.307692  0.384615      2.000000
  0.384615  0.153846 -0.307692      2.000000
  0.384615  0.230769 -0.307692      2.000000
 -0.307692  0.307692 -0.461538      2.000000
  0.153846  0.461538 -0.230769      2.000000
  0.230769 -0.461538 -0.153846      2.000000
  0.307692 -0.230769 -0.384615      2.000000
  0.461538 -0.307692  0.307692      2.000000
 -0.461538 -0.307692  0.307692      2.000000
 -0.230769  0.153846  0.461538      2.000000
 -0.307692  0.384615  0.230769      2.000000
 -0.153846  0.230769 -0.461538      2.000000
 -0.384615  0.307692 -0.230769      2.000000
  0.307692  0.461538 -0.307692      2.000000
  0.307692 -0.461538 -0.307692      2.000000
  0.461538 -0.230769  0.153846      2.000000
  0.230769 -0.307692  0.384615      2.000000
 -0.461538 -0.153846  0.230769      2.000000
 -0.230769 -0.384615  0.307692      2.000000
 -0.307692  0.307692  0.461538      2.000000
  0.307692 -0.153846 -0.384615      2.000000
 -0.384615  0.307692 -0.153846      2.000000
 -0.153846 -0.384615  0.307692      2.000000
 -0.230769  0.384615  0.153846      2.000000
  0.153846 -0.230769  0.384615      2.000000
  0.384615  0.153846 -0.230769      2.000000
  0.384615  0.230769 -0.384615      2.000000
 -0.230769  0.384615 -0.384615      2.000000
  0.153846  0.384615 -0.230769      2.000000
  0.384615 -0.230769 -0.384615      2.000000
  0.384615 -0.384615  0.230769      2.000000
 -0.230769  0.153846  0.384615      2.000000
 -0.384615  0.384615  0.230769      2.000000
  0.230769  0.384615 -0.384615      2.000000
  0.384615 -0.230769  0.153846      2.000000
 -0.384615  0.461538  0.153846      2.000000
  0.153846 -0.384615  0.461538      2.000000
  0.461538  0.153846 -0.384615      2.000000
  0.461538  0.307692 -0.153846      2.000000
 -0.384615  0.153846  0.461538      2.000000
  0.153846 -0.461538 -0.307692      2.000000
  0.307692  0.461538 -0.153846      2.000000
  0.153846 -0.307692 -0.461538      2.000000
  0.461538 -0.384615  0.153846      2.000000
 -0.307692  0.153846 -0.461538      2.000000
 -0.461538  0.153846 -0.307692      2.000000
  0.153846  0.461538 -0.384615      2.000000
 -0.307692  0.461538  0.153846      2.000000
  0.153846 -0.307692  0.461538      2.000000
  0.461538  0.153846 -0.307692      2.000000
  0.461538  0.307692 -0.230769      2.000000
 -0.307692  0.230769 -0.461538      2.000000
  0.153846  0.461538 -0.307692      2.000000
  0.230769 -0.307692 -0.461538      2.000000
  0.461538 -0.230769  0.307692      2.000000
 -0.307692  0.153846  0.461538      2.000000
 -0.230769  0.461538  0.307692      2.000000
  0.307692  0.461538 -0.230769      2.000000
  0.461538 -0.307692  0.153846      2.000000
 -0.307692  0.461538  0.230769      2.000000
  0.230769 -0.307692  0.461538      2.000000
  0.461538  0.230769 -0.307692      2.000000
  0.461538  0.230769 -0.230769      2.000000
 -0.307692  0.230769  0.461538      2.000000
  0.230769 -0.461538 -0.230769      2.000000
  0.230769  0.461538 -0.230769      2.000000
  0.230769 -0.230769 -0.461538      2.000000
  0.461538 -0.307692  0.230769      2.000000
 -0.230769  0.230769 -0.461538      2.000000
 -0.461538  0.230769 -0.230769      2.000000
  0.230769  0.461538 -0.307692      2.000000

 Following cartesian coordinates:
            Coordinates               Weight
  0.000000  0.000000  0.000000      1.000000
 -0.014150  0.014150  0.014150      2.000000
  0.014150 -0.014150  0.014150      2.000000
  0.014150  0.014150 -0.014150      2.000000
  0.014150  0.014150  0.014150      2.000000
 -0.028301  0.028301  0.028301      2.000000
  0.028301 -0.028301  0.028301      2.000000
  0.028301  0.028301 -0.028301      2.000000
  0.028301  0.028301  0.028301      2.000000
 -0.042451  0.042451  0.042451      2.000000
  0.042451 -0.042451  0.042451      2.000000
  0.042451  0.042451 -0.042451      2.000000
  0.042451  0.042451  0.042451      2.000000
 -0.056602  0.056602  0.056602      2.000000
  0.056602 -0.056602  0.056602      2.000000
  0.056602  0.056602 -0.056602      2.000000
  0.056602  0.056602  0.056602      2.000000
 -0.070752  0.070752  0.070752      2.000000
  0.070752 -0.070752  0.070752      2.000000
  0.070752  0.070752 -0.070752      2.000000
  0.070752  0.070752  0.070752      2.000000
 -0.084903  0.084903  0.084903      2.000000
  0.084903 -0.084903  0.084903      2.000000
  0.084903  0.084903 -0.084903      2.000000
  0.084903  0.084903  0.084903      2.000000
  0.000000  0.000000  0.028301      2.000000
  0.028301  0.000000  0.000000      2.000000
  0.000000  0.028301  0.000000      2.000000
 -0.014150  0.014150  0.042451      2.000000
  0.042451 -0.014150  0.014150      2.000000
  0.014150  0.042451 -0.014150      2.000000
 -0.014150 -0.014150  0.042451      2.000000
  0.014150  0.042451  0.014150      2.000000
  0.014150 -0.014150  0.042451      2.000000
 -0.042451  0.014150  0.014150      2.000000
  0.014150  0.014150  0.042451      2.000000
  0.042451  0.014150 -0.014150      2.000000
  0.014150 -0.042451  0.014150      2.000000
  0.042451  0.014150  0.014150      2.000000
 -0.014150  0.042451  0.014150      2.000000
 -0.028301  0.028301  0.056602      2.000000
  0.056602 -0.028301  0.028301      2.000000
  0.028301  0.056602 -0.028301      2.000000
 -0.028301 -0.028301  0.056602      2.000000
  0.028301  0.056602  0.028301      2.000000
  0.028301 -0.028301  0.056602      2.000000
 -0.056602  0.028301  0.028301      2.000000
  0.028301  0.028301  0.056602      2.000000
  0.056602  0.028301 -0.028301      2.000000
  0.028301 -0.056602  0.028301      2.000000
  0.056602  0.028301  0.028301      2.000000
 -0.028301  0.056602  0.028301      2.000000
 -0.042451  0.042451  0.070752      2.000000
  0.070752 -0.042451  0.042451      2.000000
  0.042451  0.070752 -0.042451      2.000000
 -0.042451 -0.042451  0.070752      2.000000
  0.042451  0.070752  0.042451      2.000000
  0.042451 -0.042451  0.070752      2.000000
 -0.070752  0.042451  0.042451      2.000000
  0.042451  0.042451  0.070752      2.000000
  0.070752  0.042451 -0.042451      2.000000
  0.042451 -0.070752  0.042451      2.000000
  0.070752  0.042451  0.042451      2.000000
 -0.042451  0.070752  0.042451      2.000000
 -0.056602  0.056602  0.084903      2.000000
  0.084903 -0.056602  0.056602      2.000000
  0.056602  0.084903 -0.056602      2.000000
 -0.056602 -0.056602  0.084903      2.000000
  0.056602  0.084903  0.056602      2.000000
  0.056602 -0.056602  0.084903      2.000000
 -0.084903  0.056602  0.056602      2.000000
  0.056602  0.056602  0.084903      2.000000
  0.084903  0.056602 -0.056602      2.000000
  0.056602 -0.084903  0.056602      2.000000
  0.084903  0.056602  0.056602      2.000000
 -0.056602  0.084903  0.056602      2.000000
 -0.070752  0.070752  0.099053      2.000000
  0.099053 -0.070752  0.070752      2.000000
  0.070752  0.099053 -0.070752      2.000000
 -0.070752 -0.070752  0.099053      2.000000
  0.070752  0.099053  0.070752      2.000000
  0.070752 -0.070752  0.099053      2.000000
 -0.099053  0.070752  0.070752      2.000000
  0.070752  0.070752  0.099053      2.000000
  0.099053  0.070752 -0.070752      2.000000
  0.070752 -0.099053  0.070752      2.000000
  0.099053  0.070752  0.070752      2.000000
 -0.070752  0.099053  0.070752      2.000000
  0.099053 -0.099053 -0.070752      2.000000
 -0.070752  0.099053 -0.099053      2.000000
 -0.099053 -0.070752  0.099053      2.000000
 -0.084903 -0.084903  0.113204      2.000000
  0.084903 -0.254709  0.084903      2.000000
 -0.099053  0.099053 -0.070752      2.000000
 -0.113204  0.084903  0.084903      2.000000
  0.084903  0.084903 -0.254709      2.000000
 -0.070752 -0.099053  0.099053      2.000000
  0.084903 -0.113204  0.084903      2.000000
 -0.254709  0.084903  0.084903      2.000000
  0.099053 -0.070752 -0.099053      2.000000
  0.084903 -0.084903 -0.056602      2.000000
 -0.056602  0.084903 -0.084903      2.000000
 -0.084903 -0.056602  0.084903      2.000000
  0.084903  0.084903 -0.056602      2.000000
 -0.084903 -0.056602 -0.084903      2.000000
 -0.084903  0.084903 -0.056602      2.000000
  0.056602 -0.084903 -0.084903      2.000000
 -0.084903 -0.084903 -0.056602      2.000000
 -0.056602 -0.084903  0.084903      2.000000
 -0.084903  0.056602 -0.084903      2.000000
 -0.056602 -0.084903 -0.084903      2.000000
  0.084903 -0.056602 -0.084903      2.000000
  0.070752 -0.070752 -0.042451      2.000000
 -0.042451  0.070752 -0.070752      2.000000
 -0.070752 -0.042451  0.070752      2.000000
  0.070752  0.070752 -0.042451      2.000000
 -0.070752 -0.042451 -0.070752      2.000000
 -0.070752  0.070752 -0.042451      2.000000
  0.042451 -0.070752 -0.070752      2.000000
 -0.070752 -0.070752 -0.042451      2.000000
 -0.042451 -0.070752  0.070752      2.000000
 -0.070752  0.042451 -0.070752      2.000000
 -0.042451 -0.070752 -0.070752      2.000000
  0.070752 -0.042451 -0.070752      2.000000
  0.056602 -0.056602 -0.028301      2.000000
 -0.028301  0.056602 -0.056602      2.000000
 -0.056602 -0.028301  0.056602      2.000000
  0.056602  0.056602 -0.028301      2.000000
 -0.056602 -0.028301 -0.056602      2.000000
 -0.056602  0.056602 -0.028301      2.000000
  0.028301 -0.056602 -0.056602      2.000000
 -0.056602 -0.056602 -0.028301      2.000000
 -0.028301 -0.056602  0.056602      2.000000
 -0.056602  0.028301 -0.056602      2.000000
 -0.028301 -0.056602 -0.056602      2.000000
  0.056602 -0.028301 -0.056602      2.000000
  0.042451 -0.042451 -0.014150      2.000000
 -0.014150  0.042451 -0.042451      2.000000
 -0.042451 -0.014150  0.042451      2.000000
  0.042451  0.042451 -0.014150      2.000000
 -0.042451 -0.014150 -0.042451      2.000000
 -0.042451  0.042451 -0.014150      2.000000
  0.014150 -0.042451 -0.042451      2.000000
 -0.042451 -0.042451 -0.014150      2.000000
 -0.014150 -0.042451  0.042451      2.000000
 -0.042451  0.014150 -0.042451      2.000000
 -0.014150 -0.042451 -0.042451      2.000000
  0.042451 -0.014150 -0.042451      2.000000
  0.028301 -0.028301  0.000000      2.000000
  0.000000  0.028301 -0.028301      2.000000
 -0.028301  0.000000  0.028301      2.000000
  0.028301  0.028301  0.000000      2.000000
 -0.028301  0.000000 -0.028301      2.000000
  0.000000 -0.028301 -0.028301      2.000000
  0.000000  0.000000  0.056602      2.000000
  0.056602  0.000000  0.000000      2.000000
  0.000000  0.056602  0.000000      2.000000
 -0.014150  0.014150  0.070752      2.000000
  0.070752 -0.014150  0.014150      2.000000
  0.014150  0.070752 -0.014150      2.000000
 -0.014150 -0.014150  0.070752      2.000000
  0.014150  0.070752  0.014150      2.000000
  0.014150 -0.014150  0.070752      2.000000
 -0.070752  0.014150  0.014150      2.000000
  0.014150  0.014150  0.070752      2.000000
  0.070752  0.014150 -0.014150      2.000000
  0.014150 -0.070752  0.014150      2.000000
  0.070752  0.014150  0.014150      2.000000
 -0.014150  0.070752  0.014150      2.000000
 -0.028301  0.028301  0.084903      2.000000
  0.084903 -0.028301  0.028301      2.000000
  0.028301  0.084903 -0.028301      2.000000
 -0.028301 -0.028301  0.084903      2.000000
  0.028301  0.084903  0.028301      2.000000
  0.028301 -0.028301  0.084903      2.000000
 -0.084903  0.028301  0.028301      2.000000
  0.028301  0.028301  0.084903      2.000000
  0.084903  0.028301 -0.028301      2.000000
  0.028301 -0.084903  0.028301      2.000000
  0.084903  0.028301  0.028301      2.000000
 -0.028301  0.084903  0.028301      2.000000
 -0.042451  0.042451  0.099053      2.000000
  0.099053 -0.042451  0.042451      2.000000
  0.042451  0.099053 -0.042451      2.000000
 -0.042451 -0.042451  0.099053      2.000000
  0.042451  0.099053  0.042451      2.000000
  0.042451 -0.042451  0.099053      2.000000
 -0.099053  0.042451  0.042451      2.000000
  0.042451  0.042451  0.099053      2.000000
  0.099053  0.042451 -0.042451      2.000000
  0.042451 -0.099053  0.042451      2.000000
  0.099053  0.042451  0.042451      2.000000
 -0.042451  0.099053  0.042451      2.000000
 -0.056602  0.056602  0.113204      2.000000
  0.113204 -0.056602  0.056602      2.000000
  0.056602  0.113204 -0.056602      2.000000
 -0.056602 -0.056602  0.113204      2.000000
  0.056602  0.113204  0.056602      2.000000
  0.056602 -0.056602  0.113204      2.000000
 -0.113204  0.056602  0.056602      2.000000
  0.056602  0.056602  0.113204      2.000000
  0.113204  0.056602 -0.056602      2.000000
  0.056602 -0.113204  0.056602      2.000000
  0.113204  0.056602  0.056602      2.000000
 -0.056602  0.113204  0.056602      2.000000
  0.113204 -0.113204 -0.056602      2.000000
 -0.056602  0.113204 -0.113204      2.000000
 -0.113204 -0.056602  0.113204      2.000000
 -0.070752 -0.070752  0.127354      2.000000
  0.070752 -0.240558  0.070752      2.000000
 -0.113204  0.113204 -0.056602      2.000000
 -0.127354  0.070752  0.070752      2.000000
  0.070752  0.070752 -0.240558      2.000000
 -0.056602 -0.113204  0.113204      2.000000
  0.070752 -0.127354  0.070752      2.000000
 -0.240558  0.070752  0.070752      2.000000
  0.113204 -0.056602 -0.113204      2.000000
  0.099053 -0.099053 -0.042451      2.000000
 -0.042451  0.099053 -0.099053      2.000000
 -0.099053 -0.042451  0.099053      2.000000
 -0.084903 -0.084903  0.141505      2.000000
  0.084903 -0.226408  0.084903      2.000000
 -0.099053  0.099053 -0.042451      2.000000
 -0.141505  0.084903  0.084903      2.000000
  0.084903  0.084903 -0.226408      2.000000
 -0.042451 -0.099053  0.099053      2.000000
  0.084903 -0.141505  0.084903      2.000000
 -0.226408  0.084903  0.084903      2.000000
  0.099053 -0.042451 -0.099053      2.000000
  0.084903 -0.084903 -0.028301      2.000000
 -0.028301  0.084903 -0.084903      2.000000
 -0.084903 -0.028301  0.084903      2.000000
  0.084903  0.084903 -0.028301      2.000000
 -0.084903 -0.028301 -0.084903      2.000000
 -0.084903  0.084903 -0.028301      2.000000
  0.028301 -0.084903 -0.084903      2.000000
 -0.084903 -0.084903 -0.028301      2.000000
 -0.028301 -0.084903  0.084903      2.000000
 -0.084903  0.028301 -0.084903      2.000000
 -0.028301 -0.084903 -0.084903      2.000000
  0.084903 -0.028301 -0.084903      2.000000
  0.070752 -0.070752 -0.014150      2.000000
 -0.014150  0.070752 -0.070752      2.000000
 -0.070752 -0.014150  0.070752      2.000000
  0.070752  0.070752 -0.014150      2.000000
 -0.070752 -0.014150 -0.070752      2.000000
 -0.070752  0.070752 -0.014150      2.000000
  0.014150 -0.070752 -0.070752      2.000000
 -0.070752 -0.070752 -0.014150      2.000000
 -0.014150 -0.070752  0.070752      2.000000
 -0.070752  0.014150 -0.070752      2.000000
 -0.014150 -0.070752 -0.070752      2.000000
  0.070752 -0.014150 -0.070752      2.000000
  0.056602 -0.056602  0.000000      2.000000
  0.000000  0.056602 -0.056602      2.000000
 -0.056602  0.000000  0.056602      2.000000
  0.056602  0.056602  0.000000      2.000000
 -0.056602  0.000000 -0.056602      2.000000
  0.000000 -0.056602 -0.056602      2.000000
  0.000000  0.000000  0.084903      2.000000
  0.084903  0.000000  0.000000      2.000000
  0.000000  0.084903  0.000000      2.000000
 -0.014150  0.014150  0.099053      2.000000
  0.099053 -0.014150  0.014150      2.000000
  0.014150  0.099053 -0.014150      2.000000
 -0.014150 -0.014150  0.099053      2.000000
  0.014150  0.099053  0.014150      2.000000
  0.014150 -0.014150  0.099053      2.000000
 -0.099053  0.014150  0.014150      2.000000
  0.014150  0.014150  0.099053      2.000000
  0.099053  0.014150 -0.014150      2.000000
  0.014150 -0.099053  0.014150      2.000000
  0.099053  0.014150  0.014150      2.000000
 -0.014150  0.099053  0.014150      2.000000
 -0.028301  0.028301  0.113204      2.000000
  0.113204 -0.028301  0.028301      2.000000
  0.028301  0.113204 -0.028301      2.000000
 -0.028301 -0.028301  0.113204      2.000000
  0.028301  0.113204  0.028301      2.000000
  0.028301 -0.028301  0.113204      2.000000
 -0.113204  0.028301  0.028301      2.000000
  0.028301  0.028301  0.113204      2.000000
  0.113204  0.028301 -0.028301      2.000000
  0.028301 -0.113204  0.028301      2.000000
  0.113204  0.028301  0.028301      2.000000
 -0.028301  0.113204  0.028301      2.000000
 -0.042451  0.042451  0.127354      2.000000
  0.127354 -0.042451  0.042451      2.000000
  0.042451  0.127354 -0.042451      2.000000
 -0.042451 -0.042451  0.127354      2.000000
  0.042451  0.127354  0.042451      2.000000
  0.042451 -0.042451  0.127354      2.000000
 -0.127354  0.042451  0.042451      2.000000
  0.042451  0.042451  0.127354      2.000000
  0.127354  0.042451 -0.042451      2.000000
  0.042451 -0.127354  0.042451      2.000000
  0.127354  0.042451  0.042451      2.000000
 -0.042451  0.127354  0.042451      2.000000
  0.127354 -0.127354 -0.042451      2.000000
 -0.042451  0.127354 -0.127354      2.000000
 -0.127354 -0.042451  0.127354      2.000000
 -0.056602 -0.056602  0.141505      2.000000
  0.056602 -0.226408  0.056602      2.000000
 -0.127354  0.127354 -0.042451      2.000000
 -0.141505  0.056602  0.056602      2.000000
  0.056602  0.056602 -0.226408      2.000000
 -0.042451 -0.127354  0.127354      2.000000
  0.056602 -0.141505  0.056602      2.000000
 -0.226408  0.056602  0.056602      2.000000
  0.127354 -0.042451 -0.127354      2.000000
  0.113204 -0.113204 -0.028301      2.000000
 -0.028301  0.113204 -0.113204      2.000000
 -0.113204 -0.028301  0.113204      2.000000
 -0.070752 -0.070752  0.155655      2.000000
  0.070752 -0.212257  0.070752      2.000000
 -0.113204  0.113204 -0.028301      2.000000
 -0.155655  0.070752  0.070752      2.000000
  0.070752  0.070752 -0.212257      2.000000
 -0.028301 -0.113204  0.113204      2.000000
  0.070752 -0.155655  0.070752      2.000000
 -0.212257  0.070752  0.070752      2.000000
  0.113204 -0.028301 -0.113204      2.000000
  0.099053 -0.099053 -0.014150      2.000000
 -0.014150  0.099053 -0.099053      2.000000
 -0.099053 -0.014150  0.099053      2.000000
 -0.084903 -0.084903  0.169806      2.000000
  0.084903 -0.198107  0.084903      2.000000
 -0.099053  0.099053 -0.014150      2.000000
 -0.169806  0.084903  0.084903      2.000000
  0.084903  0.084903 -0.198107      2.000000
 -0.014150 -0.099053  0.099053      2.000000
  0.084903 -0.169806  0.084903      2.000000
 -0.198107  0.084903  0.084903      2.000000
  0.099053 -0.014150 -0.099053      2.000000
  0.084903 -0.084903  0.000000      2.000000
  0.000000  0.084903 -0.084903      2.000000
 -0.084903  0.000000  0.084903      2.000000
  0.084903  0.084903  0.000000      2.000000
 -0.084903  0.000000 -0.084903      2.000000
  0.000000 -0.084903 -0.084903      2.000000
  0.000000  0.000000  0.113204      2.000000
  0.113204  0.000000  0.000000      2.000000
  0.000000  0.113204  0.000000      2.000000
 -0.014150  0.014150  0.127354      2.000000
  0.127354 -0.014150  0.014150      2.000000
  0.014150  0.127354 -0.014150      2.000000
 -0.014150 -0.014150  0.127354      2.000000
  0.014150  0.127354  0.014150      2.000000
  0.014150 -0.014150  0.127354      2.000000
 -0.127354  0.014150  0.014150      2.000000
  0.014150  0.014150  0.127354      2.000000
  0.127354  0.014150 -0.014150      2.000000
  0.014150 -0.127354  0.014150      2.000000
  0.127354  0.014150  0.014150      2.000000
 -0.014150  0.127354  0.014150      2.000000
 -0.028301  0.028301  0.141505      2.000000
  0.141505 -0.028301  0.028301      2.000000
  0.028301  0.141505 -0.028301      2.000000
 -0.028301 -0.028301  0.141505      2.000000
  0.028301  0.141505  0.028301      2.000000
  0.028301 -0.028301  0.141505      2.000000
 -0.141505  0.028301  0.028301      2.000000
  0.028301  0.028301  0.141505      2.000000
  0.141505  0.028301 -0.028301      2.000000
  0.028301 -0.141505  0.028301      2.000000
  0.141505  0.028301  0.028301      2.000000
 -0.028301  0.141505  0.028301      2.000000
  0.141505 -0.141505 -0.028301      2.000000
 -0.028301  0.141505 -0.141505      2.000000
 -0.141505 -0.028301  0.141505      2.000000
 -0.042451 -0.042451  0.155655      2.000000
  0.042451 -0.212257  0.042451      2.000000
 -0.141505  0.141505 -0.028301      2.000000
 -0.155655  0.042451  0.042451      2.000000
  0.042451  0.042451 -0.212257      2.000000
 -0.028301 -0.141505  0.141505      2.000000
  0.042451 -0.155655  0.042451      2.000000
 -0.212257  0.042451  0.042451      2.000000
  0.141505 -0.028301 -0.141505      2.000000
  0.127354 -0.127354 -0.014150      2.000000
 -0.014150  0.127354 -0.127354      2.000000
 -0.127354 -0.014150  0.127354      2.000000
 -0.056602 -0.056602  0.169806      2.000000
  0.056602 -0.198107  0.056602      2.000000
 -0.127354  0.127354 -0.014150      2.000000
 -0.169806  0.056602  0.056602      2.000000
  0.056602  0.056602 -0.198107      2.000000
 -0.014150 -0.127354  0.127354      2.000000
  0.056602 -0.169806  0.056602      2.000000
 -0.198107  0.056602  0.056602      2.000000
  0.127354 -0.014150 -0.127354      2.000000
  0.113204 -0.113204  0.000000      2.000000
  0.000000  0.113204 -0.113204      2.000000
 -0.113204  0.000000  0.113204      2.000000
 -0.070752 -0.070752  0.183956      2.000000
  0.070752 -0.183956  0.070752      2.000000
 -0.183956  0.070752  0.070752      2.000000
  0.000000  0.000000  0.141505      2.000000
  0.141505  0.000000  0.000000      2.000000
  0.000000  0.141505  0.000000      2.000000
 -0.014150  0.014150  0.155655      2.000000
  0.155655 -0.014150  0.014150      2.000000
  0.014150  0.155655 -0.014150      2.000000
 -0.014150 -0.014150  0.155655      2.000000
  0.014150  0.155655  0.014150      2.000000
  0.014150 -0.014150  0.155655      2.000000
 -0.155655  0.014150  0.014150      2.000000
  0.014150  0.014150  0.155655      2.000000
  0.155655  0.014150 -0.014150      2.000000
  0.014150 -0.155655  0.014150      2.000000
  0.155655  0.014150  0.014150      2.000000
 -0.014150  0.155655  0.014150      2.000000
  0.155655 -0.155655 -0.014150      2.000000
 -0.014150  0.155655 -0.155655      2.000000
 -0.155655 -0.014150  0.155655      2.000000
 -0.028301 -0.028301  0.169806      2.000000
  0.028301 -0.198107  0.028301      2.000000
 -0.155655  0.155655 -0.014150      2.000000
 -0.169806  0.028301  0.028301      2.000000
  0.028301  0.028301 -0.198107      2.000000
 -0.014150 -0.155655  0.155655      2.000000
  0.028301 -0.169806  0.028301      2.000000
 -0.198107  0.028301  0.028301      2.000000
  0.155655 -0.014150 -0.155655      2.000000
  0.141505 -0.141505  0.000000      2.000000
  0.000000  0.141505 -0.141505      2.000000
 -0.141505  0.000000  0.141505      2.000000
 -0.042451 -0.042451  0.183956      2.000000
  0.042451 -0.183956  0.042451      2.000000
 -0.183956  0.042451  0.042451      2.000000
  0.000000  0.000000  0.169806      2.000000
  0.169806  0.000000  0.000000      2.000000
  0.000000  0.169806  0.000000      2.000000
  0.169806 -0.169806  0.000000      2.000000
  0.000000  0.169806 -0.169806      2.000000
 -0.169806  0.000000  0.169806      2.000000
 -0.014150 -0.014150  0.183956      2.000000
  0.014150 -0.183956  0.014150      2.000000
 -0.183956  0.014150  0.014150      2.000000
  0.000000  0.028301  0.056602      2.000000
  0.056602  0.000000  0.028301      2.000000
  0.028301  0.056602  0.000000      2.000000
 -0.028301  0.000000  0.056602      2.000000
  0.000000  0.056602  0.028301      2.000000
 -0.056602  0.028301  0.000000      2.000000
  0.000000 -0.028301  0.056602      2.000000
 -0.056602  0.000000  0.028301      2.000000
  0.028301  0.000000  0.056602      2.000000
  0.000000 -0.056602  0.028301      2.000000
  0.028301 -0.056602  0.000000      2.000000
  0.056602  0.028301  0.000000      2.000000
 -0.014150  0.042451  0.070752      2.000000
  0.070752 -0.014150  0.042451      2.000000
  0.042451  0.070752 -0.014150      2.000000
 -0.042451 -0.014150  0.070752      2.000000
  0.014150  0.070752  0.042451      2.000000
 -0.070752  0.042451 -0.014150      2.000000
  0.014150 -0.042451  0.070752      2.000000
 -0.070752  0.014150  0.042451      2.000000
 -0.042451 -0.070752 -0.014150      2.000000
  0.042451  0.014150  0.070752      2.000000
 -0.014150 -0.070752  0.042451      2.000000
  0.070752 -0.042451 -0.014150      2.000000
  0.070752  0.014150 -0.042451      2.000000
  0.042451 -0.070752  0.014150      2.000000
 -0.014150 -0.042451 -0.070752      2.000000
  0.070752  0.042451  0.014150      2.000000
  0.042451 -0.014150 -0.070752      2.000000
 -0.014150  0.070752 -0.042451      2.000000
 -0.042451  0.070752  0.014150      2.000000
  0.014150  0.042451 -0.070752      2.000000
 -0.070752 -0.014150 -0.042451      2.000000
  0.014150 -0.070752 -0.042451      2.000000
 -0.042451  0.014150 -0.070752      2.000000
 -0.070752 -0.042451  0.014150      2.000000
 -0.028301  0.056602  0.084903      2.000000
  0.084903 -0.028301  0.056602      2.000000
  0.056602  0.084903 -0.028301      2.000000
 -0.056602 -0.028301  0.084903      2.000000
  0.028301  0.084903  0.056602      2.000000
 -0.084903  0.056602 -0.028301      2.000000
  0.028301 -0.056602  0.084903      2.000000
 -0.084903  0.028301  0.056602      2.000000
 -0.056602 -0.084903 -0.028301      2.000000
  0.056602  0.028301  0.084903      2.000000
 -0.028301 -0.084903  0.056602      2.000000
  0.084903 -0.056602 -0.028301      2.000000
  0.084903  0.028301 -0.056602      2.000000
  0.056602 -0.084903  0.028301      2.000000
 -0.028301 -0.056602 -0.084903      2.000000
  0.084903  0.056602  0.028301      2.000000
  0.056602 -0.028301 -0.084903      2.000000
 -0.028301  0.084903 -0.056602      2.000000
 -0.056602  0.084903  0.028301      2.000000
  0.028301  0.056602 -0.084903      2.000000
 -0.084903 -0.028301 -0.056602      2.000000
  0.028301 -0.084903 -0.056602      2.000000
 -0.056602  0.028301 -0.084903      2.000000
 -0.084903 -0.056602  0.028301      2.000000
 -0.042451  0.070752  0.099053      2.000000
  0.099053 -0.042451  0.070752      2.000000
  0.070752  0.099053 -0.042451      2.000000
 -0.070752 -0.042451  0.099053      2.000000
  0.042451  0.099053  0.070752      2.000000
 -0.099053  0.070752 -0.042451      2.000000
  0.042451 -0.070752  0.099053      2.000000
 -0.099053  0.042451  0.070752      2.000000
 -0.070752 -0.099053 -0.042451      2.000000
  0.070752  0.042451  0.099053      2.000000
 -0.042451 -0.099053  0.070752      2.000000
  0.099053 -0.070752 -0.042451      2.000000
  0.099053  0.042451 -0.070752      2.000000
  0.070752 -0.099053  0.042451      2.000000
 -0.042451 -0.070752 -0.099053      2.000000
  0.099053  0.070752  0.042451      2.000000
  0.070752 -0.042451 -0.099053      2.000000
 -0.042451  0.099053 -0.070752      2.000000
 -0.070752  0.099053  0.042451      2.000000
  0.042451  0.070752 -0.099053      2.000000
 -0.099053 -0.042451 -0.070752      2.000000
  0.042451 -0.099053 -0.070752      2.000000
 -0.070752  0.042451 -0.099053      2.000000
 -0.099053 -0.070752  0.042451      2.000000
  0.127354 -0.099053 -0.070752      2.000000
 -0.070752  0.127354 -0.099053      2.000000
 -0.099053 -0.070752  0.127354      2.000000
 -0.084903 -0.056602  0.113204      2.000000
  0.240558 -0.070752 -0.099053      2.000000
 -0.113204  0.084903 -0.056602      2.000000
  0.056602 -0.084903  0.113204      2.000000
 -0.113204  0.056602  0.084903      2.000000
  0.099053  0.070752 -0.240558      2.000000
 -0.099053  0.240558 -0.070752      2.000000
 -0.056602 -0.113204  0.084903      2.000000
  0.113204 -0.084903 -0.056602      2.000000
[...]
      6       8.2872      0.00000
      7      12.1150      0.00000
      8      13.4836      0.00000

 k-point  1066 :       0.4615    0.1538   -0.3846
  band No.  band energies     occupation
      1      -2.4507      2.00000
      2      -1.4389      2.00000
      3       2.0575      2.00000
      4       2.3062      2.00000
      5       8.1031      0.00000
      6       8.2872      0.00000
      7      12.1150      0.00000
      8      13.4836      0.00000

 k-point  1067 :       0.4615    0.3077   -0.1538
  band No.  band energies     occupation
      1      -2.4507      2.00000
      2      -1.4389      2.00000
      3       2.0575      2.00000
      4       2.3062      2.00000
      5       8.1031      0.00000
      6       8.2872      0.00000
      7      12.1150      0.00000
      8      13.4836      0.00000

 k-point  1068 :      -0.3846    0.1538    0.4615
  band No.  band energies     occupation
      1      -2.4507      2.00000
      2      -1.4389      2.00000
      3       2.0575      2.00000
      4       2.3062      2.00000
      5       8.1031      0.00000
      6       8.2872      0.00000
      7      12.1150      0.00000
      8      13.4836      0.00000

 k-point  1069 :       0.1538   -0.4615   -0.3077
  band No.  band energies     occupation
      1      -2.4507      2.00000
      2      -1.4389      2.00000
      3       2.0575      2.00000
      4       2.3062      2.00000
      5       8.1031      0.00000
      6       8.2872      0.00000
      7      12.1150      0.00000
      8      13.4836      0.00000

 k-point  1070 :       0.3077    0.4615   -0.1538
  band No.  band energies     occupation
      1      -2.4507      2.00000
      2      -1.4389      2.00000
      3       2.0575      2.00000
      4       2.3062      2.00000
      5       8.1031      0.00000
      6       8.2872      0.00000
      7      12.1150      0.00000
      8      13.4836      0.00000

 k-point  1071 :       0.1538   -0.3077   -0.4615
  band No.  band energies     occupation
      1      -2.4507      2.00000
      2      -1.4389      2.00000
      3       2.0575      2.00000
      4       2.3062      2.00000
      5       8.1031      0.00000
      6       8.2872      0.00000
      7      12.1150      0.00000
      8      13.4836      0.00000

 k-point  1072 :       0.4615   -0.3846    0.1538
  band No.  band energies     occupation
      1      -2.4507      2.00000
      2      -1.4389      2.00000
      3       2.0575      2.00000
      4       2.3062      2.00000
      5       8.1031      0.00000
      6       8.2872      0.00000
      7      12.1150      0.00000
      8      13.4836      0.00000

 k-point  1073 :      -0.3077    0.1538   -0.4615
  band No.  band energies     occupation
      1      -2.4507      2.00000
      2      -1.4389      2.00000
      3       2.0575      2.00000
      4       2.3062      2.00000
      5       8.1031      0.00000
      6       8.2872      0.00000
      7      12.1150      0.00000
      8      13.4836      0.00000

 k-point  1074 :      -0.4615    0.1538   -0.3077
  band No.  band energies     occupation
      1      -2.4507      2.00000
      2      -1.4389      2.00000
      3       2.0575      2.00000
      4       2.3062      2.00000
      5       8.1031      0.00000
      6       8.2872      0.00000
      7      12.1150      0.00000
      8      13.4836      0.00000

 k-point  1075 :       0.1538    0.4615   -0.3846
  band No.  band energies     occupation
      1      -2.4507      2.00000
      2      -1.4389      2.00000
      3       2.0575      2.00000
      4       2.3062      2.00000
      5       8.1031      0.00000
      6       8.2872      0.00000
      7      12.1150      0.00000
      8      13.4836      0.00000

 k-point  1076 :      -0.3077    0.4615    0.1538
  band No.  band energies     occupation
      1      -2.1662      2.00000
      2      -1.6710      2.00000
      3       1.6646      2.00000
      4       2.3532      2.00000
      5       8.3835      0.00000
      6       9.5690      0.00000
      7      11.7525      0.00000
      8      11.9004      0.00000

 k-point  1077 :       0.1538   -0.3077    0.4615
  band No.  band energies     occupation
      1      -2.1662      2.00000
      2      -1.6710      2.00000
      3       1.6646      2.00000
      4       2.3532      2.00000
      5       8.3835      0.00000
      6       9.5690      0.00000
      7      11.7525      0.00000
      8      11.9004      0.00000

 k-point  1078 :       0.4615    0.1538   -0.3077
  band No.  band energies     occupation
      1      -2.1662      2.00000
      2      -1.6710      2.00000
      3       1.6646      2.00000
      4       2.3532      2.00000
      5       8.3835      0.00000
      6       9.5690      0.00000
      7      11.7525      0.00000
      8      11.9004      0.00000

 k-point  1079 :       0.4615    0.3077   -0.2308
  band No.  band energies     occupation
      1      -2.1662      2.00000
      2      -1.6710      2.00000
      3       1.6646      2.00000
      4       2.3532      2.00000
      5       8.3835      0.00000
      6       9.5690      0.00000
      7      11.7525      0.00000
      8      11.9004      0.00000

 k-point  1080 :      -0.3077    0.2308   -0.4615
  band No.  band energies     occupation
      1      -2.1662      2.00000
      2      -1.6710      2.00000
      3       1.6646      2.00000
      4       2.3532      2.00000
      5       8.3835      0.00000
      6       9.5690      0.00000
      7      11.7525      0.00000
      8      11.9004      0.00000

 k-point  1081 :       0.1538    0.4615   -0.3077
  band No.  band energies     occupation
      1      -2.1662      2.00000
      2      -1.6710      2.00000
      3       1.6646      2.00000
      4       2.3532      2.00000
      5       8.3835      0.00000
      6       9.5690      0.00000
      7      11.7525      0.00000
      8      11.9004      0.00000

 k-point  1082 :       0.2308   -0.3077   -0.4615
  band No.  band energies     occupation
      1      -2.1662      2.00000
      2      -1.6710      2.00000
      3       1.6646      2.00000
      4       2.3532      2.00000
      5       8.3835      0.00000
      6       9.5690      0.00000
      7      11.7525      0.00000
      8      11.9004      0.00000

 k-point  1083 :       0.4615   -0.2308    0.3077
  band No.  band energies     occupation
      1      -2.1662      2.00000
      2      -1.6710      2.00000
      3       1.6646      2.00000
      4       2.3532      2.00000
      5       8.3835      0.00000
      6       9.5690      0.00000
      7      11.7525      0.00000
      8      11.9004      0.00000

 k-point  1084 :      -0.3077    0.1538    0.4615
  band No.  band energies     occupation
      1      -2.1662      2.00000
      2      -1.6710      2.00000
      3       1.6646      2.00000
      4       2.3532      2.00000
      5       8.3835      0.00000
      6       9.5690      0.00000
      7      11.7525      0.00000
      8      11.9004      0.00000

 k-point  1085 :      -0.2308    0.4615    0.3077
  band No.  band energies     occupation
      1      -2.1662      2.00000
      2      -1.6710      2.00000
      3       1.6646      2.00000
      4       2.3532      2.00000
      5       8.3835      0.00000
      6       9.5690      0.00000
      7      11.7525      0.00000
      8      11.9004      0.00000

 k-point  1086 :       0.3077    0.4615   -0.2308
  band No.  band energies     occupation
      1      -2.1662      2.00000
      2      -1.6710      2.00000
      3       1.6646      2.00000
      4       2.3532      2.00000
      5       8.3835      0.00000
      6       9.5690      0.00000
      7      11.7525      0.00000
      8      11.9004      0.00000

 k-point  1087 :       0.4615   -0.3077    0.1538
  band No.  band energies     occupation
      1      -2.1662      2.00000
      2      -1.6710      2.00000
      3       1.6646      2.00000
      4       2.3532      2.00000
      5       8.3835      0.00000
      6       9.5690      0.00000
      7      11.7525      0.00000
      8      11.9004      0.00000

 k-point  1088 :      -0.3077    0.4615    0.2308
  band No.  band energies     occupation
      1      -2.2862      2.00000
      2      -1.5112      2.00000
      3       1.6856      2.00000
      4       2.1624      2.00000
      5       9.6925      0.00000
      6       9.7117      0.00000
      7      10.4299      0.00000
      8      11.5546      0.00000

 k-point  1089 :       0.2308   -0.3077    0.4615
  band No.  band energies     occupation
      1      -2.2862      2.00000
      2      -1.5112      2.00000
      3       1.6856      2.00000
      4       2.1624      2.00000
      5       9.6925      0.00000
      6       9.7117      0.00000
      7      10.4299      0.00000
      8      11.5546      0.00000

 k-point  1090 :       0.4615    0.2308   -0.3077
  band No.  band energies     occupation
      1      -2.2862      2.00000
      2      -1.5112      2.00000
      3       1.6856      2.00000
      4       2.1624      2.00000
      5       9.6925      0.00000
      6       9.7117      0.00000
      7      10.4299      0.00000
      8      11.5546      0.00000

 k-point  1091 :       0.4615    0.2308   -0.2308
  band No.  band energies     occupation
      1      -2.2862      2.00000
      2      -1.5112      2.00000
      3       1.6856      2.00000
      4       2.1624      2.00000
      5       9.6925      0.00000
      6       9.7117      0.00000
      7      10.4299      0.00000
      8      11.5546      0.00000

 k-point  1092 :      -0.3077    0.2308    0.4615
  band No.  band energies     occupation
      1      -2.2862      2.00000
      2      -1.5112      2.00000
      3       1.6856      2.00000
      4       2.1624      2.00000
      5       9.6925      0.00000
      6       9.7117      0.00000
      7      10.4299      0.00000
      8      11.5546      0.00000

 k-point  1093 :       0.2308   -0.4615   -0.2308
  band No.  band energies     occupation
      1      -2.2862      2.00000
      2      -1.5112      2.00000
      3       1.6856      2.00000
      4       2.1624      2.00000
      5       9.6925      0.00000
      6       9.7117      0.00000
      7      10.4299      0.00000
      8      11.5546      0.00000

 k-point  1094 :       0.2308    0.4615   -0.2308
  band No.  band energies     occupation
      1      -2.2862      2.00000
      2      -1.5112      2.00000
      3       1.6856      2.00000
      4       2.1624      2.00000
      5       9.6925      0.00000
      6       9.7117      0.00000
      7      10.4299      0.00000
      8      11.5546      0.00000

 k-point  1095 :       0.2308   -0.2308   -0.4615
  band No.  band energies     occupation
      1      -2.2862      2.00000
      2      -1.5112      2.00000
      3       1.6856      2.00000
      4       2.1624      2.00000
      5       9.6925      0.00000
      6       9.7117      0.00000
      7      10.4299      0.00000
      8      11.5546      0.00000

 k-point  1096 :       0.4615   -0.3077    0.2308
  band No.  band energies     occupation
      1      -2.2862      2.00000
      2      -1.5112      2.00000
      3       1.6856      2.00000
      4       2.1624      2.00000
      5       9.6925      0.00000
      6       9.7117      0.00000
      7      10.4299      0.00000
      8      11.5546      0.00000

 k-point  1097 :      -0.2308    0.2308   -0.4615
  band No.  band energies     occupation
      1      -2.2862      2.00000
      2      -1.5112      2.00000
      3       1.6856      2.00000
      4       2.1624      2.00000
      5       9.6925      0.00000
      6       9.7117      0.00000
      7      10.4299      0.00000
      8      11.5546      0.00000

 k-point  1098 :      -0.4615    0.2308   -0.2308
  band No.  band energies     occupation
      1      -2.2862      2.00000
      2      -1.5112      2.00000
      3       1.6856      2.00000
      4       2.1624      2.00000
      5       9.6925      0.00000
      6       9.7117      0.00000
      7      10.4299      0.00000
      8      11.5546      0.00000

 k-point  1099 :       0.2308    0.4615   -0.3077
  band No.  band energies     occupation
      1      -2.2862      2.00000
      2      -1.5112      2.00000
      3       1.6856      2.00000
      4       2.1624      2.00000
      5       9.6925      0.00000
      6       9.7117      0.00000
      7      10.4299      0.00000
      8      11.5546      0.00000


--------------------------------------------------------------------------------------------------------


 soft charge-density along one line, spin component           1
         0         1         2         3         4         5         6         7         8         9
 total charge-density along one line

 pseudopotential strength for first ion, spin component:           1
 18.405  25.677  -0.000  -0.000  -0.000  -0.000  -0.000  -0.000
 25.677  35.826  -0.000  -0.000  -0.000  -0.000  -0.000  -0.000
 -0.000  -0.000   4.177   0.000   0.000   7.782   0.000   0.000
 -0.000  -0.000   0.000   4.177   0.000   0.000   7.782   0.000
 -0.000  -0.000   0.000   0.000   4.177   0.000   0.000   7.782
 -0.000  -0.000   7.782   0.000   0.000  14.509   0.000   0.000
 -0.000  -0.000   0.000   7.782   0.000   0.000  14.509   0.000
 -0.000  -0.000   0.000   0.000   7.782   0.000   0.000  14.509
 total augmentation occupancy for first ion, spin component:           1
  2.000   0.000   0.000   0.000   0.000   0.000   0.000   0.000
  0.000   0.000   0.000   0.000   0.000   0.000   0.000   0.000
  0.000   0.000   0.667   0.000   0.000   0.000   0.000   0.000
  0.000   0.000   0.000   0.667   0.000   0.000   0.000   0.000
  0.000   0.000   0.000   0.000   0.667   0.000   0.000   0.000
  0.000   0.000   0.000   0.000   0.000   0.000   0.000   0.000
  0.000   0.000   0.000   0.000   0.000   0.000   0.000   0.000
  0.000   0.000   0.000   0.000   0.000   0.000   0.000   0.000


------------------------ aborting loop because EDIFF is reached ----------------------------------------





 total charge

# of ion       s       p       d       tot
------------------------------------------
    1        0.752   0.936   0.000   1.689
    2        0.752   0.936   0.000   1.689
--------------------------------------------------
tot          1.505   1.873   0.000   3.377

    CHARGE:  cpu time      0.2221: real time      0.2222
    FORLOC:  cpu time      0.0003: real time      0.0003
    FORNL :  cpu time      0.1331: real time      0.1333
    STRESS:  cpu time      1.1685: real time      1.1687
    FORCOR:  cpu time      0.0092: real time      0.0092
    FORHAR:  cpu time      0.0026: real time      0.0026
    OFIELD:  cpu time      0.0000: real time      0.0000

  FORCE on cell =-STRESS in cart. coord.  units (eV):
  Direction    XX          YY          ZZ          XY          YZ          ZX
  --------------------------------------------------------------------------------------
  Alpha Z     3.35289     3.35289     3.35289
  Ewald     -76.10281   -76.10281   -76.10281     0.00000     0.00000     0.00000
  Hartree     4.87938     4.87938     4.87938    -0.00000     0.00000    -0.00000
  E(xc)     -25.53393   -25.53393   -25.53393     0.00000     0.00000    -0.00000
  Local     -29.06440   -29.06440   -29.06440     0.00000     0.00000     0.00000
  n-local    77.55714    77.55714    77.55714    -0.00000    -0.00000     0.00000
  augment   -11.51619   -11.51619   -11.51619    -0.00000    -0.00000    -0.00000
  Kinetic    56.41723    56.41723    56.41723     0.00000    -0.00000     0.00000
  Fock        0.00000     0.00000     0.00000     0.00000     0.00000     0.00000
  -------------------------------------------------------------------------------------
  Total      -0.01069    -0.01069    -0.01069     0.00000     0.00000     0.00000
  in kB      -0.42633    -0.42632    -0.42632     0.00001     0.00000     0.00000
  external pressure =       -0.43 kB  Pullay stress =        0.00 kB


 VOLUME and BASIS-vectors are now :
 -----------------------------------------------------------------------------
  energy-cutoff  :      680.00
  volume of cell :       40.16
      direct lattice vectors                 reciprocal lattice vectors
    -0.000000000  2.718034660  2.718034660    -0.183956447  0.183956447  0.183956447
     2.718034660 -0.000000000  2.718034660     0.183956447 -0.183956447  0.183956447
     2.718034660  2.718034660 -0.000000000     0.183956447  0.183956447 -0.183956447

  length of vectors
     3.843881479  3.843881479  3.843881479     0.318621913  0.318621913  0.318621913


 FORCES acting on ions
    electron-ion (+dipol)            ewald-force                    non-local-force                 convergence-correction
 -----------------------------------------------------------------------------------------------
   0.300E-06 0.133E-07 -.805E-07   0.738E-15 0.422E-14 -.183E-13   -.307E-06 -.384E-07 -.103E-07   -.832E-08 0.646E-09 0.255E-07
   -.117E-07 0.764E-09 0.323E-06   -.834E-15 -.366E-14 0.182E-13   -.125E-07 0.395E-08 -.190E-06   0.384E-08 0.765E-09 -.394E-07
 -----------------------------------------------------------------------------------------------
   0.288E-06 0.141E-07 0.242E-06   -.960E-16 0.562E-15 -.821E-16   -.320E-06 -.345E-07 -.200E-06   -.449E-08 0.141E-08 -.139E-07


 POSITION                                       TOTAL-FORCE (eV/Angst)
 -----------------------------------------------------------------------------------
      0.00000      0.00000      0.00000         0.000000     -0.000000     -0.000000
      1.35902      1.35902      1.35902        -0.000000      0.000000      0.000000
 -----------------------------------------------------------------------------------
    total drift:                               -0.000000     -0.000000      0.000000


--------------------------------------------------------------------------------------------------------



  FREE ENERGIE OF THE ION-ELECTRON SYSTEM (eV)
  ---------------------------------------------------
  free  energy   TOTEN  =       -11.49332750 eV

  energy  without entropy=      -11.49332750  energy(sigma->0) =      -11.49332750



--------------------------------------------------------------------------------------------------------


    POTLOK:  cpu time      0.1205: real time      0.1205


--------------------------------------------------------------------------------------------------------


 writing wavefunctions
     LOOP+:  cpu time     46.4454: real time     46.6242
    4ORBIT:  cpu time      0.0000: real time      0.0000



 total charge

# of ion       s       p       d       tot
------------------------------------------
    1        0.752   0.936   0.000   1.689
    2        0.752   0.936   0.000   1.689
--------------------------------------------------
tot          1.505   1.873   0.000   3.377

 BZINTS: Fermi energy:    5.761763;    8.000000 electrons
         Band energy: 0.546285E+01;  BLOECHL correction:    0.000000

 total amount of memory used by VASP MPI-rank0    40205. kBytes
=======================================================================

   base      :      30000. kBytes
   nonl-proj :       6192. kBytes
   fftplans  :        276. kBytes
   grid      :        358. kBytes
   one-center:          3. kBytes
   wavefun   :       3376. kBytes



 General timing and accounting informations for this job:
 ========================================================

                  Total CPU time used (sec):       59.851
                            User time (sec):       58.597
                          System time (sec):        1.254
                         Elapsed time (sec):       60.404

                   Maximum memory used (kb):      198928.
                   Average memory used (kb):          N/A

                          Minor page faults:        45873
                          Major page faults:            0
                 Voluntary context switches:         1711
