<?xml version="1.0" encoding="ISO-8859-1"?>
<modeling>
 <generator>
  <i name="program" type="string">vasp </i>
  <i name="version" type="string">6.3.1  </i>
  <i name="subversion" type="string">04May22 (build May  6 2022 16:02:18) complex                          parallel </i>
  <i name="platform" type="string">LinuxGNU </i>
  <i name="date" type="string">2023 03 22 </i>
  <i name="time" type="string">13:00:50 </i>
 </generator>
 <incar>
  <i type="string" name="PREC">Accurate</i>
  <i type="string" name="ALGO">Normal</i>
  <i type="int" name="ISPIN">     1</i>
  <i type="int" name="ICHARG">    11</i>
  <i type="int" name="NELM">   200</i>
  <i name="EDIFF">      0.00000010</i>
  <i type="int" name="NSW">     0</i>
  <i type="int" name="ISYM">     0</i>
  <i name="ENCUT">    680.00000000</i>
  <i name="ENAUG">   1360.00000000</i>
  <i type="int" name="NBANDS">     8</i>
  <i type="int" name="NEDOS">  1100</i>
  <i type="logical" name="LREAL"> F  </i>
  <i type="int" name="ISMEAR">    -5</i>
  <i name="SIGMA">      0.05000000</i>
  <i type="logical" name="LWAVE"> T  </i>
  <i type="logical" name="LCHARG"> F  </i>
  <i type="logical" name="LVTOT"> F  </i>
  <i type="int" name="LORBIT">    11</i>
  <i type="logical" name="LELF"> F  </i>
  <i type="logical" name="LASPH"> T  </i>
  <i type="logical" name="LAECHG"> F  </i>
  <i type="string" name="GGA">Ps</i>
  <i type="logical" name="LMIXTAU"> T  </i>
 </incar>
 <primitive_cell>
  <structure name="primitive_cell" >
   <crystal>
    <varray name="basis" >
     <v>      -0.00000000       2.71803466       2.71803466 </v>
     <v>       2.71803466      -0.00000000       2.71803466 </v>
     <v>       2.71803466       2.71803466      -0.00000000 </v>
    </varray>
    <i name="volume">     40.16011677 </i>
    <varray name="rec_basis" >
     <v>      -0.18395645       0.18395645       0.18395645 </v>
     <v>       0.18395645      -0.18395645       0.18395645 </v>
     <v>       0.18395645       0.18395645      -0.18395645 </v>
    </varray>
   </crystal>
   <varray name="positions" >
    <v>       0.00000000       0.00000000       0.00000000 </v>
    <v>       0.25000000       0.25000000       0.25000000 </v>
   </varray>
  </structure>
  <varray name="primitive_index" >
   <v type="int" >        1 </v>
   <v type="int" >        2 </v>
  </varray>
 </primitive_cell>
 <kpoints>
  <generation param="Gamma">
   <v type="int" name="divisions">      13       13       13 </v>
   <v name="usershift">      0.00000000       0.00000000       0.00000000 </v>
   <v name="genvec1">      0.07692308       0.00000000      -0.00000000 </v>
   <v name="genvec2">      0.00000000       0.07692308       0.00000000 </v>
   <v name="genvec3">     -0.00000000      -0.00000000       0.07692308 </v>
   <v name="shift">      0.00000000       0.00000000       0.00000000 </v>
  </generation>
  <varray name="kpointlist" >
   <v>       0.00000000       0.00000000       0.00000000 </v>
   <v>       0.07692308       0.00000000       0.00000000 </v>
   <v>       0.00000000       0.07692308       0.00000000 </v>
   <v>       0.00000000       0.00000000       0.07692308 </v>
   <v>       0.07692308       0.07692308       0.07692308 </v>
   <v>       0.15384615       0.00000000       0.00000000 </v>
   <v>       0.00000000       0.15384615       0.00000000 </v>
   <v>       0.00000000       0.00000000       0.15384615 </v>
   <v>       0.15384615       0.15384615       0.15384615 </v>
   <v>       0.23076923       0.00000000       0.00000000 </v>
   <v>       0.00000000       0.23076923       0.00000000 </v>
   <v>       0.00000000       0.00000000       0.23076923 </v>
   <v>       0.23076923       0.23076923       0.23076923 </v>
   <v>       0.30769231       0.00000000       0.00000000 </v>
   <v>       0.00000000       0.30769231       0.00000000 </v>
   <v>       0.00000000       0.00000000       0.30769231 </v>
   <v>       0.30769231       0.30769231       0.30769231 </v>
   <v>       0.38461538       0.00000000       0.00000000 </v>
   <v>       0.00000000       0.38461538       0.00000000 </v>
   <v>       0.00000000       0.00000000       0.38461538 </v>
   <v>       0.38461538       0.38461538       0.38461538 </v>
   <v>       0.46153846       0.00000000       0.00000000 </v>
   <v>       0.00000000       0.46153846       0.00000000 </v>
   <v>       0.00000000       0.00000000       0.46153846 </v>
   <v>       0.46153846       0.46153846       0.46153846 </v>
   <v>       0.07692308       0.07692308       0.00000000 </v>
   <v>       0.00000000       0.07692308       0.07692308 </v>
   <v>       0.07692308       0.00000000       0.07692308 </v>
   <v>       0.15384615       0.07692308       0.00000000 </v>
   <v>       0.00000000       0.15384615       0.07692308 </v>
   <v>       0.07692308       0.00000000       0.15384615 </v>
   <v>       0.07692308       0.07692308      -0.07692308 </v>
   <v>       0.15384615       0.07692308       0.15384615 </v>
   <v>       0.07692308       0.15384615       0.00000000 </v>
   <v>       0.07692308      -0.07692308      -0.07692308 </v>
   <v>       0.15384615       0.15384615       0.07692308 </v>
   <v>       0.00000000       0.07692308       0.15384615 </v>
   <v>      -0.07692308       0.07692308      -0.07692308 </v>
   <v>       0.07692308       0.15384615       0.15384615 </v>
   <v>       0.15384615       0.00000000       0.07692308 </v>
   <v>       0.23076923       0.07692308       0.00000000 </v>
   <v>       0.00000000       0.23076923       0.07692308 </v>
   <v>       0.07692308       0.00000000       0.23076923 </v>
   <v>       0.07692308       0.07692308      -0.15384615 </v>
   <v>       0.23076923       0.15384615       0.23076923 </v>
   <v>       0.07692308       0.23076923       0.00000000 </v>
   <v>       0.15384615      -0.07692308      -0.07692308 </v>
   <v>       0.23076923       0.23076923       0.15384615 </v>
   <v>       0.00000000       0.07692308       0.23076923 </v>
   <v>      -0.07692308       0.15384615      -0.07692308 </v>
   <v>       0.15384615       0.23076923       0.23076923 </v>
   <v>       0.23076923       0.00000000       0.07692308 </v>
   <v>       0.30769231       0.07692308       0.00000000 </v>
   <v>       0.00000000       0.30769231       0.07692308 </v>
   <v>       0.07692308       0.00000000       0.30769231 </v>
   <v>       0.07692308       0.07692308      -0.23076923 </v>
   <v>       0.30769231       0.23076923       0.30769231 </v>
   <v>       0.07692308       0.30769231       0.00000000 </v>
   <v>       0.23076923      -0.07692308      -0.07692308 </v>
   <v>       0.30769231       0.30769231       0.23076923 </v>
   <v>       0.00000000       0.07692308       0.30769231 </v>
   <v>      -0.07692308       0.23076923      -0.07692308 </v>
   <v>       0.23076923       0.30769231       0.30769231 </v>
   <v>       0.30769231       0.00000000       0.07692308 </v>
   <v>       0.38461538       0.07692308       0.00000000 </v>
   <v>       0.00000000       0.38461538       0.07692308 </v>
   <v>       0.07692308       0.00000000       0.38461538 </v>
   <v>       0.07692308       0.07692308      -0.30769231 </v>
   <v>       0.38461538       0.30769231       0.38461538 </v>
   <v>       0.07692308       0.38461538       0.00000000 </v>
   <v>       0.30769231      -0.07692308      -0.07692308 </v>
   <v>       0.38461538       0.38461538       0.30769231 </v>
   <v>       0.00000000       0.07692308       0.38461538 </v>
   <v>      -0.07692308       0.30769231      -0.07692308 </v>
   <v>       0.30769231       0.38461538       0.38461538 </v>
   <v>       0.38461538       0.00000000       0.07692308 </v>
   <v>       0.46153846       0.07692308       0.00000000 </v>
   <v>       0.00000000       0.46153846       0.07692308 </v>
   <v>       0.07692308       0.00000000       0.46153846 </v>
   <v>       0.07692308       0.07692308      -0.38461538 </v>
   <v>       0.46153846       0.38461538       0.46153846 </v>
   <v>       0.07692308       0.46153846       0.00000000 </v>
   <v>       0.38461538      -0.07692308      -0.07692308 </v>
   <v>       0.46153846       0.46153846       0.38461538 </v>
   <v>       0.00000000       0.07692308       0.46153846 </v>
   <v>      -0.07692308       0.38461538      -0.07692308 </v>
   <v>       0.38461538       0.46153846       0.46153846 </v>
   <v>       0.46153846       0.00000000       0.07692308 </v>
   <v>      -0.46153846       0.07692308       0.00000000 </v>
   <v>       0.00000000      -0.46153846       0.07692308 </v>
   <v>       0.07692308       0.00000000      -0.46153846 </v>
   <v>       0.07692308       0.07692308      -0.46153846 </v>
   <v>      -0.46153846       0.46153846      -0.46153846 </v>
   <v>       0.07692308      -0.46153846       0.00000000 </v>
   <v>       0.46153846      -0.07692308      -0.07692308 </v>
   <v>      -0.46153846      -0.46153846       0.46153846 </v>
   <v>       0.00000000       0.07692308      -0.46153846 </v>
   <v>      -0.07692308       0.46153846      -0.07692308 </v>
   <v>       0.46153846      -0.46153846      -0.46153846 </v>
   <v>      -0.46153846       0.00000000       0.07692308 </v>
   <v>      -0.38461538       0.07692308       0.00000000 </v>
   <v>       0.00000000      -0.38461538       0.07692308 </v>
   <v>       0.07692308       0.00000000      -0.38461538 </v>
   <v>       0.07692308       0.07692308       0.46153846 </v>
   <v>      -0.38461538      -0.46153846      -0.38461538 </v>
   <v>       0.07692308      -0.38461538       0.00000000 </v>
   <v>      -0.46153846      -0.07692308      -0.07692308 </v>
   <v>      -0.38461538      -0.38461538      -0.46153846 </v>
   <v>       0.00000000       0.07692308      -0.38461538 </v>
   <v>      -0.07692308      -0.46153846      -0.07692308 </v>
   <v>      -0.46153846      -0.38461538      -0.38461538 </v>
   <v>      -0.38461538       0.00000000       0.07692308 </v>
   <v>      -0.30769231       0.07692308       0.00000000 </v>
   <v>       0.00000000      -0.30769231       0.07692308 </v>
   <v>       0.07692308       0.00000000      -0.30769231 </v>
   <v>       0.07692308       0.07692308       0.38461538 </v>
   <v>      -0.30769231      -0.38461538      -0.30769231 </v>
   <v>       0.07692308      -0.30769231       0.00000000 </v>
   <v>      -0.38461538      -0.07692308      -0.07692308 </v>
   <v>      -0.30769231      -0.30769231      -0.38461538 </v>
   <v>       0.00000000       0.07692308      -0.30769231 </v>
   <v>      -0.07692308      -0.38461538      -0.07692308 </v>
   <v>      -0.38461538      -0.30769231      -0.30769231 </v>
   <v>      -0.30769231       0.00000000       0.07692308 </v>
   <v>      -0.23076923       0.07692308       0.00000000 </v>
   <v>       0.00000000      -0.23076923       0.07692308 </v>
   <v>       0.07692308       0.00000000      -0.23076923 </v>
   <v>       0.07692308       0.07692308       0.30769231 </v>
   <v>      -0.23076923      -0.30769231      -0.23076923 </v>
   <v>       0.07692308      -0.23076923       0.00000000 </v>
   <v>      -0.30769231      -0.07692308      -0.07692308 </v>
   <v>      -0.23076923      -0.23076923      -0.30769231 </v>
   <v>       0.00000000       0.07692308      -0.23076923 </v>
   <v>      -0.07692308      -0.30769231      -0.07692308 </v>
   <v>      -0.30769231      -0.23076923      -0.23076923 </v>
   <v>      -0.23076923       0.00000000       0.07692308 </v>
   <v>      -0.15384615       0.07692308       0.00000000 </v>
   <v>       0.00000000      -0.15384615       0.07692308 </v>
   <v>       0.07692308       0.00000000      -0.15384615 </v>
   <v>       0.07692308       0.07692308       0.23076923 </v>
   <v>      -0.15384615      -0.23076923      -0.15384615 </v>
   <v>       0.07692308      -0.15384615       0.00000000 </v>
   <v>      -0.23076923      -0.07692308      -0.07692308 </v>
   <v>      -0.15384615      -0.15384615      -0.23076923 </v>
   <v>       0.00000000       0.07692308      -0.15384615 </v>
   <v>      -0.07692308      -0.23076923      -0.07692308 </v>
   <v>      -0.23076923      -0.15384615      -0.15384615 </v>
   <v>      -0.15384615       0.00000000       0.07692308 </v>
   <v>      -0.07692308       0.07692308       0.00000000 </v>
   <v>       0.00000000      -0.07692308       0.07692308 </v>
   <v>       0.07692308       0.00000000      -0.07692308 </v>
   <v>       0.07692308       0.07692308       0.15384615 </v>
   <v>      -0.07692308      -0.15384615      -0.07692308 </v>
   <v>      -0.15384615      -0.07692308      -0.07692308 </v>
   <v>       0.15384615       0.15384615       0.00000000 </v>
   <v>       0.00000000       0.15384615       0.15384615 </v>
   <v>       0.15384615       0.00000000       0.15384615 </v>
   <v>       0.23076923       0.15384615       0.00000000 </v>
   <v>       0.00000000       0.23076923       0.15384615 </v>
   <v>       0.15384615       0.00000000       0.23076923 </v>
   <v>       0.15384615       0.15384615      -0.07692308 </v>
   <v>       0.23076923       0.07692308       0.23076923 </v>
   <v>       0.15384615       0.23076923       0.00000000 </v>
   <v>       0.07692308      -0.15384615      -0.15384615 </v>
   <v>       0.23076923       0.23076923       0.07692308 </v>
   <v>       0.00000000       0.15384615       0.23076923 </v>
   <v>      -0.15384615       0.07692308      -0.15384615 </v>
   <v>       0.07692308       0.23076923       0.23076923 </v>
   <v>       0.23076923       0.00000000       0.15384615 </v>
   <v>       0.30769231       0.15384615       0.00000000 </v>
   <v>       0.00000000       0.30769231       0.15384615 </v>
   <v>       0.15384615       0.00000000       0.30769231 </v>
   <v>       0.15384615       0.15384615      -0.15384615 </v>
   <v>       0.30769231       0.15384615       0.30769231 </v>
   <v>       0.15384615       0.30769231       0.00000000 </v>
   <v>       0.15384615      -0.15384615      -0.15384615 </v>
   <v>       0.30769231       0.30769231       0.15384615 </v>
   <v>       0.00000000       0.15384615       0.30769231 </v>
   <v>      -0.15384615       0.15384615      -0.15384615 </v>
   <v>       0.15384615       0.30769231       0.30769231 </v>
   <v>       0.30769231       0.00000000       0.15384615 </v>
   <v>       0.38461538       0.15384615       0.00000000 </v>
   <v>       0.00000000       0.38461538       0.15384615 </v>
   <v>       0.15384615       0.00000000       0.38461538 </v>
   <v>       0.15384615       0.15384615      -0.23076923 </v>
   <v>       0.38461538       0.23076923       0.38461538 </v>
   <v>       0.15384615       0.38461538       0.00000000 </v>
   <v>       0.23076923      -0.15384615      -0.15384615 </v>
   <v>       0.38461538       0.38461538       0.23076923 </v>
   <v>       0.00000000       0.15384615       0.38461538 </v>
   <v>      -0.15384615       0.23076923      -0.15384615 </v>
   <v>       0.23076923       0.38461538       0.38461538 </v>
   <v>       0.38461538       0.00000000       0.15384615 </v>
   <v>       0.46153846       0.15384615       0.00000000 </v>
   <v>       0.00000000       0.46153846       0.15384615 </v>
   <v>       0.15384615       0.00000000       0.46153846 </v>
   <v>       0.15384615       0.15384615      -0.30769231 </v>
   <v>       0.46153846       0.30769231       0.46153846 </v>
   <v>       0.15384615       0.46153846       0.00000000 </v>
   <v>       0.30769231      -0.15384615      -0.15384615 </v>
   <v>       0.46153846       0.46153846       0.30769231 </v>
   <v>       0.00000000       0.15384615       0.46153846 </v>
   <v>      -0.15384615       0.30769231      -0.15384615 </v>
   <v>       0.30769231       0.46153846       0.46153846 </v>
   <v>       0.46153846       0.00000000       0.15384615 </v>
   <v>      -0.46153846       0.15384615       0.00000000 </v>
   <v>       0.00000000      -0.46153846       0.15384615 </v>
   <v>       0.15384615       0.00000000      -0.46153846 </v>
   <v>       0.15384615       0.15384615      -0.38461538 </v>
   <v>      -0.46153846       0.38461538      -0.46153846 </v>
   <v>       0.15384615      -0.46153846       0.00000000 </v>
   <v>       0.38461538      -0.15384615      -0.15384615 </v>
   <v>      -0.46153846      -0.46153846       0.38461538 </v>
   <v>       0.00000000       0.15384615      -0.46153846 </v>
   <v>      -0.15384615       0.38461538      -0.15384615 </v>
   <v>       0.38461538      -0.46153846      -0.46153846 </v>
   <v>      -0.46153846       0.00000000       0.15384615 </v>
   <v>      -0.38461538       0.15384615       0.00000000 </v>
   <v>       0.00000000      -0.38461538       0.15384615 </v>
   <v>       0.15384615       0.00000000      -0.38461538 </v>
   <v>       0.15384615       0.15384615      -0.46153846 </v>
   <v>      -0.38461538       0.46153846      -0.38461538 </v>
   <v>       0.15384615      -0.38461538       0.00000000 </v>
   <v>       0.46153846      -0.15384615      -0.15384615 </v>
   <v>      -0.38461538      -0.38461538       0.46153846 </v>
   <v>       0.00000000       0.15384615      -0.38461538 </v>
   <v>      -0.15384615       0.46153846      -0.15384615 </v>
   <v>       0.46153846      -0.38461538      -0.38461538 </v>
   <v>      -0.38461538       0.00000000       0.15384615 </v>
   <v>      -0.30769231       0.15384615       0.00000000 </v>
   <v>       0.00000000      -0.30769231       0.15384615 </v>
   <v>       0.15384615       0.00000000      -0.30769231 </v>
   <v>       0.15384615       0.15384615       0.46153846 </v>
   <v>      -0.30769231      -0.46153846      -0.30769231 </v>
   <v>       0.15384615      -0.30769231       0.00000000 </v>
   <v>      -0.46153846      -0.15384615      -0.15384615 </v>
   <v>      -0.30769231      -0.30769231      -0.46153846 </v>
   <v>       0.00000000       0.15384615      -0.30769231 </v>
   <v>      -0.15384615      -0.46153846      -0.15384615 </v>
   <v>      -0.46153846      -0.30769231      -0.30769231 </v>
   <v>      -0.30769231       0.00000000       0.15384615 </v>
   <v>      -0.23076923       0.15384615       0.00000000 </v>
   <v>       0.00000000      -0.23076923       0.15384615 </v>
   <v>       0.15384615       0.00000000      -0.23076923 </v>
   <v>       0.15384615       0.15384615       0.38461538 </v>
   <v>      -0.23076923      -0.38461538      -0.23076923 </v>
   <v>       0.15384615      -0.23076923       0.00000000 </v>
   <v>      -0.38461538      -0.15384615      -0.15384615 </v>
   <v>      -0.23076923      -0.23076923      -0.38461538 </v>
   <v>       0.00000000       0.15384615      -0.23076923 </v>
   <v>      -0.15384615      -0.38461538      -0.15384615 </v>
   <v>      -0.38461538      -0.23076923      -0.23076923 </v>
   <v>      -0.23076923       0.00000000       0.15384615 </v>
   <v>      -0.15384615       0.15384615       0.00000000 </v>
   <v>       0.00000000      -0.15384615       0.15384615 </v>
   <v>       0.15384615       0.00000000      -0.15384615 </v>
   <v>       0.15384615       0.15384615       0.30769231 </v>
   <v>      -0.15384615      -0.30769231      -0.15384615 </v>
   <v>      -0.30769231      -0.15384615      -0.15384615 </v>
   <v>       0.23076923       0.23076923       0.00000000 </v>
   <v>       0.00000000       0.23076923       0.23076923 </v>
   <v>       0.23076923       0.00000000       0.23076923 </v>
   <v>       0.30769231       0.23076923       0.00000000 </v>
   <v>       0.00000000       0.30769231       0.23076923 </v>
   <v>       0.23076923       0.00000000       0.30769231 </v>
   <v>       0.23076923       0.23076923      -0.07692308 </v>
   <v>       0.30769231       0.07692308       0.30769231 </v>
   <v>       0.23076923       0.30769231       0.00000000 </v>
   <v>       0.07692308      -0.23076923      -0.23076923 </v>
   <v>       0.30769231       0.30769231       0.07692308 </v>
   <v>       0.00000000       0.23076923       0.30769231 </v>
   <v>      -0.23076923       0.07692308      -0.23076923 </v>
   <v>       0.07692308       0.30769231       0.30769231 </v>
   <v>       0.30769231       0.00000000       0.23076923 </v>
   <v>       0.38461538       0.23076923       0.00000000 </v>
   <v>       0.00000000       0.38461538       0.23076923 </v>
   <v>       0.23076923       0.00000000       0.38461538 </v>
   <v>       0.23076923       0.23076923      -0.15384615 </v>
   <v>       0.38461538       0.15384615       0.38461538 </v>
   <v>       0.23076923       0.38461538       0.00000000 </v>
   <v>       0.15384615      -0.23076923      -0.23076923 </v>
   <v>       0.38461538       0.38461538       0.15384615 </v>
   <v>       0.00000000       0.23076923       0.38461538 </v>
   <v>      -0.23076923       0.15384615      -0.23076923 </v>
   <v>       0.15384615       0.38461538       0.38461538 </v>
   <v>       0.38461538       0.00000000       0.23076923 </v>
   <v>       0.46153846       0.23076923       0.00000000 </v>
   <v>       0.00000000       0.46153846       0.23076923 </v>
   <v>       0.23076923       0.00000000       0.46153846 </v>
   <v>       0.23076923       0.23076923      -0.23076923 </v>
   <v>       0.46153846       0.23076923       0.46153846 </v>
   <v>       0.23076923       0.46153846       0.00000000 </v>
   <v>       0.23076923      -0.23076923      -0.23076923 </v>
   <v>       0.46153846       0.46153846       0.23076923 </v>
   <v>       0.00000000       0.23076923       0.46153846 </v>
   <v>      -0.23076923       0.23076923      -0.23076923 </v>
   <v>       0.23076923       0.46153846       0.46153846 </v>
   <v>       0.46153846       0.00000000       0.23076923 </v>
   <v>      -0.46153846       0.23076923       0.00000000 </v>
   <v>       0.00000000      -0.46153846       0.23076923 </v>
   <v>       0.23076923       0.00000000      -0.46153846 </v>
   <v>       0.23076923       0.23076923      -0.30769231 </v>
   <v>      -0.46153846       0.30769231      -0.46153846 </v>
   <v>       0.23076923      -0.46153846       0.00000000 </v>
   <v>       0.30769231      -0.23076923      -0.23076923 </v>
   <v>      -0.46153846      -0.46153846       0.30769231 </v>
   <v>       0.00000000       0.23076923      -0.46153846 </v>
   <v>      -0.23076923       0.30769231      -0.23076923 </v>
   <v>       0.30769231      -0.46153846      -0.46153846 </v>
   <v>      -0.46153846       0.00000000       0.23076923 </v>
   <v>      -0.38461538       0.23076923       0.00000000 </v>
   <v>       0.00000000      -0.38461538       0.23076923 </v>
   <v>       0.23076923       0.00000000      -0.38461538 </v>
   <v>       0.23076923       0.23076923      -0.38461538 </v>
   <v>      -0.38461538       0.38461538      -0.38461538 </v>
   <v>       0.23076923      -0.38461538       0.00000000 </v>
   <v>       0.38461538      -0.23076923      -0.23076923 </v>
   <v>      -0.38461538      -0.38461538       0.38461538 </v>
   <v>       0.00000000       0.23076923      -0.38461538 </v>
   <v>      -0.23076923       0.38461538      -0.23076923 </v>
   <v>       0.38461538      -0.38461538      -0.38461538 </v>
   <v>      -0.38461538       0.00000000       0.23076923 </v>
   <v>      -0.30769231       0.23076923       0.00000000 </v>
   <v>       0.00000000      -0.30769231       0.23076923 </v>
   <v>       0.23076923       0.00000000      -0.30769231 </v>
   <v>       0.23076923       0.23076923      -0.46153846 </v>
   <v>      -0.30769231       0.46153846      -0.30769231 </v>
   <v>       0.23076923      -0.30769231       0.00000000 </v>
   <v>       0.46153846      -0.23076923      -0.23076923 </v>
   <v>      -0.30769231      -0.30769231       0.46153846 </v>
   <v>       0.00000000       0.23076923      -0.30769231 </v>
   <v>      -0.23076923       0.46153846      -0.23076923 </v>
   <v>       0.46153846      -0.30769231      -0.30769231 </v>
   <v>      -0.30769231       0.00000000       0.23076923 </v>
   <v>      -0.23076923       0.23076923       0.00000000 </v>
   <v>       0.00000000      -0.23076923       0.23076923 </v>
   <v>       0.23076923       0.00000000      -0.23076923 </v>
   <v>       0.23076923       0.23076923       0.46153846 </v>
   <v>      -0.23076923      -0.46153846      -0.23076923 </v>
   <v>      -0.46153846      -0.23076923      -0.23076923 </v>
   <v>       0.30769231       0.30769231       0.00000000 </v>
   <v>       0.00000000       0.30769231       0.30769231 </v>
   <v>       0.30769231       0.00000000       0.30769231 </v>
   <v>       0.38461538       0.30769231       0.00000000 </v>
   <v>       0.00000000       0.38461538       0.30769231 </v>
   <v>       0.30769231       0.00000000       0.38461538 </v>
   <v>       0.30769231       0.30769231      -0.07692308 </v>
   <v>       0.38461538       0.07692308       0.38461538 </v>
   <v>       0.30769231       0.38461538       0.00000000 </v>
   <v>       0.07692308      -0.30769231      -0.30769231 </v>
   <v>       0.38461538       0.38461538       0.07692308 </v>
   <v>       0.00000000       0.30769231       0.38461538 </v>
   <v>      -0.30769231       0.07692308      -0.30769231 </v>
   <v>       0.07692308       0.38461538       0.38461538 </v>
   <v>       0.38461538       0.00000000       0.30769231 </v>
   <v>       0.46153846       0.30769231       0.00000000 </v>
   <v>       0.00000000       0.46153846       0.30769231 </v>
   <v>       0.30769231       0.00000000       0.46153846 </v>
   <v>       0.30769231       0.30769231      -0.15384615 </v>
   <v>       0.46153846       0.15384615       0.46153846 </v>
   <v>       0.30769231       0.46153846       0.00000000 </v>
   <v>       0.15384615      -0.30769231      -0.30769231 </v>
   <v>       0.46153846       0.46153846       0.15384615 </v>
   <v>       0.00000000       0.30769231       0.46153846 </v>
   <v>      -0.30769231       0.15384615      -0.30769231 </v>
   <v>       0.15384615       0.46153846       0.46153846 </v>
   <v>       0.46153846       0.00000000       0.30769231 </v>
   <v>      -0.46153846       0.30769231       0.00000000 </v>
   <v>       0.00000000      -0.46153846       0.30769231 </v>
   <v>       0.30769231       0.00000000      -0.46153846 </v>
   <v>       0.30769231       0.30769231      -0.23076923 </v>
   <v>      -0.46153846       0.23076923      -0.46153846 </v>
   <v>       0.30769231      -0.46153846       0.00000000 </v>
   <v>       0.23076923      -0.30769231      -0.30769231 </v>
   <v>      -0.46153846      -0.46153846       0.23076923 </v>
   <v>       0.00000000       0.30769231      -0.46153846 </v>
   <v>      -0.30769231       0.23076923      -0.30769231 </v>
   <v>       0.23076923      -0.46153846      -0.46153846 </v>
   <v>      -0.46153846       0.00000000       0.30769231 </v>
   <v>      -0.38461538       0.30769231       0.00000000 </v>
   <v>       0.00000000      -0.38461538       0.30769231 </v>
   <v>       0.30769231       0.00000000      -0.38461538 </v>
   <v>       0.30769231       0.30769231      -0.30769231 </v>
   <v>      -0.38461538       0.30769231      -0.38461538 </v>
   <v>       0.30769231      -0.38461538       0.00000000 </v>
   <v>       0.30769231      -0.30769231      -0.30769231 </v>
   <v>      -0.38461538      -0.38461538       0.30769231 </v>
   <v>       0.00000000       0.30769231      -0.38461538 </v>
   <v>      -0.30769231       0.30769231      -0.30769231 </v>
   <v>       0.30769231      -0.38461538      -0.38461538 </v>
   <v>      -0.38461538       0.00000000       0.30769231 </v>
   <v>      -0.30769231       0.30769231       0.00000000 </v>
   <v>       0.00000000      -0.30769231       0.30769231 </v>
   <v>       0.30769231       0.00000000      -0.30769231 </v>
   <v>       0.30769231       0.30769231      -0.38461538 </v>
   <v>      -0.30769231       0.38461538      -0.30769231 </v>
   <v>       0.38461538      -0.30769231      -0.30769231 </v>
   <v>       0.38461538       0.38461538       0.00000000 </v>
   <v>       0.00000000       0.38461538       0.38461538 </v>
   <v>       0.38461538       0.00000000       0.38461538 </v>
   <v>       0.46153846       0.38461538       0.00000000 </v>
   <v>       0.00000000       0.46153846       0.38461538 </v>
   <v>       0.38461538       0.00000000       0.46153846 </v>
   <v>       0.38461538       0.38461538      -0.07692308 </v>
   <v>       0.46153846       0.07692308       0.46153846 </v>
   <v>       0.38461538       0.46153846       0.00000000 </v>
   <v>       0.07692308      -0.38461538      -0.38461538 </v>
   <v>       0.46153846       0.46153846       0.07692308 </v>
   <v>       0.00000000       0.38461538       0.46153846 </v>
   <v>      -0.38461538       0.07692308      -0.38461538 </v>
   <v>       0.07692308       0.46153846       0.46153846 </v>
   <v>       0.46153846       0.00000000       0.38461538 </v>
   <v>      -0.46153846       0.38461538       0.00000000 </v>
   <v>       0.00000000      -0.46153846       0.38461538 </v>
   <v>       0.38461538       0.00000000      -0.46153846 </v>
   <v>       0.38461538       0.38461538      -0.15384615 </v>
   <v>      -0.46153846       0.15384615      -0.46153846 </v>
   <v>       0.38461538      -0.46153846       0.00000000 </v>
   <v>       0.15384615      -0.38461538      -0.38461538 </v>
   <v>      -0.46153846      -0.46153846       0.15384615 </v>
   <v>       0.00000000       0.38461538      -0.46153846 </v>
   <v>      -0.38461538       0.15384615      -0.38461538 </v>
   <v>       0.15384615      -0.46153846      -0.46153846 </v>
   <v>      -0.46153846       0.00000000       0.38461538 </v>
   <v>      -0.38461538       0.38461538       0.00000000 </v>
   <v>       0.00000000      -0.38461538       0.38461538 </v>
   <v>       0.38461538       0.00000000      -0.38461538 </v>
   <v>       0.38461538       0.38461538      -0.23076923 </v>
   <v>      -0.38461538       0.23076923      -0.38461538 </v>
   <v>       0.23076923      -0.38461538      -0.38461538 </v>
   <v>       0.46153846       0.46153846       0.00000000 </v>
   <v>       0.00000000       0.46153846       0.46153846 </v>
   <v>       0.46153846       0.00000000       0.46153846 </v>
   <v>      -0.46153846       0.46153846       0.00000000 </v>
   <v>       0.00000000      -0.46153846       0.46153846 </v>
   <v>       0.46153846       0.00000000      -0.46153846 </v>
   <v>       0.46153846       0.46153846      -0.07692308 </v>
   <v>      -0.46153846       0.07692308      -0.46153846 </v>
   <v>       0.07692308      -0.46153846      -0.46153846 </v>
   <v>       0.23076923       0.15384615       0.07692308 </v>
   <v>       0.07692308       0.23076923       0.15384615 </v>
   <v>       0.15384615       0.07692308       0.23076923 </v>
   <v>       0.15384615       0.07692308      -0.07692308 </v>
   <v>       0.23076923       0.07692308       0.15384615 </v>
   <v>       0.07692308      -0.15384615      -0.07692308 </v>
   <v>       0.07692308       0.15384615      -0.07692308 </v>
   <v>       0.07692308      -0.07692308      -0.15384615 </v>
   <v>       0.15384615       0.23076923       0.07692308 </v>
   <v>      -0.07692308       0.07692308      -0.15384615 </v>
   <v>      -0.15384615       0.07692308      -0.07692308 </v>
   <v>       0.07692308       0.15384615       0.23076923 </v>
   <v>       0.30769231       0.15384615       0.07692308 </v>
   <v>       0.07692308       0.30769231       0.15384615 </v>
   <v>       0.15384615       0.07692308       0.30769231 </v>
   <v>       0.15384615       0.07692308      -0.15384615 </v>
   <v>       0.30769231       0.15384615       0.23076923 </v>
   <v>       0.07692308      -0.23076923      -0.07692308 </v>
   <v>       0.07692308       0.23076923      -0.07692308 </v>
   <v>       0.15384615      -0.07692308      -0.15384615 </v>
   <v>      -0.23076923      -0.15384615      -0.30769231 </v>
   <v>       0.23076923       0.30769231       0.15384615 </v>
   <v>      -0.07692308       0.07692308      -0.23076923 </v>
   <v>      -0.15384615       0.15384615       0.07692308 </v>
   <v>      -0.07692308       0.07692308       0.23076923 </v>
   <v>      -0.15384615       0.15384615      -0.07692308 </v>
   <v>      -0.30769231      -0.23076923      -0.15384615 </v>
   <v>       0.15384615       0.23076923       0.30769231 </v>
   <v>      -0.23076923      -0.07692308       0.07692308 </v>
   <v>       0.07692308      -0.15384615       0.15384615 </v>
   <v>       0.23076923      -0.07692308       0.07692308 </v>
   <v>      -0.07692308      -0.15384615       0.15384615 </v>
   <v>      -0.15384615      -0.30769231      -0.23076923 </v>
   <v>      -0.30769231      -0.07692308      -0.15384615 </v>
   <v>      -0.15384615      -0.30769231      -0.07692308 </v>
   <v>      -0.07692308      -0.15384615      -0.30769231 </v>
   <v>       0.38461538       0.15384615       0.07692308 </v>
   <v>       0.07692308       0.38461538       0.15384615 </v>
   <v>       0.15384615       0.07692308       0.38461538 </v>
   <v>       0.15384615       0.07692308      -0.23076923 </v>
   <v>       0.38461538       0.23076923       0.30769231 </v>
   <v>       0.07692308      -0.30769231      -0.07692308 </v>
   <v>       0.07692308       0.30769231      -0.07692308 </v>
   <v>       0.23076923      -0.07692308      -0.15384615 </v>
   <v>      -0.30769231      -0.23076923      -0.38461538 </v>
   <v>       0.30769231       0.38461538       0.23076923 </v>
   <v>      -0.07692308       0.07692308      -0.30769231 </v>
   <v>      -0.23076923       0.15384615       0.07692308 </v>
   <v>      -0.07692308       0.07692308       0.30769231 </v>
   <v>      -0.15384615       0.23076923      -0.07692308 </v>
   <v>      -0.38461538      -0.30769231      -0.23076923 </v>
   <v>       0.23076923       0.30769231       0.38461538 </v>
   <v>      -0.30769231      -0.07692308       0.07692308 </v>
   <v>       0.07692308      -0.23076923       0.15384615 </v>
   <v>       0.30769231      -0.07692308       0.07692308 </v>
   <v>      -0.07692308      -0.15384615       0.23076923 </v>
   <v>      -0.23076923      -0.38461538      -0.30769231 </v>
   <v>      -0.38461538      -0.07692308      -0.15384615 </v>
   <v>      -0.15384615      -0.38461538      -0.07692308 </v>
   <v>      -0.07692308      -0.15384615      -0.38461538 </v>
   <v>       0.46153846       0.15384615       0.07692308 </v>
   <v>       0.07692308       0.46153846       0.15384615 </v>
   <v>       0.15384615       0.07692308       0.46153846 </v>
   <v>       0.15384615       0.07692308      -0.30769231 </v>
   <v>       0.46153846       0.30769231       0.38461538 </v>
   <v>       0.07692308      -0.38461538      -0.07692308 </v>
   <v>       0.07692308       0.38461538      -0.07692308 </v>
   <v>       0.30769231      -0.07692308      -0.15384615 </v>
   <v>      -0.38461538      -0.30769231      -0.46153846 </v>
   <v>       0.38461538       0.46153846       0.30769231 </v>
   <v>      -0.07692308       0.07692308      -0.38461538 </v>
   <v>      -0.30769231       0.15384615       0.07692308 </v>
   <v>      -0.07692308       0.07692308       0.38461538 </v>
   <v>      -0.15384615       0.30769231      -0.07692308 </v>
   <v>      -0.46153846      -0.38461538      -0.30769231 </v>
   <v>       0.30769231       0.38461538       0.46153846 </v>
   <v>      -0.38461538      -0.07692308       0.07692308 </v>
   <v>       0.07692308      -0.30769231       0.15384615 </v>
   <v>       0.38461538      -0.07692308       0.07692308 </v>
   <v>      -0.07692308      -0.15384615       0.30769231 </v>
   <v>      -0.30769231      -0.46153846      -0.38461538 </v>
   <v>      -0.46153846      -0.07692308      -0.15384615 </v>
   <v>      -0.15384615      -0.46153846      -0.07692308 </v>
   <v>      -0.07692308      -0.15384615      -0.46153846 </v>
   <v>      -0.46153846       0.15384615       0.07692308 </v>
   <v>       0.07692308      -0.46153846       0.15384615 </v>
   <v>       0.15384615       0.07692308      -0.46153846 </v>
   <v>       0.15384615       0.07692308      -0.38461538 </v>
   <v>      -0.46153846       0.38461538       0.46153846 </v>
   <v>       0.07692308      -0.46153846      -0.07692308 </v>
   <v>       0.07692308       0.46153846      -0.07692308 </v>
   <v>       0.38461538      -0.07692308      -0.15384615 </v>
   <v>      -0.46153846      -0.38461538       0.46153846 </v>
   <v>       0.46153846      -0.46153846       0.38461538 </v>
   <v>      -0.07692308       0.07692308      -0.46153846 </v>
   <v>      -0.38461538       0.15384615       0.07692308 </v>
   <v>      -0.07692308       0.07692308       0.46153846 </v>
   <v>      -0.15384615       0.38461538      -0.07692308 </v>
   <v>       0.46153846      -0.46153846      -0.38461538 </v>
   <v>       0.38461538       0.46153846      -0.46153846 </v>
   <v>      -0.46153846      -0.07692308       0.07692308 </v>
   <v>       0.07692308      -0.38461538       0.15384615 </v>
   <v>       0.46153846      -0.07692308       0.07692308 </v>
   <v>      -0.07692308      -0.15384615       0.38461538 </v>
   <v>      -0.38461538       0.46153846      -0.46153846 </v>
   <v>       0.46153846      -0.07692308      -0.15384615 </v>
   <v>      -0.15384615       0.46153846      -0.07692308 </v>
   <v>      -0.07692308      -0.15384615       0.46153846 </v>
   <v>       0.30769231       0.23076923       0.07692308 </v>
   <v>       0.07692308       0.30769231       0.23076923 </v>
   <v>       0.23076923       0.07692308       0.30769231 </v>
   <v>       0.23076923       0.15384615      -0.07692308 </v>
   <v>       0.30769231       0.07692308       0.23076923 </v>
   <v>       0.07692308      -0.23076923      -0.15384615 </v>
   <v>       0.15384615       0.23076923      -0.07692308 </v>
   <v>       0.07692308      -0.15384615      -0.23076923 </v>
   <v>       0.23076923       0.30769231       0.07692308 </v>
   <v>      -0.15384615       0.07692308      -0.23076923 </v>
   <v>      -0.23076923       0.07692308      -0.15384615 </v>
   <v>       0.07692308       0.23076923       0.30769231 </v>
   <v>       0.38461538       0.23076923       0.07692308 </v>
   <v>       0.07692308       0.38461538       0.23076923 </v>
   <v>       0.23076923       0.07692308       0.38461538 </v>
   <v>       0.23076923       0.15384615      -0.15384615 </v>
   <v>       0.38461538       0.15384615       0.30769231 </v>
   <v>       0.07692308      -0.30769231      -0.15384615 </v>
   <v>       0.15384615       0.30769231      -0.07692308 </v>
   <v>       0.15384615      -0.15384615      -0.23076923 </v>
   <v>      -0.30769231      -0.15384615      -0.38461538 </v>
   <v>       0.30769231       0.38461538       0.15384615 </v>
   <v>      -0.15384615       0.07692308      -0.30769231 </v>
   <v>      -0.15384615       0.23076923       0.15384615 </v>
   <v>      -0.07692308       0.15384615       0.30769231 </v>
   <v>      -0.23076923       0.15384615      -0.15384615 </v>
   <v>      -0.38461538      -0.30769231      -0.15384615 </v>
   <v>       0.15384615       0.30769231       0.38461538 </v>
   <v>      -0.30769231      -0.15384615       0.07692308 </v>
   <v>       0.15384615      -0.15384615       0.23076923 </v>
   <v>       0.30769231      -0.07692308       0.15384615 </v>
   <v>      -0.15384615      -0.23076923       0.15384615 </v>
   <v>      -0.15384615      -0.38461538      -0.30769231 </v>
   <v>      -0.38461538      -0.07692308      -0.23076923 </v>
   <v>      -0.23076923      -0.38461538      -0.07692308 </v>
   <v>      -0.07692308      -0.23076923      -0.38461538 </v>
   <v>       0.46153846       0.23076923       0.07692308 </v>
   <v>       0.07692308       0.46153846       0.23076923 </v>
   <v>       0.23076923       0.07692308       0.46153846 </v>
   <v>       0.23076923       0.15384615      -0.23076923 </v>
   <v>       0.46153846       0.23076923       0.38461538 </v>
   <v>       0.07692308      -0.38461538      -0.15384615 </v>
   <v>       0.15384615       0.38461538      -0.07692308 </v>
   <v>       0.23076923      -0.15384615      -0.23076923 </v>
   <v>      -0.38461538      -0.23076923      -0.46153846 </v>
   <v>       0.38461538       0.46153846       0.23076923 </v>
   <v>      -0.15384615       0.07692308      -0.38461538 </v>
   <v>      -0.23076923       0.23076923       0.15384615 </v>
   <v>      -0.07692308       0.15384615       0.38461538 </v>
   <v>      -0.23076923       0.23076923      -0.15384615 </v>
   <v>      -0.46153846      -0.38461538      -0.23076923 </v>
   <v>       0.23076923       0.38461538       0.46153846 </v>
   <v>      -0.38461538      -0.15384615       0.07692308 </v>
   <v>       0.15384615      -0.23076923       0.23076923 </v>
   <v>       0.38461538      -0.07692308       0.15384615 </v>
   <v>      -0.15384615      -0.23076923       0.23076923 </v>
   <v>      -0.23076923      -0.46153846      -0.38461538 </v>
   <v>      -0.46153846      -0.07692308      -0.23076923 </v>
   <v>      -0.23076923      -0.46153846      -0.07692308 </v>
   <v>      -0.07692308      -0.23076923      -0.46153846 </v>
   <v>      -0.46153846       0.23076923       0.07692308 </v>
   <v>       0.07692308      -0.46153846       0.23076923 </v>
   <v>       0.23076923       0.07692308      -0.46153846 </v>
   <v>       0.23076923       0.15384615      -0.30769231 </v>
   <v>      -0.46153846       0.30769231       0.46153846 </v>
   <v>       0.07692308      -0.46153846      -0.15384615 </v>
   <v>       0.15384615       0.46153846      -0.07692308 </v>
   <v>       0.30769231      -0.15384615      -0.23076923 </v>
   <v>      -0.46153846      -0.30769231       0.46153846 </v>
   <v>       0.46153846      -0.46153846       0.30769231 </v>
   <v>      -0.15384615       0.07692308      -0.46153846 </v>
   <v>      -0.30769231       0.23076923       0.15384615 </v>
   <v>      -0.07692308       0.15384615       0.46153846 </v>
   <v>      -0.23076923       0.30769231      -0.15384615 </v>
   <v>       0.46153846      -0.46153846      -0.30769231 </v>
   <v>       0.30769231       0.46153846      -0.46153846 </v>
   <v>      -0.46153846      -0.15384615       0.07692308 </v>
   <v>       0.15384615      -0.30769231       0.23076923 </v>
   <v>       0.46153846      -0.07692308       0.15384615 </v>
   <v>      -0.15384615      -0.23076923       0.30769231 </v>
   <v>      -0.30769231       0.46153846      -0.46153846 </v>
   <v>       0.46153846      -0.07692308      -0.23076923 </v>
   <v>      -0.23076923       0.46153846      -0.07692308 </v>
   <v>      -0.07692308      -0.23076923       0.46153846 </v>
   <v>      -0.38461538       0.23076923       0.07692308 </v>
   <v>       0.07692308      -0.38461538       0.23076923 </v>
   <v>       0.23076923       0.07692308      -0.38461538 </v>
   <v>       0.23076923       0.15384615      -0.38461538 </v>
   <v>      -0.38461538       0.38461538      -0.46153846 </v>
   <v>       0.07692308       0.46153846      -0.15384615 </v>
   <v>       0.15384615      -0.46153846      -0.07692308 </v>
   <v>       0.38461538      -0.15384615      -0.23076923 </v>
   <v>       0.46153846      -0.38461538       0.38461538 </v>
   <v>      -0.46153846      -0.38461538       0.38461538 </v>
   <v>      -0.15384615       0.07692308       0.46153846 </v>
   <v>      -0.38461538       0.23076923       0.15384615 </v>
   <v>      -0.07692308       0.15384615      -0.46153846 </v>
   <v>      -0.23076923       0.38461538      -0.15384615 </v>
   <v>       0.38461538       0.46153846      -0.38461538 </v>
   <v>       0.38461538      -0.46153846      -0.38461538 </v>
   <v>       0.46153846      -0.15384615       0.07692308 </v>
   <v>       0.15384615      -0.38461538       0.23076923 </v>
   <v>      -0.46153846      -0.07692308       0.15384615 </v>
   <v>      -0.15384615      -0.23076923       0.38461538 </v>
   <v>      -0.38461538       0.38461538       0.46153846 </v>
   <v>       0.38461538      -0.07692308      -0.23076923 </v>
   <v>      -0.23076923       0.38461538      -0.07692308 </v>
   <v>      -0.07692308      -0.23076923       0.38461538 </v>
   <v>      -0.30769231       0.23076923       0.07692308 </v>
   <v>       0.07692308      -0.30769231       0.23076923 </v>
   <v>       0.23076923       0.07692308      -0.30769231 </v>
   <v>       0.23076923       0.15384615      -0.46153846 </v>
   <v>      -0.30769231       0.46153846      -0.38461538 </v>
   <v>       0.07692308       0.38461538      -0.15384615 </v>
   <v>       0.15384615      -0.38461538      -0.07692308 </v>
   <v>       0.46153846      -0.15384615      -0.23076923 </v>
   <v>       0.38461538      -0.46153846       0.30769231 </v>
   <v>      -0.38461538      -0.30769231       0.46153846 </v>
   <v>      -0.15384615       0.07692308       0.38461538 </v>
   <v>      -0.46153846       0.23076923       0.15384615 </v>
   <v>      -0.07692308       0.15384615      -0.38461538 </v>
   <v>      -0.23076923       0.46153846      -0.15384615 </v>
   <v>       0.30769231       0.38461538      -0.46153846 </v>
   <v>       0.46153846      -0.38461538      -0.30769231 </v>
   <v>       0.38461538      -0.15384615       0.07692308 </v>
   <v>       0.15384615      -0.46153846       0.23076923 </v>
   <v>      -0.38461538      -0.07692308       0.15384615 </v>
   <v>      -0.15384615      -0.23076923       0.46153846 </v>
   <v>      -0.46153846       0.30769231       0.38461538 </v>
   <v>       0.30769231      -0.07692308      -0.23076923 </v>
   <v>      -0.23076923       0.30769231      -0.07692308 </v>
   <v>      -0.07692308      -0.23076923       0.30769231 </v>
   <v>      -0.23076923       0.23076923       0.07692308 </v>
   <v>       0.07692308      -0.23076923       0.23076923 </v>
   <v>       0.23076923       0.07692308      -0.23076923 </v>
   <v>       0.23076923       0.15384615       0.46153846 </v>
   <v>      -0.23076923      -0.46153846      -0.30769231 </v>
   <v>       0.07692308       0.30769231      -0.15384615 </v>
   <v>       0.15384615      -0.30769231      -0.07692308 </v>
   <v>      -0.46153846      -0.15384615      -0.23076923 </v>
   <v>       0.30769231       0.46153846       0.23076923 </v>
   <v>      -0.30769231      -0.23076923      -0.46153846 </v>
   <v>      -0.15384615       0.07692308       0.30769231 </v>
   <v>       0.46153846       0.23076923       0.15384615 </v>
   <v>      -0.07692308       0.15384615      -0.30769231 </v>
   <v>      -0.23076923      -0.46153846      -0.15384615 </v>
   <v>       0.23076923       0.30769231       0.46153846 </v>
   <v>      -0.46153846      -0.30769231      -0.23076923 </v>
   <v>       0.30769231      -0.15384615       0.07692308 </v>
   <v>       0.15384615       0.46153846       0.23076923 </v>
   <v>      -0.30769231      -0.07692308       0.15384615 </v>
   <v>      -0.15384615      -0.23076923      -0.46153846 </v>
   <v>       0.46153846       0.23076923       0.30769231 </v>
   <v>       0.23076923      -0.07692308      -0.23076923 </v>
   <v>      -0.23076923       0.23076923      -0.07692308 </v>
   <v>      -0.07692308      -0.23076923       0.23076923 </v>
   <v>      -0.15384615       0.23076923       0.07692308 </v>
   <v>       0.07692308      -0.15384615       0.23076923 </v>
   <v>       0.23076923       0.07692308      -0.15384615 </v>
   <v>       0.23076923       0.15384615       0.38461538 </v>
   <v>      -0.15384615      -0.38461538      -0.23076923 </v>
   <v>       0.07692308       0.23076923      -0.15384615 </v>
   <v>      -0.38461538      -0.15384615      -0.23076923 </v>
   <v>       0.23076923       0.38461538       0.15384615 </v>
   <v>      -0.15384615       0.07692308       0.23076923 </v>
   <v>       0.38461538       0.23076923       0.15384615 </v>
   <v>       0.15384615       0.23076923       0.38461538 </v>
   <v>       0.23076923      -0.15384615       0.07692308 </v>
   <v>       0.38461538       0.30769231       0.07692308 </v>
   <v>       0.07692308       0.38461538       0.30769231 </v>
   <v>       0.30769231       0.07692308       0.38461538 </v>
   <v>       0.30769231       0.23076923      -0.07692308 </v>
   <v>       0.38461538       0.07692308       0.30769231 </v>
   <v>       0.07692308      -0.30769231      -0.23076923 </v>
   <v>       0.23076923       0.30769231      -0.07692308 </v>
   <v>       0.07692308      -0.23076923      -0.30769231 </v>
   <v>       0.30769231       0.38461538       0.07692308 </v>
   <v>      -0.23076923       0.07692308      -0.30769231 </v>
   <v>      -0.30769231       0.07692308      -0.23076923 </v>
   <v>       0.07692308       0.30769231       0.38461538 </v>
   <v>       0.46153846       0.30769231       0.07692308 </v>
   <v>       0.07692308       0.46153846       0.30769231 </v>
   <v>       0.30769231       0.07692308       0.46153846 </v>
   <v>       0.30769231       0.23076923      -0.15384615 </v>
   <v>       0.46153846       0.15384615       0.38461538 </v>
   <v>       0.07692308      -0.38461538      -0.23076923 </v>
   <v>       0.23076923       0.38461538      -0.07692308 </v>
   <v>       0.15384615      -0.23076923      -0.30769231 </v>
   <v>      -0.38461538      -0.15384615      -0.46153846 </v>
   <v>       0.38461538       0.46153846       0.15384615 </v>
   <v>      -0.23076923       0.07692308      -0.38461538 </v>
   <v>      -0.15384615       0.30769231       0.23076923 </v>
   <v>      -0.07692308       0.23076923       0.38461538 </v>
   <v>      -0.30769231       0.15384615      -0.23076923 </v>
   <v>      -0.46153846      -0.38461538      -0.15384615 </v>
   <v>       0.15384615       0.38461538       0.46153846 </v>
   <v>      -0.38461538      -0.23076923       0.07692308 </v>
   <v>       0.23076923      -0.15384615       0.30769231 </v>
   <v>       0.38461538      -0.07692308       0.23076923 </v>
   <v>      -0.23076923      -0.30769231       0.15384615 </v>
   <v>      -0.15384615      -0.46153846      -0.38461538 </v>
   <v>      -0.46153846      -0.07692308      -0.30769231 </v>
   <v>      -0.30769231      -0.46153846      -0.07692308 </v>
   <v>      -0.07692308      -0.30769231      -0.46153846 </v>
   <v>      -0.46153846       0.30769231       0.07692308 </v>
   <v>       0.07692308      -0.46153846       0.30769231 </v>
   <v>       0.30769231       0.07692308      -0.46153846 </v>
   <v>       0.30769231       0.23076923      -0.23076923 </v>
   <v>      -0.46153846       0.23076923       0.46153846 </v>
   <v>       0.07692308      -0.46153846      -0.23076923 </v>
   <v>       0.23076923       0.46153846      -0.07692308 </v>
   <v>       0.23076923      -0.23076923      -0.30769231 </v>
   <v>      -0.46153846      -0.23076923       0.46153846 </v>
   <v>       0.46153846      -0.46153846       0.23076923 </v>
   <v>      -0.23076923       0.07692308      -0.46153846 </v>
   <v>      -0.23076923       0.30769231       0.23076923 </v>
   <v>      -0.07692308       0.23076923       0.46153846 </v>
   <v>      -0.30769231       0.23076923      -0.23076923 </v>
   <v>       0.46153846      -0.46153846      -0.23076923 </v>
   <v>       0.23076923       0.46153846      -0.46153846 </v>
   <v>      -0.46153846      -0.23076923       0.07692308 </v>
   <v>       0.23076923      -0.23076923       0.30769231 </v>
   <v>       0.46153846      -0.07692308       0.23076923 </v>
   <v>      -0.23076923      -0.30769231       0.23076923 </v>
   <v>      -0.23076923       0.46153846      -0.46153846 </v>
   <v>       0.46153846      -0.07692308      -0.30769231 </v>
   <v>      -0.30769231       0.46153846      -0.07692308 </v>
   <v>      -0.07692308      -0.30769231       0.46153846 </v>
   <v>      -0.38461538       0.30769231       0.07692308 </v>
   <v>       0.07692308      -0.38461538       0.30769231 </v>
   <v>       0.30769231       0.07692308      -0.38461538 </v>
   <v>       0.30769231       0.23076923      -0.30769231 </v>
   <v>      -0.38461538       0.30769231      -0.46153846 </v>
   <v>       0.07692308       0.46153846      -0.23076923 </v>
   <v>       0.23076923      -0.46153846      -0.07692308 </v>
   <v>       0.30769231      -0.23076923      -0.30769231 </v>
   <v>       0.46153846      -0.30769231       0.38461538 </v>
   <v>      -0.46153846      -0.38461538       0.30769231 </v>
   <v>      -0.23076923       0.07692308       0.46153846 </v>
   <v>      -0.30769231       0.30769231       0.23076923 </v>
   <v>      -0.07692308       0.23076923      -0.46153846 </v>
   <v>      -0.30769231       0.30769231      -0.23076923 </v>
   <v>       0.38461538       0.46153846      -0.30769231 </v>
   <v>       0.30769231      -0.46153846      -0.38461538 </v>
   <v>       0.46153846      -0.23076923       0.07692308 </v>
   <v>       0.23076923      -0.30769231       0.30769231 </v>
   <v>      -0.46153846      -0.07692308       0.23076923 </v>
   <v>      -0.23076923      -0.30769231       0.30769231 </v>
   <v>      -0.30769231       0.38461538       0.46153846 </v>
   <v>       0.38461538      -0.07692308      -0.30769231 </v>
   <v>      -0.30769231       0.38461538      -0.07692308 </v>
   <v>      -0.07692308      -0.30769231       0.38461538 </v>
   <v>      -0.30769231       0.30769231       0.07692308 </v>
   <v>       0.07692308      -0.30769231       0.30769231 </v>
   <v>       0.30769231       0.07692308      -0.30769231 </v>
   <v>       0.30769231       0.23076923      -0.38461538 </v>
   <v>      -0.30769231       0.38461538      -0.38461538 </v>
   <v>       0.07692308       0.38461538      -0.23076923 </v>
   <v>       0.23076923      -0.38461538      -0.07692308 </v>
   <v>       0.38461538      -0.23076923      -0.30769231 </v>
   <v>       0.38461538      -0.38461538       0.30769231 </v>
   <v>      -0.38461538      -0.30769231       0.38461538 </v>
   <v>      -0.23076923       0.07692308       0.38461538 </v>
   <v>      -0.38461538       0.30769231       0.23076923 </v>
   <v>      -0.07692308       0.23076923      -0.38461538 </v>
   <v>      -0.30769231       0.38461538      -0.23076923 </v>
   <v>       0.30769231       0.38461538      -0.38461538 </v>
   <v>       0.38461538      -0.38461538      -0.30769231 </v>
   <v>       0.38461538      -0.23076923       0.07692308 </v>
   <v>       0.23076923      -0.38461538       0.30769231 </v>
   <v>      -0.38461538      -0.07692308       0.23076923 </v>
   <v>      -0.23076923      -0.30769231       0.38461538 </v>
   <v>      -0.38461538       0.30769231       0.38461538 </v>
   <v>       0.30769231      -0.07692308      -0.30769231 </v>
   <v>      -0.30769231       0.30769231      -0.07692308 </v>
   <v>      -0.07692308      -0.30769231       0.30769231 </v>
   <v>      -0.23076923       0.30769231       0.07692308 </v>
   <v>       0.07692308      -0.23076923       0.30769231 </v>
   <v>       0.30769231       0.07692308      -0.23076923 </v>
   <v>       0.30769231       0.23076923      -0.46153846 </v>
   <v>      -0.23076923       0.46153846      -0.30769231 </v>
   <v>       0.07692308       0.30769231      -0.23076923 </v>
   <v>       0.46153846      -0.23076923      -0.30769231 </v>
   <v>       0.30769231      -0.46153846       0.23076923 </v>
   <v>      -0.23076923       0.07692308       0.30769231 </v>
   <v>      -0.46153846       0.30769231       0.23076923 </v>
   <v>       0.23076923       0.30769231      -0.46153846 </v>
   <v>       0.30769231      -0.23076923       0.07692308 </v>
   <v>       0.46153846       0.38461538       0.07692308 </v>
   <v>       0.07692308       0.46153846       0.38461538 </v>
   <v>       0.38461538       0.07692308       0.46153846 </v>
   <v>       0.38461538       0.30769231      -0.07692308 </v>
   <v>       0.46153846       0.07692308       0.38461538 </v>
   <v>       0.07692308      -0.38461538      -0.30769231 </v>
   <v>       0.30769231       0.38461538      -0.07692308 </v>
   <v>       0.07692308      -0.30769231      -0.38461538 </v>
   <v>       0.38461538       0.46153846       0.07692308 </v>
   <v>      -0.30769231       0.07692308      -0.38461538 </v>
   <v>      -0.38461538       0.07692308      -0.30769231 </v>
   <v>       0.07692308       0.38461538       0.46153846 </v>
   <v>      -0.46153846       0.38461538       0.07692308 </v>
   <v>       0.07692308      -0.46153846       0.38461538 </v>
   <v>       0.38461538       0.07692308      -0.46153846 </v>
   <v>       0.38461538       0.30769231      -0.15384615 </v>
   <v>      -0.46153846       0.15384615       0.46153846 </v>
   <v>       0.07692308      -0.46153846      -0.30769231 </v>
   <v>       0.30769231       0.46153846      -0.07692308 </v>
   <v>       0.15384615      -0.30769231      -0.38461538 </v>
   <v>      -0.46153846      -0.15384615       0.46153846 </v>
   <v>       0.46153846      -0.46153846       0.15384615 </v>
   <v>      -0.30769231       0.07692308      -0.46153846 </v>
   <v>      -0.15384615       0.38461538       0.30769231 </v>
   <v>      -0.07692308       0.30769231       0.46153846 </v>
   <v>      -0.38461538       0.15384615      -0.30769231 </v>
   <v>       0.46153846      -0.46153846      -0.15384615 </v>
   <v>       0.15384615       0.46153846      -0.46153846 </v>
   <v>      -0.46153846      -0.30769231       0.07692308 </v>
   <v>       0.30769231      -0.15384615       0.38461538 </v>
   <v>       0.46153846      -0.07692308       0.30769231 </v>
   <v>      -0.30769231      -0.38461538       0.15384615 </v>
   <v>      -0.15384615       0.46153846      -0.46153846 </v>
   <v>       0.46153846      -0.07692308      -0.38461538 </v>
   <v>      -0.38461538       0.46153846      -0.07692308 </v>
   <v>      -0.07692308      -0.38461538       0.46153846 </v>
   <v>      -0.38461538       0.38461538       0.07692308 </v>
   <v>       0.07692308      -0.38461538       0.38461538 </v>
   <v>       0.38461538       0.07692308      -0.38461538 </v>
   <v>       0.38461538       0.30769231      -0.23076923 </v>
   <v>      -0.38461538       0.23076923      -0.46153846 </v>
   <v>       0.07692308       0.46153846      -0.30769231 </v>
   <v>       0.30769231      -0.46153846      -0.07692308 </v>
   <v>       0.23076923      -0.30769231      -0.38461538 </v>
   <v>       0.46153846      -0.23076923       0.38461538 </v>
   <v>      -0.46153846      -0.38461538       0.23076923 </v>
   <v>      -0.30769231       0.07692308       0.46153846 </v>
   <v>      -0.23076923       0.38461538       0.30769231 </v>
   <v>      -0.07692308       0.30769231      -0.46153846 </v>
   <v>      -0.38461538       0.23076923      -0.30769231 </v>
   <v>       0.38461538       0.46153846      -0.23076923 </v>
   <v>       0.23076923      -0.46153846      -0.38461538 </v>
   <v>       0.46153846      -0.30769231       0.07692308 </v>
   <v>       0.30769231      -0.23076923       0.38461538 </v>
   <v>      -0.46153846      -0.07692308       0.30769231 </v>
   <v>      -0.30769231      -0.38461538       0.23076923 </v>
   <v>      -0.23076923       0.38461538       0.46153846 </v>
   <v>       0.38461538      -0.07692308      -0.38461538 </v>
   <v>      -0.38461538       0.38461538      -0.07692308 </v>
   <v>      -0.07692308      -0.38461538       0.38461538 </v>
   <v>      -0.30769231       0.38461538       0.07692308 </v>
   <v>       0.07692308      -0.30769231       0.38461538 </v>
   <v>       0.38461538       0.07692308      -0.30769231 </v>
   <v>       0.38461538       0.30769231      -0.30769231 </v>
   <v>      -0.30769231       0.30769231      -0.38461538 </v>
   <v>       0.07692308       0.38461538      -0.30769231 </v>
   <v>       0.30769231      -0.30769231      -0.38461538 </v>
   <v>       0.38461538      -0.30769231       0.30769231 </v>
   <v>      -0.30769231       0.07692308       0.38461538 </v>
   <v>      -0.30769231       0.38461538       0.30769231 </v>
   <v>       0.30769231       0.38461538      -0.30769231 </v>
   <v>       0.38461538      -0.30769231       0.07692308 </v>
   <v>      -0.46153846       0.46153846       0.07692308 </v>
   <v>       0.07692308      -0.46153846       0.46153846 </v>
   <v>       0.46153846       0.07692308      -0.46153846 </v>
   <v>       0.46153846       0.38461538      -0.07692308 </v>
   <v>      -0.46153846       0.07692308       0.46153846 </v>
   <v>       0.07692308      -0.46153846      -0.38461538 </v>
   <v>       0.38461538       0.46153846      -0.07692308 </v>
   <v>       0.07692308      -0.38461538      -0.46153846 </v>
   <v>       0.46153846      -0.46153846       0.07692308 </v>
   <v>      -0.38461538       0.07692308      -0.46153846 </v>
   <v>      -0.46153846       0.07692308      -0.38461538 </v>
   <v>       0.07692308       0.46153846      -0.46153846 </v>
   <v>      -0.38461538       0.46153846       0.07692308 </v>
   <v>       0.07692308      -0.38461538       0.46153846 </v>
   <v>       0.46153846       0.07692308      -0.38461538 </v>
   <v>       0.46153846       0.38461538      -0.15384615 </v>
   <v>      -0.38461538       0.15384615      -0.46153846 </v>
   <v>       0.07692308       0.46153846      -0.38461538 </v>
   <v>       0.15384615      -0.38461538      -0.46153846 </v>
   <v>       0.46153846      -0.15384615       0.38461538 </v>
   <v>      -0.38461538       0.07692308       0.46153846 </v>
   <v>      -0.15384615       0.46153846       0.38461538 </v>
   <v>       0.38461538       0.46153846      -0.15384615 </v>
   <v>       0.46153846      -0.38461538       0.07692308 </v>
   <v>       0.46153846       0.30769231       0.15384615 </v>
   <v>       0.15384615       0.46153846       0.30769231 </v>
   <v>       0.30769231       0.15384615       0.46153846 </v>
   <v>       0.30769231       0.15384615      -0.15384615 </v>
   <v>       0.46153846       0.15384615       0.30769231 </v>
   <v>       0.15384615      -0.30769231      -0.15384615 </v>
   <v>       0.15384615       0.30769231      -0.15384615 </v>
   <v>       0.15384615      -0.15384615      -0.30769231 </v>
   <v>       0.30769231       0.46153846       0.15384615 </v>
   <v>      -0.15384615       0.15384615      -0.30769231 </v>
   <v>      -0.30769231       0.15384615      -0.15384615 </v>
   <v>       0.15384615       0.30769231       0.46153846 </v>
   <v>      -0.46153846       0.30769231       0.15384615 </v>
   <v>       0.15384615      -0.46153846       0.30769231 </v>
   <v>       0.30769231       0.15384615      -0.46153846 </v>
   <v>       0.30769231       0.15384615      -0.23076923 </v>
   <v>      -0.46153846       0.23076923       0.38461538 </v>
   <v>       0.15384615      -0.38461538      -0.15384615 </v>
   <v>       0.15384615       0.38461538      -0.15384615 </v>
   <v>       0.23076923      -0.15384615      -0.30769231 </v>
   <v>      -0.38461538      -0.23076923       0.46153846 </v>
   <v>       0.38461538      -0.46153846       0.23076923 </v>
   <v>      -0.15384615       0.15384615      -0.38461538 </v>
   <v>      -0.23076923       0.30769231       0.15384615 </v>
   <v>      -0.15384615       0.15384615       0.38461538 </v>
   <v>      -0.30769231       0.23076923      -0.15384615 </v>
   <v>       0.46153846      -0.38461538      -0.23076923 </v>
   <v>       0.23076923       0.38461538      -0.46153846 </v>
   <v>      -0.38461538      -0.15384615       0.15384615 </v>
   <v>       0.15384615      -0.23076923       0.30769231 </v>
   <v>       0.38461538      -0.15384615       0.15384615 </v>
   <v>      -0.15384615      -0.30769231       0.23076923 </v>
   <v>      -0.23076923       0.46153846      -0.38461538 </v>
   <v>       0.46153846      -0.15384615      -0.30769231 </v>
   <v>      -0.30769231       0.46153846      -0.15384615 </v>
   <v>      -0.15384615      -0.30769231       0.46153846 </v>
   <v>      -0.38461538       0.30769231       0.15384615 </v>
   <v>       0.15384615      -0.38461538       0.30769231 </v>
   <v>       0.30769231       0.15384615      -0.38461538 </v>
   <v>       0.30769231       0.15384615      -0.30769231 </v>
   <v>      -0.38461538       0.30769231       0.46153846 </v>
   <v>       0.15384615      -0.46153846      -0.15384615 </v>
   <v>       0.15384615       0.46153846      -0.15384615 </v>
   <v>       0.30769231      -0.15384615      -0.30769231 </v>
   <v>      -0.46153846      -0.30769231       0.38461538 </v>
   <v>       0.46153846      -0.38461538       0.30769231 </v>
   <v>      -0.15384615       0.15384615      -0.46153846 </v>
   <v>      -0.30769231       0.30769231       0.15384615 </v>
   <v>      -0.15384615       0.15384615       0.46153846 </v>
   <v>      -0.30769231       0.30769231      -0.15384615 </v>
   <v>       0.38461538      -0.46153846      -0.30769231 </v>
   <v>       0.30769231       0.46153846      -0.38461538 </v>
   <v>      -0.46153846      -0.15384615       0.15384615 </v>
   <v>       0.15384615      -0.30769231       0.30769231 </v>
   <v>       0.46153846      -0.15384615       0.15384615 </v>
   <v>      -0.15384615      -0.30769231       0.30769231 </v>
   <v>      -0.30769231       0.38461538      -0.46153846 </v>
   <v>       0.38461538      -0.15384615      -0.30769231 </v>
   <v>      -0.30769231       0.38461538      -0.15384615 </v>
   <v>      -0.15384615      -0.30769231       0.38461538 </v>
   <v>      -0.46153846       0.38461538       0.15384615 </v>
   <v>       0.15384615      -0.46153846       0.38461538 </v>
   <v>       0.38461538       0.15384615      -0.46153846 </v>
   <v>       0.38461538       0.23076923      -0.15384615 </v>
   <v>      -0.46153846       0.15384615       0.38461538 </v>
   <v>       0.15384615      -0.38461538      -0.23076923 </v>
   <v>       0.23076923       0.38461538      -0.15384615 </v>
   <v>       0.15384615      -0.23076923      -0.38461538 </v>
   <v>       0.38461538      -0.46153846       0.15384615 </v>
   <v>      -0.23076923       0.15384615      -0.38461538 </v>
   <v>      -0.38461538       0.15384615      -0.23076923 </v>
   <v>       0.15384615       0.38461538      -0.46153846 </v>
   <v>      -0.38461538       0.38461538       0.15384615 </v>
   <v>       0.15384615      -0.38461538       0.38461538 </v>
   <v>       0.38461538       0.15384615      -0.38461538 </v>
   <v>       0.38461538       0.23076923      -0.23076923 </v>
   <v>      -0.38461538       0.23076923       0.46153846 </v>
   <v>       0.15384615      -0.46153846      -0.23076923 </v>
   <v>       0.23076923       0.46153846      -0.15384615 </v>
   <v>       0.23076923      -0.23076923      -0.38461538 </v>
   <v>      -0.46153846      -0.23076923       0.38461538 </v>
   <v>       0.46153846      -0.38461538       0.23076923 </v>
   <v>      -0.23076923       0.15384615      -0.46153846 </v>
   <v>      -0.23076923       0.38461538       0.23076923 </v>
   <v>      -0.15384615       0.23076923       0.46153846 </v>
   <v>      -0.38461538       0.23076923      -0.23076923 </v>
   <v>       0.38461538      -0.46153846      -0.23076923 </v>
   <v>       0.23076923       0.46153846      -0.38461538 </v>
   <v>      -0.46153846      -0.23076923       0.15384615 </v>
   <v>       0.23076923      -0.23076923       0.38461538 </v>
   <v>       0.46153846      -0.15384615       0.23076923 </v>
   <v>      -0.23076923      -0.38461538       0.23076923 </v>
   <v>      -0.23076923       0.38461538      -0.46153846 </v>
   <v>       0.38461538      -0.15384615      -0.38461538 </v>
   <v>      -0.38461538       0.38461538      -0.15384615 </v>
   <v>      -0.15384615      -0.38461538       0.38461538 </v>
   <v>      -0.30769231       0.38461538       0.15384615 </v>
   <v>       0.15384615      -0.30769231       0.38461538 </v>
   <v>       0.38461538       0.15384615      -0.30769231 </v>
   <v>       0.38461538       0.23076923      -0.30769231 </v>
   <v>      -0.30769231       0.30769231      -0.46153846 </v>
   <v>       0.15384615       0.46153846      -0.23076923 </v>
   <v>       0.23076923      -0.46153846      -0.15384615 </v>
   <v>       0.30769231      -0.23076923      -0.38461538 </v>
   <v>       0.46153846      -0.30769231       0.30769231 </v>
   <v>      -0.46153846      -0.30769231       0.30769231 </v>
   <v>      -0.23076923       0.15384615       0.46153846 </v>
   <v>      -0.30769231       0.38461538       0.23076923 </v>
   <v>      -0.15384615       0.23076923      -0.46153846 </v>
   <v>      -0.38461538       0.30769231      -0.23076923 </v>
   <v>       0.30769231       0.46153846      -0.30769231 </v>
   <v>       0.30769231      -0.46153846      -0.30769231 </v>
   <v>       0.46153846      -0.23076923       0.15384615 </v>
   <v>       0.23076923      -0.30769231       0.38461538 </v>
   <v>      -0.46153846      -0.15384615       0.23076923 </v>
   <v>      -0.23076923      -0.38461538       0.30769231 </v>
   <v>      -0.30769231       0.30769231       0.46153846 </v>
   <v>       0.30769231      -0.15384615      -0.38461538 </v>
   <v>      -0.38461538       0.30769231      -0.15384615 </v>
   <v>      -0.15384615      -0.38461538       0.30769231 </v>
   <v>      -0.23076923       0.38461538       0.15384615 </v>
   <v>       0.15384615      -0.23076923       0.38461538 </v>
   <v>       0.38461538       0.15384615      -0.23076923 </v>
   <v>       0.38461538       0.23076923      -0.38461538 </v>
   <v>      -0.23076923       0.38461538      -0.38461538 </v>
   <v>       0.15384615       0.38461538      -0.23076923 </v>
   <v>       0.38461538      -0.23076923      -0.38461538 </v>
   <v>       0.38461538      -0.38461538       0.23076923 </v>
   <v>      -0.23076923       0.15384615       0.38461538 </v>
   <v>      -0.38461538       0.38461538       0.23076923 </v>
   <v>       0.23076923       0.38461538      -0.38461538 </v>
   <v>       0.38461538      -0.23076923       0.15384615 </v>
   <v>      -0.38461538       0.46153846       0.15384615 </v>
   <v>       0.15384615      -0.38461538       0.46153846 </v>
   <v>       0.46153846       0.15384615      -0.38461538 </v>
   <v>       0.46153846       0.30769231      -0.15384615 </v>
   <v>      -0.38461538       0.15384615       0.46153846 </v>
   <v>       0.15384615      -0.46153846      -0.30769231 </v>
   <v>       0.30769231       0.46153846      -0.15384615 </v>
   <v>       0.15384615      -0.30769231      -0.46153846 </v>
   <v>       0.46153846      -0.38461538       0.15384615 </v>
   <v>      -0.30769231       0.15384615      -0.46153846 </v>
   <v>      -0.46153846       0.15384615      -0.30769231 </v>
   <v>       0.15384615       0.46153846      -0.38461538 </v>
   <v>      -0.30769231       0.46153846       0.15384615 </v>
   <v>       0.15384615      -0.30769231       0.46153846 </v>
   <v>       0.46153846       0.15384615      -0.30769231 </v>
   <v>       0.46153846       0.30769231      -0.23076923 </v>
   <v>      -0.30769231       0.23076923      -0.46153846 </v>
   <v>       0.15384615       0.46153846      -0.30769231 </v>
   <v>       0.23076923      -0.30769231      -0.46153846 </v>
   <v>       0.46153846      -0.23076923       0.30769231 </v>
   <v>      -0.30769231       0.15384615       0.46153846 </v>
   <v>      -0.23076923       0.46153846       0.30769231 </v>
   <v>       0.30769231       0.46153846      -0.23076923 </v>
   <v>       0.46153846      -0.30769231       0.15384615 </v>
   <v>      -0.30769231       0.46153846       0.23076923 </v>
   <v>       0.23076923      -0.30769231       0.46153846 </v>
   <v>       0.46153846       0.23076923      -0.30769231 </v>
   <v>       0.46153846       0.23076923      -0.23076923 </v>
   <v>      -0.30769231       0.23076923       0.46153846 </v>
   <v>       0.23076923      -0.46153846      -0.23076923 </v>
   <v>       0.23076923       0.46153846      -0.23076923 </v>
   <v>       0.23076923      -0.23076923      -0.46153846 </v>
   <v>       0.46153846      -0.30769231       0.23076923 </v>
   <v>      -0.23076923       0.23076923      -0.46153846 </v>
   <v>      -0.46153846       0.23076923      -0.23076923 </v>
   <v>       0.23076923       0.46153846      -0.30769231 </v>
  </varray>
  <varray name="weights" >
   <v>       0.00045517 </v>
   <v>       0.00091033 </v>
   <v>       0.00091033 </v>
   <v>       0.00091033 </v>
   <v>       0.00091033 </v>
   <v>       0.00091033 </v>
   <v>       0.00091033 </v>
   <v>       0.00091033 </v>
   <v>       0.00091033 </v>
   <v>       0.00091033 </v>
   <v>       0.00091033 </v>
   <v>       0.00091033 </v>
   <v>       0.00091033 </v>
   <v>       0.00091033 </v>
   <v>       0.00091033 </v>
   <v>       0.00091033 </v>
   <v>       0.00091033 </v>
   <v>       0.00091033 </v>
   <v>       0.00091033 </v>
   <v>       0.00091033 </v>
   <v>       0.00091033 </v>
   <v>       0.00091033 </v>
   <v>       0.00091033 </v>
   <v>       0.00091033 </v>
   <v>       0.00091033 </v>
   <v>       0.00091033 </v>
   <v>       0.00091033 </v>
   <v>       0.00091033 </v>
   <v>       0.00091033 </v>
   <v>       0.00091033 </v>
   <v>       0.00091033 </v>
   <v>       0.00091033 </v>
   <v>       0.00091033 </v>
   <v>       0.00091033 </v>
   <v>       0.00091033 </v>
   <v>       0.00091033 </v>
   <v>       0.00091033 </v>
   <v>       0.00091033 </v>
   <v>       0.00091033 </v>
   <v>       0.00091033 </v>
   <v>       0.00091033 </v>
   <v>       0.00091033 </v>
   <v>       0.00091033 </v>
   <v>       0.00091033 </v>
   <v>       0.00091033 </v>
   <v>       0.00091033 </v>
   <v>       0.00091033 </v>
   <v>       0.00091033 </v>
   <v>       0.00091033 </v>
   <v>       0.00091033 </v>
   <v>       0.00091033 </v>
   <v>       0.00091033 </v>
   <v>       0.00091033 </v>
   <v>       0.00091033 </v>
   <v>       0.00091033 </v>
   <v>       0.00091033 </v>
   <v>       0.00091033 </v>
   <v>       0.00091033 </v>
   <v>       0.00091033 </v>
   <v>       0.00091033 </v>
   <v>       0.00091033 </v>
   <v>       0.00091033 </v>
   <v>       0.00091033 </v>
   <v>       0.00091033 </v>
   <v>       0.00091033 </v>
   <v>       0.00091033 </v>
   <v>       0.00091033 </v>
   <v>       0.00091033 </v>
   <v>       0.00091033 </v>
   <v>       0.00091033 </v>
   <v>       0.00091033 </v>
   <v>       0.00091033 </v>
   <v>       0.00091033 </v>
   <v>       0.00091033 </v>
   <v>       0.00091033 </v>
   <v>       0.00091033 </v>
   <v>       0.00091033 </v>
   <v>       0.00091033 </v>
   <v>       0.00091033 </v>
   <v>       0.00091033 </v>
   <v>       0.00091033 </v>
   <v>       0.00091033 </v>
   <v>       0.00091033 </v>
   <v>       0.00091033 </v>
   <v>       0.00091033 </v>
   <v>       0.00091033 </v>
   <v>       0.00091033 </v>
   <v>       0.00091033 </v>
   <v>       0.00091033 </v>
   <v>       0.00091033 </v>
   <v>       0.00091033 </v>
   <v>       0.00091033 </v>
   <v>       0.00091033 </v>
   <v>       0.00091033 </v>
   <v>       0.00091033 </v>
   <v>       0.00091033 </v>
   <v>       0.00091033 </v>
   <v>       0.00091033 </v>
   <v>       0.00091033 </v>
   <v>       0.00091033 </v>
   <v>       0.00091033 </v>
   <v>       0.00091033 </v>
   <v>       0.00091033 </v>
   <v>       0.00091033 </v>
   <v>       0.00091033 </v>
   <v>       0.00091033 </v>
   <v>       0.00091033 </v>
   <v>       0.00091033 </v>
   <v>       0.00091033 </v>
   <v>       0.00091033 </v>
   <v>       0.00091033 </v>
   <v>       0.00091033 </v>
   <v>       0.00091033 </v>
   <v>       0.00091033 </v>
   <v>       0.00091033 </v>
   <v>       0.00091033 </v>
   <v>       0.00091033 </v>
   <v>       0.00091033 </v>
   <v>       0.00091033 </v>
   <v>       0.00091033 </v>
   <v>       0.00091033 </v>
   <v>       0.00091033 </v>
   <v>       0.00091033 </v>
   <v>       0.00091033 </v>
   <v>       0.00091033 </v>
   <v>       0.00091033 </v>
   <v>       0.00091033 </v>
   <v>       0.00091033 </v>
   <v>       0.00091033 </v>
   <v>       0.00091033 </v>
   <v>       0.00091033 </v>
   <v>       0.00091033 </v>
   <v>       0.00091033 </v>
   <v>       0.00091033 </v>
   <v>       0.00091033 </v>
   <v>       0.00091033 </v>
   <v>       0.00091033 </v>
   <v>       0.00091033 </v>
   <v>       0.00091033 </v>
   <v>       0.00091033 </v>
   <v>       0.00091033 </v>
   <v>       0.00091033 </v>
   <v>       0.00091033 </v>
   <v>       0.00091033 </v>
   <v>       0.00091033 </v>
   <v>       0.00091033 </v>
   <v>       0.00091033 </v>
   <v>       0.00091033 </v>
   <v>       0.00091033 </v>
   <v>       0.00091033 </v>
   <v>       0.00091033 </v>
   <v>       0.00091033 </v>
   <v>       0.00091033 </v>
   <v>       0.00091033 </v>
   <v>       0.00091033 </v>
   <v>       0.00091033 </v>
   <v>       0.00091033 </v>
   <v>       0.00091033 </v>
   <v>       0.00091033 </v>
   <v>       0.00091033 </v>
   <v>       0.00091033 </v>
   <v>       0.00091033 </v>
   <v>       0.00091033 </v>
   <v>       0.00091033 </v>
   <v>       0.00091033 </v>
   <v>       0.00091033 </v>
   <v>       0.00091033 </v>
   <v>       0.00091033 </v>
   <v>       0.00091033 </v>
   <v>       0.00091033 </v>
   <v>       0.00091033 </v>
   <v>       0.00091033 </v>
   <v>       0.00091033 </v>
   <v>       0.00091033 </v>
   <v>       0.00091033 </v>
   <v>       0.00091033 </v>
   <v>       0.00091033 </v>
   <v>       0.00091033 </v>
   <v>       0.00091033 </v>
   <v>       0.00091033 </v>
   <v>       0.00091033 </v>
   <v>       0.00091033 </v>
   <v>       0.00091033 </v>
   <v>       0.00091033 </v>
   <v>       0.00091033 </v>
   <v>       0.00091033 </v>
   <v>       0.00091033 </v>
   <v>       0.00091033 </v>
   <v>       0.00091033 </v>
   <v>       0.00091033 </v>
   <v>       0.00091033 </v>
   <v>       0.00091033 </v>
   <v>       0.00091033 </v>
   <v>       0.00091033 </v>
   <v>       0.00091033 </v>
   <v>       0.00091033 </v>
   <v>       0.00091033 </v>
   <v>       0.00091033 </v>
   <v>       0.00091033 </v>
   <v>       0.00091033 </v>
   <v>       0.00091033 </v>
   <v>       0.00091033 </v>
   <v>       0.00091033 </v>
   <v>       0.00091033 </v>
   <v>       0.00091033 </v>
   <v>       0.00091033 </v>
   <v>       0.00091033 </v>
   <v>       0.00091033 </v>
   <v>       0.00091033 </v>
   <v>       0.00091033 </v>
   <v>       0.00091033 </v>
   <v>       0.00091033 </v>
   <v>       0.00091033 </v>
   <v>       0.00091033 </v>
   <v>       0.00091033 </v>
   <v>       0.00091033 </v>
   <v>       0.00091033 </v>
   <v>       0.00091033 </v>
   <v>       0.00091033 </v>
   <v>       0.00091033 </v>
   <v>       0.00091033 </v>
   <v>       0.00091033 </v>
   <v>       0.00091033 </v>
   <v>       0.00091033 </v>
   <v>       0.00091033 </v>
   <v>       0.00091033 </v>
   <v>       0.00091033 </v>
   <v>       0.00091033 </v>
   <v>       0.00091033 </v>
   <v>       0.00091033 </v>
   <v>       0.00091033 </v>
   <v>       0.00091033 </v>
   <v>       0.00091033 </v>
   <v>       0.00091033 </v>
   <v>       0.00091033 </v>
   <v>       0.00091033 </v>
   <v>       0.00091033 </v>
   <v>       0.00091033 </v>
   <v>       0.00091033 </v>
   <v>       0.00091033 </v>
   <v>       0.00091033 </v>
   <v>       0.00091033 </v>
   <v>       0.00091033 </v>
   <v>       0.00091033 </v>
   <v>       0.00091033 </v>
   <v>       0.00091033 </v>
   <v>       0.00091033 </v>
   <v>       0.00091033 </v>
   <v>       0.00091033 </v>
   <v>       0.00091033 </v>
   <v>       0.00091033 </v>
   <v>       0.00091033 </v>
   <v>       0.00091033 </v>
   <v>       0.00091033 </v>
   <v>       0.00091033 </v>
   <v>       0.00091033 </v>
   <v>       0.00091033 </v>
   <v>       0.00091033 </v>
   <v>       0.00091033 </v>
   <v>       0.00091033 </v>
   <v>       0.00091033 </v>
   <v>       0.00091033 </v>
   <v>       0.00091033 </v>
   <v>       0.00091033 </v>
   <v>       0.00091033 </v>
   <v>       0.00091033 </v>
   <v>       0.00091033 </v>
   <v>       0.00091033 </v>
   <v>       0.00091033 </v>
   <v>       0.00091033 </v>
[...]
       </set>
       <set comment="band 5">
        <r>  0.0011  0.0007  0.0835  0.0003  0.0000  0.0000  0.0000  0.0000  0.0000 </r>
        <r>  0.0011  0.0007  0.0835  0.0003  0.0000  0.0000  0.0000  0.0000  0.0000 </r>
       </set>
       <set comment="band 6">
        <r>  0.0190  0.0188  0.0595  0.0141  0.0000  0.0000  0.0000  0.0000  0.0000 </r>
        <r>  0.0190  0.0188  0.0595  0.0141  0.0000  0.0000  0.0000  0.0000  0.0000 </r>
       </set>
       <set comment="band 7">
        <r>  0.0663  0.0508  0.0019  0.0446  0.0000  0.0000  0.0000  0.0000  0.0000 </r>
        <r>  0.0663  0.0508  0.0019  0.0446  0.0000  0.0000  0.0000  0.0000  0.0000 </r>
       </set>
       <set comment="band 8">
        <r>  0.0370  0.0323  0.0280  0.0460  0.0000  0.0000  0.0000  0.0000  0.0000 </r>
        <r>  0.0370  0.0323  0.0280  0.0460  0.0000  0.0000  0.0000  0.0000  0.0000 </r>
       </set>
      </set>
      <set comment="kpoint 1090">
       <set comment="band 1">
        <r>  0.2083  0.0230  0.0133  0.0005  0.0000  0.0000  0.0000  0.0000  0.0000 </r>
        <r>  0.2083  0.0230  0.0133  0.0005  0.0000  0.0000  0.0000  0.0000  0.0000 </r>
       </set>
       <set comment="band 2">
        <r>  0.1994  0.0249  0.0229  0.0005  0.0000  0.0000  0.0000  0.0000  0.0000 </r>
        <r>  0.1994  0.0249  0.0229  0.0005  0.0000  0.0000  0.0000  0.0000  0.0000 </r>
       </set>
       <set comment="band 3">
        <r>  0.0015  0.0359  0.0572  0.0633  0.0000  0.0000  0.0000  0.0000  0.0000 </r>
        <r>  0.0015  0.0359  0.0572  0.0633  0.0000  0.0000  0.0000  0.0000  0.0000 </r>
       </set>
       <set comment="band 4">
        <r>  0.0003  0.0472  0.0426  0.0737  0.0000  0.0000  0.0000  0.0000  0.0000 </r>
        <r>  0.0003  0.0472  0.0426  0.0737  0.0000  0.0000  0.0000  0.0000  0.0000 </r>
       </set>
       <set comment="band 5">
        <r>  0.0011  0.0003  0.0007  0.0835  0.0000  0.0000  0.0000  0.0000  0.0000 </r>
        <r>  0.0011  0.0003  0.0007  0.0835  0.0000  0.0000  0.0000  0.0000  0.0000 </r>
       </set>
       <set comment="band 6">
        <r>  0.0190  0.0141  0.0188  0.0595  0.0000  0.0000  0.0000  0.0000  0.0000 </r>
        <r>  0.0190  0.0141  0.0188  0.0595  0.0000  0.0000  0.0000  0.0000  0.0000 </r>
       </set>
       <set comment="band 7">
        <r>  0.0663  0.0446  0.0508  0.0019  0.0000  0.0000  0.0000  0.0000  0.0000 </r>
        <r>  0.0663  0.0446  0.0508  0.0019  0.0000  0.0000  0.0000  0.0000  0.0000 </r>
       </set>
       <set comment="band 8">
        <r>  0.0370  0.0460  0.0323  0.0280  0.0000  0.0000  0.0000  0.0000  0.0000 </r>
        <r>  0.0371  0.0460  0.0323  0.0280  0.0000  0.0000  0.0000  0.0000  0.0000 </r>
       </set>
      </set>
      <set comment="kpoint 1091">
       <set comment="band 1">
        <r>  0.2083  0.0133  0.0230  0.0005  0.0000  0.0000  0.0000  0.0000  0.0000 </r>
        <r>  0.2083  0.0133  0.0230  0.0005  0.0000  0.0000  0.0000  0.0000  0.0000 </r>
       </set>
       <set comment="band 2">
        <r>  0.1994  0.0229  0.0249  0.0005  0.0000  0.0000  0.0000  0.0000  0.0000 </r>
        <r>  0.1994  0.0229  0.0249  0.0005  0.0000  0.0000  0.0000  0.0000  0.0000 </r>
       </set>
       <set comment="band 3">
        <r>  0.0015  0.0572  0.0359  0.0633  0.0000  0.0000  0.0000  0.0000  0.0000 </r>
        <r>  0.0015  0.0572  0.0359  0.0633  0.0000  0.0000  0.0000  0.0000  0.0000 </r>
       </set>
       <set comment="band 4">
        <r>  0.0003  0.0426  0.0472  0.0737  0.0000  0.0000  0.0000  0.0000  0.0000 </r>
        <r>  0.0003  0.0426  0.0472  0.0737  0.0000  0.0000  0.0000  0.0000  0.0000 </r>
       </set>
       <set comment="band 5">
        <r>  0.0011  0.0007  0.0003  0.0835  0.0000  0.0000  0.0000  0.0000  0.0000 </r>
        <r>  0.0011  0.0007  0.0003  0.0835  0.0000  0.0000  0.0000  0.0000  0.0000 </r>
       </set>
       <set comment="band 6">
        <r>  0.0190  0.0188  0.0141  0.0595  0.0000  0.0000  0.0000  0.0000  0.0000 </r>
        <r>  0.0190  0.0188  0.0141  0.0595  0.0000  0.0000  0.0000  0.0000  0.0000 </r>
       </set>
       <set comment="band 7">
        <r>  0.0663  0.0508  0.0446  0.0019  0.0000  0.0000  0.0000  0.0000  0.0000 </r>
        <r>  0.0663  0.0508  0.0446  0.0019  0.0000  0.0000  0.0000  0.0000  0.0000 </r>
       </set>
       <set comment="band 8">
        <r>  0.0370  0.0323  0.0460  0.0280  0.0000  0.0000  0.0000  0.0000  0.0000 </r>
        <r>  0.0370  0.0323  0.0460  0.0280  0.0000  0.0000  0.0000  0.0000  0.0000 </r>
       </set>
      </set>
      <set comment="kpoint 1092">
       <set comment="band 1">
        <r>  0.2083  0.0230  0.0005  0.0133  0.0000  0.0000  0.0000  0.0000  0.0000 </r>
        <r>  0.2083  0.0230  0.0005  0.0133  0.0000  0.0000  0.0000  0.0000  0.0000 </r>
       </set>
       <set comment="band 2">
        <r>  0.1994  0.0249  0.0005  0.0229  0.0000  0.0000  0.0000  0.0000  0.0000 </r>
        <r>  0.1994  0.0249  0.0005  0.0229  0.0000  0.0000  0.0000  0.0000  0.0000 </r>
       </set>
       <set comment="band 3">
        <r>  0.0015  0.0359  0.0633  0.0572  0.0000  0.0000  0.0000  0.0000  0.0000 </r>
        <r>  0.0015  0.0359  0.0633  0.0572  0.0000  0.0000  0.0000  0.0000  0.0000 </r>
       </set>
       <set comment="band 4">
        <r>  0.0003  0.0472  0.0737  0.0426  0.0000  0.0000  0.0000  0.0000  0.0000 </r>
        <r>  0.0003  0.0472  0.0737  0.0426  0.0000  0.0000  0.0000  0.0000  0.0000 </r>
       </set>
       <set comment="band 5">
        <r>  0.0011  0.0003  0.0835  0.0007  0.0000  0.0000  0.0000  0.0000  0.0000 </r>
        <r>  0.0011  0.0003  0.0835  0.0007  0.0000  0.0000  0.0000  0.0000  0.0000 </r>
       </set>
       <set comment="band 6">
        <r>  0.0190  0.0141  0.0595  0.0188  0.0000  0.0000  0.0000  0.0000  0.0000 </r>
        <r>  0.0190  0.0141  0.0595  0.0188  0.0000  0.0000  0.0000  0.0000  0.0000 </r>
       </set>
       <set comment="band 7">
        <r>  0.0663  0.0446  0.0019  0.0508  0.0000  0.0000  0.0000  0.0000  0.0000 </r>
        <r>  0.0663  0.0446  0.0019  0.0508  0.0000  0.0000  0.0000  0.0000  0.0000 </r>
       </set>
       <set comment="band 8">
        <r>  0.0371  0.0460  0.0280  0.0323  0.0000  0.0000  0.0000  0.0000  0.0000 </r>
        <r>  0.0370  0.0460  0.0280  0.0323  0.0000  0.0000  0.0000  0.0000  0.0000 </r>
       </set>
      </set>
      <set comment="kpoint 1093">
       <set comment="band 1">
        <r>  0.2083  0.0005  0.0133  0.0230  0.0000  0.0000  0.0000  0.0000  0.0000 </r>
        <r>  0.2083  0.0005  0.0133  0.0230  0.0000  0.0000  0.0000  0.0000  0.0000 </r>
       </set>
       <set comment="band 2">
        <r>  0.1994  0.0005  0.0229  0.0249  0.0000  0.0000  0.0000  0.0000  0.0000 </r>
        <r>  0.1994  0.0005  0.0229  0.0249  0.0000  0.0000  0.0000  0.0000  0.0000 </r>
       </set>
       <set comment="band 3">
        <r>  0.0015  0.0633  0.0572  0.0359  0.0000  0.0000  0.0000  0.0000  0.0000 </r>
        <r>  0.0015  0.0633  0.0572  0.0359  0.0000  0.0000  0.0000  0.0000  0.0000 </r>
       </set>
       <set comment="band 4">
        <r>  0.0003  0.0737  0.0426  0.0472  0.0000  0.0000  0.0000  0.0000  0.0000 </r>
        <r>  0.0003  0.0737  0.0426  0.0472  0.0000  0.0000  0.0000  0.0000  0.0000 </r>
       </set>
       <set comment="band 5">
        <r>  0.0011  0.0835  0.0007  0.0003  0.0000  0.0000  0.0000  0.0000  0.0000 </r>
        <r>  0.0011  0.0835  0.0007  0.0003  0.0000  0.0000  0.0000  0.0000  0.0000 </r>
       </set>
       <set comment="band 6">
        <r>  0.0190  0.0595  0.0188  0.0141  0.0000  0.0000  0.0000  0.0000  0.0000 </r>
        <r>  0.0190  0.0595  0.0188  0.0141  0.0000  0.0000  0.0000  0.0000  0.0000 </r>
       </set>
       <set comment="band 7">
        <r>  0.0663  0.0019  0.0508  0.0446  0.0000  0.0000  0.0000  0.0000  0.0000 </r>
        <r>  0.0663  0.0019  0.0508  0.0446  0.0000  0.0000  0.0000  0.0000  0.0000 </r>
       </set>
       <set comment="band 8">
        <r>  0.0370  0.0280  0.0323  0.0460  0.0000  0.0000  0.0000  0.0000  0.0000 </r>
        <r>  0.0370  0.0280  0.0323  0.0460  0.0000  0.0000  0.0000  0.0000  0.0000 </r>
       </set>
      </set>
      <set comment="kpoint 1094">
       <set comment="band 1">
        <r>  0.2083  0.0005  0.0230  0.0133  0.0000  0.0000  0.0000  0.0000  0.0000 </r>
        <r>  0.2083  0.0005  0.0230  0.0133  0.0000  0.0000  0.0000  0.0000  0.0000 </r>
       </set>
       <set comment="band 2">
        <r>  0.1994  0.0005  0.0249  0.0229  0.0000  0.0000  0.0000  0.0000  0.0000 </r>
        <r>  0.1994  0.0005  0.0249  0.0229  0.0000  0.0000  0.0000  0.0000  0.0000 </r>
       </set>
       <set comment="band 3">
        <r>  0.0015  0.0633  0.0359  0.0572  0.0000  0.0000  0.0000  0.0000  0.0000 </r>
        <r>  0.0015  0.0633  0.0359  0.0572  0.0000  0.0000  0.0000  0.0000  0.0000 </r>
       </set>
       <set comment="band 4">
        <r>  0.0003  0.0737  0.0472  0.0426  0.0000  0.0000  0.0000  0.0000  0.0000 </r>
        <r>  0.0003  0.0737  0.0472  0.0426  0.0000  0.0000  0.0000  0.0000  0.0000 </r>
       </set>
       <set comment="band 5">
        <r>  0.0011  0.0835  0.0003  0.0007  0.0000  0.0000  0.0000  0.0000  0.0000 </r>
        <r>  0.0011  0.0835  0.0003  0.0007  0.0000  0.0000  0.0000  0.0000  0.0000 </r>
       </set>
       <set comment="band 6">
        <r>  0.0190  0.0595  0.0141  0.0188  0.0000  0.0000  0.0000  0.0000  0.0000 </r>
        <r>  0.0190  0.0595  0.0141  0.0188  0.0000  0.0000  0.0000  0.0000  0.0000 </r>
       </set>
       <set comment="band 7">
        <r>  0.0663  0.0019  0.0446  0.0508  0.0000  0.0000  0.0000  0.0000  0.0000 </r>
        <r>  0.0663  0.0019  0.0446  0.0508  0.0000  0.0000  0.0000  0.0000  0.0000 </r>
       </set>
       <set comment="band 8">
        <r>  0.0371  0.0280  0.0460  0.0323  0.0000  0.0000  0.0000  0.0000  0.0000 </r>
        <r>  0.0370  0.0280  0.0460  0.0323  0.0000  0.0000  0.0000  0.0000  0.0000 </r>
       </set>
      </set>
      <set comment="kpoint 1095">
       <set comment="band 1">
        <r>  0.2083  0.0133  0.0005  0.0230  0.0000  0.0000  0.0000  0.0000  0.0000 </r>
        <r>  0.2083  0.0133  0.0005  0.0230  0.0000  0.0000  0.0000  0.0000  0.0000 </r>
       </set>
       <set comment="band 2">
        <r>  0.1994  0.0229  0.0005  0.0249  0.0000  0.0000  0.0000  0.0000  0.0000 </r>
        <r>  0.1994  0.0229  0.0005  0.0249  0.0000  0.0000  0.0000  0.0000  0.0000 </r>
       </set>
       <set comment="band 3">
        <r>  0.0015  0.0572  0.0633  0.0359  0.0000  0.0000  0.0000  0.0000  0.0000 </r>
        <r>  0.0015  0.0572  0.0633  0.0359  0.0000  0.0000  0.0000  0.0000  0.0000 </r>
       </set>
       <set comment="band 4">
        <r>  0.0003  0.0426  0.0737  0.0472  0.0000  0.0000  0.0000  0.0000  0.0000 </r>
        <r>  0.0003  0.0426  0.0737  0.0472  0.0000  0.0000  0.0000  0.0000  0.0000 </r>
       </set>
       <set comment="band 5">
        <r>  0.0011  0.0007  0.0835  0.0003  0.0000  0.0000  0.0000  0.0000  0.0000 </r>
        <r>  0.0011  0.0007  0.0835  0.0003  0.0000  0.0000  0.0000  0.0000  0.0000 </r>
       </set>
       <set comment="band 6">
        <r>  0.0190  0.0188  0.0595  0.0141  0.0000  0.0000  0.0000  0.0000  0.0000 </r>
        <r>  0.0190  0.0188  0.0595  0.0141  0.0000  0.0000  0.0000  0.0000  0.0000 </r>
       </set>
       <set comment="band 7">
        <r>  0.0663  0.0508  0.0019  0.0446  0.0000  0.0000  0.0000  0.0000  0.0000 </r>
        <r>  0.0663  0.0508  0.0019  0.0446  0.0000  0.0000  0.0000  0.0000  0.0000 </r>
       </set>
       <set comment="band 8">
        <r>  0.0370  0.0323  0.0280  0.0460  0.0000  0.0000  0.0000  0.0000  0.0000 </r>
        <r>  0.0370  0.0323  0.0280  0.0460  0.0000  0.0000  0.0000  0.0000  0.0000 </r>
       </set>
      </set>
      <set comment="kpoint 1096">
       <set comment="band 1">
        <r>  0.2083  0.0133  0.0230  0.0005  0.0000  0.0000  0.0000  0.0000  0.0000 </r>
        <r>  0.2083  0.0133  0.0230  0.0005  0.0000  0.0000  0.0000  0.0000  0.0000 </r>
       </set>
       <set comment="band 2">
        <r>  0.1994  0.0229  0.0249  0.0005  0.0000  0.0000  0.0000  0.0000  0.0000 </r>
        <r>  0.1994  0.0229  0.0249  0.0005  0.0000  0.0000  0.0000  0.0000  0.0000 </r>
       </set>
       <set comment="band 3">
        <r>  0.0015  0.0572  0.0359  0.0633  0.0000  0.0000  0.0000  0.0000  0.0000 </r>
        <r>  0.0015  0.0572  0.0359  0.0633  0.0000  0.0000  0.0000  0.0000  0.0000 </r>
       </set>
       <set comment="band 4">
        <r>  0.0003  0.0426  0.0472  0.0737  0.0000  0.0000  0.0000  0.0000  0.0000 </r>
        <r>  0.0003  0.0426  0.0472  0.0737  0.0000  0.0000  0.0000  0.0000  0.0000 </r>
       </set>
       <set comment="band 5">
        <r>  0.0011  0.0007  0.0003  0.0835  0.0000  0.0000  0.0000  0.0000  0.0000 </r>
        <r>  0.0011  0.0007  0.0003  0.0835  0.0000  0.0000  0.0000  0.0000  0.0000 </r>
       </set>
       <set comment="band 6">
        <r>  0.0190  0.0188  0.0141  0.0595  0.0000  0.0000  0.0000  0.0000  0.0000 </r>
        <r>  0.0190  0.0188  0.0141  0.0595  0.0000  0.0000  0.0000  0.0000  0.0000 </r>
       </set>
       <set comment="band 7">
        <r>  0.0663  0.0508  0.0446  0.0019  0.0000  0.0000  0.0000  0.0000  0.0000 </r>
        <r>  0.0663  0.0508  0.0446  0.0019  0.0000  0.0000  0.0000  0.0000  0.0000 </r>
       </set>
       <set comment="band 8">
        <r>  0.0370  0.0323  0.0460  0.0280  0.0000  0.0000  0.0000  0.0000  0.0000 </r>
        <r>  0.0370  0.0323  0.0460  0.0280  0.0000  0.0000  0.0000  0.0000  0.0000 </r>
       </set>
      </set>
      <set comment="kpoint 1097">
       <set comment="band 1">
        <r>  0.2083  0.0230  0.0005  0.0133  0.0000  0.0000  0.0000  0.0000  0.0000 </r>
        <r>  0.2083  0.0230  0.0005  0.0133  0.0000  0.0000  0.0000  0.0000  0.0000 </r>
       </set>
       <set comment="band 2">
        <r>  0.1994  0.0249  0.0005  0.0229  0.0000  0.0000  0.0000  0.0000  0.0000 </r>
        <r>  0.1994  0.0249  0.0005  0.0229  0.0000  0.0000  0.0000  0.0000  0.0000 </r>
       </set>
       <set comment="band 3">
        <r>  0.0015  0.0359  0.0633  0.0572  0.0000  0.0000  0.0000  0.0000  0.0000 </r>
        <r>  0.0015  0.0359  0.0633  0.0572  0.0000  0.0000  0.0000  0.0000  0.0000 </r>
       </set>
       <set comment="band 4">
        <r>  0.0003  0.0472  0.0737  0.0426  0.0000  0.0000  0.0000  0.0000  0.0000 </r>
        <r>  0.0003  0.0472  0.0737  0.0426  0.0000  0.0000  0.0000  0.0000  0.0000 </r>
       </set>
       <set comment="band 5">
        <r>  0.0011  0.0003  0.0835  0.0007  0.0000  0.0000  0.0000  0.0000  0.0000 </r>
        <r>  0.0011  0.0003  0.0835  0.0007  0.0000  0.0000  0.0000  0.0000  0.0000 </r>
       </set>
       <set comment="band 6">
        <r>  0.0190  0.0141  0.0595  0.0188  0.0000  0.0000  0.0000  0.0000  0.0000 </r>
        <r>  0.0190  0.0141  0.0595  0.0188  0.0000  0.0000  0.0000  0.0000  0.0000 </r>
       </set>
       <set comment="band 7">
        <r>  0.0663  0.0446  0.0019  0.0508  0.0000  0.0000  0.0000  0.0000  0.0000 </r>
        <r>  0.0663  0.0446  0.0019  0.0508  0.0000  0.0000  0.0000  0.0000  0.0000 </r>
       </set>
       <set comment="band 8">
        <r>  0.0370  0.0460  0.0280  0.0323  0.0000  0.0000  0.0000  0.0000  0.0000 </r>
        <r>  0.0370  0.0460  0.0280  0.0323  0.0000  0.0000  0.0000  0.0000  0.0000 </r>
       </set>
      </set>
      <set comment="kpoint 1098">
       <set comment="band 1">
        <r>  0.2083  0.0230  0.0133  0.0005  0.0000  0.0000  0.0000  0.0000  0.0000 </r>
        <r>  0.2083  0.0230  0.0133  0.0005  0.0000  0.0000  0.0000  0.0000  0.0000 </r>
       </set>
       <set comment="band 2">
        <r>  0.1994  0.0249  0.0229  0.0005  0.0000  0.0000  0.0000  0.0000  0.0000 </r>
        <r>  0.1994  0.0249  0.0229  0.0005  0.0000  0.0000  0.0000  0.0000  0.0000 </r>
       </set>
       <set comment="band 3">
        <r>  0.0015  0.0359  0.0572  0.0633  0.0000  0.0000  0.0000  0.0000  0.0000 </r>
        <r>  0.0015  0.0359  0.0572  0.0633  0.0000  0.0000  0.0000  0.0000  0.0000 </r>
       </set>
       <set comment="band 4">
        <r>  0.0003  0.0472  0.0426  0.0737  0.0000  0.0000  0.0000  0.0000  0.0000 </r>
        <r>  0.0003  0.0472  0.0426  0.0737  0.0000  0.0000  0.0000  0.0000  0.0000 </r>
       </set>
       <set comment="band 5">
        <r>  0.0011  0.0003  0.0007  0.0835  0.0000  0.0000  0.0000  0.0000  0.0000 </r>
        <r>  0.0011  0.0003  0.0007  0.0835  0.0000  0.0000  0.0000  0.0000  0.0000 </r>
       </set>
       <set comment="band 6">
        <r>  0.0190  0.0141  0.0188  0.0595  0.0000  0.0000  0.0000  0.0000  0.0000 </r>
        <r>  0.0190  0.0141  0.0188  0.0595  0.0000  0.0000  0.0000  0.0000  0.0000 </r>
       </set>
       <set comment="band 7">
        <r>  0.0663  0.0446  0.0508  0.0019  0.0000  0.0000  0.0000  0.0000  0.0000 </r>
        <r>  0.0663  0.0446  0.0508  0.0019  0.0000  0.0000  0.0000  0.0000  0.0000 </r>
       </set>
       <set comment="band 8">
        <r>  0.0371  0.0460  0.0323  0.0280  0.0000  0.0000  0.0000  0.0000  0.0000 </r>
        <r>  0.0370  0.0460  0.0323  0.0280  0.0000  0.0000  0.0000  0.0000  0.0000 </r>
       </set>
      </set>
      <set comment="kpoint 1099">
       <set comment="band 1">
        <r>  0.2083  0.0005  0.0133  0.0230  0.0000  0.0000  0.0000  0.0000  0.0000 </r>
        <r>  0.2083  0.0005  0.0133  0.0230  0.0000  0.0000  0.0000  0.0000  0.0000 </r>
       </set>
       <set comment="band 2">
        <r>  0.1994  0.0005  0.0229  0.0249  0.0000  0.0000  0.0000  0.0000  0.0000 </r>
        <r>  0.1994  0.0005  0.0229  0.0249  0.0000  0.0000  0.0000  0.0000  0.0000 </r>
       </set>
       <set comment="band 3">
        <r>  0.0015  0.0633  0.0572  0.0359  0.0000  0.0000  0.0000  0.0000  0.0000 </r>
        <r>  0.0015  0.0633  0.0572  0.0359  0.0000  0.0000  0.0000  0.0000  0.0000 </r>
       </set>
       <set comment="band 4">
        <r>  0.0003  0.0737  0.0426  0.0472  0.0000  0.0000  0.0000  0.0000  0.0000 </r>
        <r>  0.0003  0.0737  0.0426  0.0472  0.0000  0.0000  0.0000  0.0000  0.0000 </r>
       </set>
       <set comment="band 5">
        <r>  0.0011  0.0835  0.0007  0.0003  0.0000  0.0000  0.0000  0.0000  0.0000 </r>
        <r>  0.0011  0.0835  0.0007  0.0003  0.0000  0.0000  0.0000  0.0000  0.0000 </r>
       </set>
       <set comment="band 6">
        <r>  0.0190  0.0595  0.0188  0.0141  0.0000  0.0000  0.0000  0.0000  0.0000 </r>
        <r>  0.0190  0.0595  0.0188  0.0141  0.0000  0.0000  0.0000  0.0000  0.0000 </r>
       </set>
       <set comment="band 7">
        <r>  0.0663  0.0019  0.0508  0.0446  0.0000  0.0000  0.0000  0.0000  0.0000 </r>
        <r>  0.0663  0.0019  0.0508  0.0446  0.0000  0.0000  0.0000  0.0000  0.0000 </r>
       </set>
       <set comment="band 8">
        <r>  0.0370  0.0280  0.0323  0.0460  0.0000  0.0000  0.0000  0.0000  0.0000 </r>
        <r>  0.0370  0.0280  0.0323  0.0460  0.0000  0.0000  0.0000  0.0000  0.0000 </r>
       </set>
      </set>
     </set>
    </set>
   </array>
  </projected>
 </calculation>
 <structure name="finalpos" >
  <crystal>
   <varray name="basis" >
    <v>      -0.00000000       2.71803466       2.71803466 </v>
    <v>       2.71803466      -0.00000000       2.71803466 </v>
    <v>       2.71803466       2.71803466      -0.00000000 </v>
   </varray>
   <i name="volume">     40.16011677 </i>
   <varray name="rec_basis" >
    <v>      -0.18395645       0.18395645       0.18395645 </v>
    <v>       0.18395645      -0.18395645       0.18395645 </v>
    <v>       0.18395645       0.18395645      -0.18395645 </v>
   </varray>
  </crystal>
  <varray name="positions" >
   <v>       0.00000000       0.00000000       0.00000000 </v>
   <v>       0.25000000       0.25000000       0.25000000 </v>
  </varray>
 </structure>
</modeling>
