------------------------------------------------------------
          Invoking FHI-aims ...

          When using FHI-aims, please cite the following reference:

            Volker Blum, Ralf Gehrke, Felix Hanke, Paula Havu,
            Ville Havu, Xinguo Ren, Karsten Reuter, and Matthias Scheffler,
            'Ab Initio Molecular Simulations with Numeric Atom-Centered Orbitals',
            Computer Physics Communications 180, 2175-2196 (2009)

          In addition, many other developments in FHI-aims are likely important for
          your particular application. If so, please cite them. A partial list of references
          is written at the end of this file. Thank you for giving credit to the authors
          of these developments.

          For general information about FHI-aims please find us at

            https://fhi-aims.org

          Online tutorials can be found at

            https://fhi-aims-club.gitlab.io/tutorials/tutorials-overview/

          For any questions about FHI-aims, please visit our slack channel at

            https://fhi-aims.slack.com

          and our main development and support site at

            https://aims-git.rz-berlin.mpg.de .

          The latter site, in particular, has a wiki to collect information, as well
          as an issue tracker to log discussions, suggest improvements, and report issues
          or bugs. https://aims-git.rz-berlin.mpg.de is also the main development site
          of the project and all new and updated code versions can be obtained there.
          Please send an email to aims-coordinators@fhi-berlin.mpg.de and we will add
          you to these sites. They are for you and everyone is welcome there.

------------------------------------------------------------



  Date     :  20231009, Time     :  142734.665
  Time zero on CPU 1             :   0.239582000000000E+00  s.
  Internal wall clock time zero  :           466093654.665  s.

  FHI-aims created a unique identifier for this run for later identification
  aims_uuid : B41E629B-4F9E-43B7-A307-3FDB0CECC60B

  Build configuration of the current instance of FHI-aims
  -------------------------------------------------------
  FHI-aims version      : 230813
  Commit number         : 7484aa5be
  CMake host system     : Linux-5.15.0-78-generic
  CMake version         : 3.22.1
  Fortran compiler      : /opt/intel/oneapi/mpi/2021.10.0/bin/mpiifort (Intel) version 2021.10.0.20230609
  Fortran compiler flags: -O3 -ip -fp-model precise
  C compiler            : /opt/intel/oneapi/compiler/2023.2.1/linux/bin/intel64/icc (Intel) version 2021.10.0.20230609
  C compiler flags      : -O3 -ip -fp-model precise -std=gnu99 -diag-disable=10441
  C++ compiler          : /usr/bin/c++ (GNU) version 11.4.0
  C++ compiler flags    :
  HIP compiler          :
  HIP compiler flags    :
  HIP GPU arch          :
  Using MPI
  Using ScaLAPACK
  Using LibXC
  Using i-PI
  Using RLSY
  Linking against: /opt/intel/oneapi/mkl/latest/lib/intel64/libmkl_intel_lp64.so
                   /opt/intel/oneapi/mkl/latest/lib/intel64/libmkl_sequential.so
                   /opt/intel/oneapi/mkl/latest/lib/intel64/libmkl_core.so
                   /opt/intel/oneapi/mkl/latest/lib/intel64/libmkl_blacs_intelmpi_lp64.so
                   /opt/intel/oneapi/mkl/latest/lib/intel64/libmkl_scalapack_lp64.so

  Using        4 parallel tasks.
  Task        0 on host andrey-Latitude-5411 reporting.
  Task        1 on host andrey-Latitude-5411 reporting.
  Task        2 on host andrey-Latitude-5411 reporting.
  Task        3 on host andrey-Latitude-5411 reporting.

  Obtaining array dimensions for all initial allocations:

  -----------------------------------------------------------------------
  Parsing control.in (first pass over file, find array dimensions only).
  The contents of control.in will be repeated verbatim below
  unless switched off by setting 'verbatim_writeout .false.' .
  in the first line of control.in .
  -----------------------------------------------------------------------

  #===============================================================================
  # Created using the Atomic Simulation Environment (ASE)

  # Mon Oct  9 14:27:33 2023

  #===============================================================================
  xc                                 pbe
  relativistic                       atomic_zora scalar
  k_grid                             5 5 5
  #===============================================================================

  ################################################################################
  #
  #  FHI-aims code project
  #  VB, Fritz-Haber Institut, 2009
  #
  #  Suggested "light" defaults for Si atom (to be pasted into control.in file)
  #  Be sure to double-check any results obtained with these settings for post-processing,
  #  e.g., with the "tight" defaults and larger basis sets.
  #
  #  2020/09/08 Added f function to "light" after reinspection of Delta test outcomes.
  #             This was done for all of Al-Cl and is a tricky decision since it makes
  #             "light" calculations measurably more expensive for these elements.
  #             Nevertheless, outcomes for P, S, Cl (and to some extent, Si) appear
  #             to justify this choice.
  #
  ################################################################################
    species        Si
  #     global species definitions
      nucleus             14
      mass                28.0855
  #
      l_hartree           4
  #
      cut_pot             3.5          1.5  1.0
      basis_dep_cutoff    1e-4
  #
      radial_base         42 5.0
      radial_multiplier   1
      angular_grids       specified
        division   0.5866   50
        division   0.9616  110
        division   1.2249  194
        division   1.3795  302
  #      division   1.4810  434
  #      division   1.5529  590
  #      division   1.6284  770
  #      division   1.7077  974
  #      division   2.4068 1202
  #      outer_grid   974
        outer_grid 302
  ################################################################################
  #
  #  Definition of "minimal" basis
  #
  ################################################################################
  #     valence basis states
      valence      3  s   2.
      valence      3  p   2.
  #     ion occupancy
      ion_occ      3  s   1.
      ion_occ      3  p   1.
  ################################################################################
  #
  #  Suggested additional basis functions. For production calculations,
  #  uncomment them one after another (the most important basis functions are
  #  listed first).
  #
  #  Constructed for dimers: 1.75 A, 2.0 A, 2.25 A, 2.75 A, 3.75 A
  #
  ################################################################################
  #  "First tier" - improvements: -571.96 meV to -37.03 meV
       hydro 3 d 4.2
       hydro 2 p 1.4
       hydro 4 f 6.2
       ionic 3 s auto
  #  "Second tier" - improvements: -16.76 meV to -3.03 meV
  #     hydro 3 d 9
  #     hydro 5 g 9.4
  #     hydro 4 p 4
  #     hydro 1 s 0.65
  #  "Third tier" - improvements: -3.89 meV to -0.60 meV
  #     ionic 3 d auto
  #     hydro 3 s 2.6
  #     hydro 4 f 8.4
  #     hydro 3 d 3.4
  #     hydro 3 p 7.8
  #  "Fourth tier" - improvements: -0.33 meV to -0.11 meV
  #     hydro 2 p 1.6
  #     hydro 5 g 10.8
  #     hydro 5 f 11.2
  #     hydro 3 d 1
  #     hydro 4 s 4.5
  #  Further basis functions that fell out of the optimization - noise
  #  level... < -0.08 meV
  #     hydro 4 d 6.6
  #     hydro 5 g 16.4
  #     hydro 4 d 9

  -----------------------------------------------------------------------
  Completed first pass over input file control.in .
  -----------------------------------------------------------------------


  -----------------------------------------------------------------------
  Parsing geometry.in (first pass over file, find array dimensions only).
  The contents of geometry.in will be repeated verbatim below
  unless switched off by setting 'verbatim_writeout .false.' .
  in the first line of geometry.in .
  -----------------------------------------------------------------------

  #===============================================================================
  # Created using the Atomic Simulation Environment (ASE)

  # Mon Oct  9 14:27:33 2023

  #=======================================================
  lattice_vector 0.0000000000000000 2.7149999999999999 2.7149999999999999
  lattice_vector 2.7149999999999999 0.0000000000000000 2.7149999999999999
  lattice_vector 2.7149999999999999 2.7149999999999999 0.0000000000000000
  atom_frac 0.0000000000000000 0.0000000000000000 -0.0000000000000000 Si
  atom_frac 0.2500000000000000 0.2500000000000000 0.2500000000000000 Si

  -----------------------------------------------------------------------
  Completed first pass over input file geometry.in .
  -----------------------------------------------------------------------


  Basic array size parameters:
  | Number of species                 :        1
  | Number of atoms                   :        2
  | Number of lattice vectors         :        3
  | Max. basis fn. angular momentum   :        3
  | Max. atomic/ionic basis occupied n:        3
  | Max. number of basis fn. types    :        3
  | Max. radial fns per species/type  :        5
  | Max. logarithmic grid size        :     1346
  | Max. radial integration grid size :       42
  | Max. angular integration grid size:      302
  | Max. angular grid division number :        8
  | Radial grid for Hartree potential :     1346
  | Number of spin channels           :        1

------------------------------------------------------------
          Reading file control.in.
------------------------------------------------------------
  XC: Using PBE gradient-corrected functionals.
  Scalar relativistic treatment of kinetic energy: on-site free-atom approximation to ZORA.
  Found k-point grid:         5         5         5

  Reading configuration options for species Si                  .
  | Found nuclear charge :  14.0000
  | Found atomic mass :    28.0855000000000      amu
  | Found l_max for Hartree potential  :   4
  | Found cutoff potl. onset [A], width [A], scale factor :    3.50000    1.50000    1.00000
  | Threshold for basis-dependent cutoff potential is   0.100000E-03
  | Found data for basic radial integration grid :    42 points, outermost radius =    5.000 A
  | Found multiplier for basic radial grid :   1
  | Found angular grid specification: user-specified.
  | Specified grid contains     5 separate shells.
  | Check grid settings after all constraints further below.
  | Found free-atom valence shell :  3 s   2.000
  | Found free-atom valence shell :  3 p   2.000
  | Found free-ion valence shell :  3 s   1.000
  | Found free-ion valence shell :  3 p   1.000
  | Found hydrogenic basis function :  3 d   4.200
  | Found hydrogenic basis function :  2 p   1.400
  | Found hydrogenic basis function :  4 f   6.200
  | Found ionic basis function :  3 s , default cutoff radius.
  Species Si                  : Missing cutoff potential type.
  Defaulting to exp(1/x)/(1-x)^2 type cutoff potential.
  Species Si: No 'logarithmic' tag. Using default grid for free atom:
  | Default logarithmic grid data [bohr] : 0.1000E-03 0.1000E+03 0.1012E+01
  | Will include ionic basis functions of  2.0-fold positive Si                   ion.
  Species Si: On-site basis accuracy parameter (for Gram-Schmidt orthonormalisation) not specified.
  Using default value basis_acc =  0.1000000E-03.
  Species Si                  : Using default innermost maximum threshold i_radial=  2 for radial functions.
  Species Si                  : Default cutoff onset for free atom density etc. : 0.35000000E+01 AA.
  Species Si                  : Basic radial grid will be enhanced according to radial_multiplier =   1, to contain    42 grid points.

  Finished reading input file 'control.in'.

------------------------------------------------------------


------------------------------------------------------------
          Reading geometry description geometry.in.
------------------------------------------------------------
  | The smallest distance between any two atoms is         2.35125897 AA.
  | The first atom of this pair is atom number                      1 .
  | The second atom of this pair is atom number                     2 .
  | Wigner-Seitz cell of the first atom image           0     1     0 .
  | (The Wigner-Seitz cell of the second atom is 0 0 0  by definition.)

  Symmetry information by spglib:
  | Precision set to  0.1E-04
  | Number of Operations  : 48
  | Space group           : 227
  | International         : Fd-3m
  | Schoenflies           : Oh^7
  Input structure read successfully.
  The structure contains        2 atoms,  and a total of         28.000 electrons.

  Input geometry:
  | Unit cell:
  |        0.00000000        2.71500000        2.71500000
  |        2.71500000        0.00000000        2.71500000
  |        2.71500000        2.71500000        0.00000000
  | Atomic structure:
  |       Atom                x [A]            y [A]            z [A]
  |    1: Species Si            0.00000000        0.00000000        0.00000000
  |    2: Species Si            1.35750000        1.35750000        1.35750000

  Lattice parameters for 3D lattice (in Angstroms) :     3.839590    3.839590    3.839590
  Angle(s) between unit vectors (in degrees)       :    60.000000   60.000000   60.000000


  Quantities derived from the lattice vectors (in Angstrom^-1):
  | Reciprocal lattice vector 1: -1.157124  1.157124  1.157124
  | Reciprocal lattice vector 2:  1.157124 -1.157124  1.157124
  | Reciprocal lattice vector 3:  1.157124  1.157124 -1.157124
  | Unit cell volume                               :   0.400258E+02  Angstrom^3

  Fractional coordinates:
                         L1                L2                L3
       atom_frac         0.00000000        0.00000000        0.00000000  Si
       atom_frac         0.25000000        0.25000000        0.25000000  Si


  Finished reading input file 'geometry.in'.



  Consistency checks for stacksize environment parameter are next.

  | Maximum stacksize for task 0: unlimited
  | Maximum stacksize for task 1: unlimited
  | Maximum stacksize for task 2: unlimited
  | Maximum stacksize for task 3: unlimited
  | Current stacksize for task 0: unlimited
  | Current stacksize for task 1: unlimited
  | Current stacksize for task 2: unlimited
  | Current stacksize for task 3: unlimited

  Consistency checks for the contents of control.in are next.

  MPI_IN_PLACE appears to work with this MPI implementation.
  | Keeping use_mpi_in_place .true. (see manual).
  Target number of points in a grid batch is not set. Defaulting to  100
  Method for grid partitioning is not set. Defaulting to parallel hash+maxmin partitioning.
  Batch size limit is not set. Defaulting to    200
  By default, will store active basis functions for each batch.
  If in need of memory, prune_basis_once .false. can be used to disable this option.
  communication_type for Hartree potential was not specified.
  Defaulting to calc_hartree .
  Defaulting to Pulay charge density mixer.
  Pulay mixer: Number of relevant iterations not set.
  Defaulting to    8 iterations.
  Pulay mixer: Number of initial linear mixing iterations not set.
  Defaulting to    0 iterations.
  Work space size for distributed Hartree potential not set.
  Defaulting to   0.200000E+03 MB.
  Mixing parameter for charge density mixing has not been set.
  Using default: charge_mix_param =     0.0500.
  The mixing parameter will be adjusted in iteration number     2 of the first full s.c.f. cycle only.
  Algorithm-dependent basis array size parameters:
  | n_max_pulay                         :        8
  Maximum number of self-consistency iterations not provided.
  Presetting  1000 iterations.
  Presetting      1001 iterations before the initial mixing cycle
  is restarted anyway using the sc_init_iter criterion / keyword.
  Presetting a factor      1.000 between actual scf density residual
  and density convergence criterion sc_accuracy_rho below which sc_init_iter
  takes no effect.
 * No s.c.f. convergence criteria (sc_accuracy_*) were provided in control.in.
 * The run will proceed with a reasonable default guess, but please check whether.
 * the s.c.f. cycles seem to take too much or too little time.
  Calculation of forces was not defined in control.in. No forces will be calculated.
  Geometry relaxation not requested: no relaxation will be performed.
 * Notice: The s.c.f. convergence criterion sc_accuracy_rho was not provided.
 * We used to stop in this case, and ask the user to provide reasonable
 * scf convergence criteria. However, this led some users to employ criteria
 * that led to extremely long run times, e.g., for simple relaxation.
 * We now preset a default value for sc_accuracy_rho if it is not set.
 * You may still wish to check if this setting is too tight or too loose for your needs.
 * Based on n_atoms and forces and force-correction status, FHI-aims chose sc_accuracy_rho =  0.800000E-05 .
  No accuracy limit for integral partition fn. given. Defaulting to  0.1000E-14.
  No threshold value for u(r) in integrations given. Defaulting to  0.1000E-05.
  No occupation type (smearing scheme) given. Defaulting to Gaussian broadening, width =  0.1000E-01 eV.
  The width will be adjusted in iteration number     2 of the first full s.c.f. cycle only.
  S.C.F. convergence parameters will be adjusted in iteration number     2 of the first full s.c.f. cycle only.
  No accuracy for occupation numbers given. Defaulting to  0.1000E-12.
  No threshold value for occupation numbers given. Defaulting to  0.0000E+00.
  No accuracy for fermi level given. Defaulting to  0.1000E-19.
  Maximum # of iterations to find E_F not set. Defaulting to  200.
  Preferred method for the eigenvalue solver ('KS_method') not specified in 'control.in'.
  Defaulting to serial version, LAPACK (via ELSI), since more k-points than CPUs available.
  Will not use alltoall communication since running on < 1024 CPUs.
  Threshold for basis singularities not set.
  Default threshold for basis singularities:  0.1000E-04
  partition_type (choice of integration weights) for integrals was not specified.
  | Using a version of the partition function of Stratmann and coworkers ('stratmann_sparse').
  | At each grid point, the set of atoms used to build the partition table is smoothly restricted to
  | only those atoms whose free-atom density would be non-zero at that grid point.
  Partitioning for Hartree potential was not defined. Using partition_type for integrals.
  | Adjusted default value of keyword multip_moments_threshold to:       0.10000000E-11
  | This value may affect high angular momentum components of the Hartree potential in periodic systems.
  Spin handling was not defined in control.in. Defaulting to unpolarized case.
  Angular momentum expansion for Kerker preconditioner not set explicitly.
  | Using default value of   0
  No explicit requirement for turning off preconditioner.
  | By default, it will be turned off when the charge convergence reaches
  | sc_accuracy_rho  =   0.800000E-05
  No special mixing parameter while Kerker preconditioner is on.
  Using default: charge_mix_param =     0.0500.
  No q(lm)/r^(l+1) cutoff set for long-range Hartree potential.
  | Using default value of  0.100000E-09 .
  | Verify using the multipole_threshold keyword.
  Defaulting to new monopole extrapolation.
  Density update method: automatic selection selected.
  Using density matrix based charge density update.
  Using density matrix based charge density update.
  Using packed matrix style: index .
  Defaulting to use time-reversal symmetry for k-point grid.
  Charge integration errors on the 3D integration grid will be compensated
  by explicit normalization and distribution of residual charges.
  Use the "compensate_multipole_errors" flag to change this behaviour.
  Set 'collect_eigenvectors' to be '.true.' for all serial calculations. This is mandatory.
  Set 'collect_eigenvectors' to be '.true.' for KS_method lapack_fast and serial.

  Consistency checks for the contents of geometry.in are next.


  Range separation radius for Ewald summation (hartree_convergence_parameter):      3.88818726 bohr.
  Number of empty states per atom not set in control.in - providing a guess from actual geometry.
  | Total number of empty states used during s.c.f. cycle:        6
  If you use a very high smearing, use empty_states (per atom!) in control.in to increase this value.

  Structure-dependent array size parameters:
  | Maximum number of distinct radial functions  :        9
  | Maximum number of basis functions            :       50
  | Number of Kohn-Sham states (occupied + empty):       20
------------------------------------------------------------
  After read_input_data [GB]:     22.32

  Performing system and environment tests:
  | Environment variable OMP_NUM_THREADS correctly set to 1.
  | Checking for ScaLAPACK...
  | Testing pdtran()...
  | All pdtran() tests passed.
  After prepare_system [GB]:     22.29

------------------------------------------------------------
          Preparing all fixed parts of the calculation.
------------------------------------------------------------
  Determining machine precision:
    2.225073858507201E-308
  Setting up grids for atomic and cluster calculations.

  Creating wave function, potential, and density for free atoms.
  Runtime choices for atomic solver:
  | atomic solver xc        : PBE
  | compute density gradient: 1
  | compute kinetic density : F

  Species: Si

  List of occupied orbitals and eigenvalues:
    n    l              occ      energy [Ha]    energy [eV]
    1    0           2.0000       -65.767597     -1789.6274
    2    0           2.0000        -5.115610      -139.2028
    3    0           2.0000        -0.388877       -10.5819
    2    1           6.0000        -3.500197       -95.2452
    3    1           2.0000        -0.140803        -3.8315


  Adding cutoff potential to free-atom effective potential.
  Creating fixed part of basis set: Ionic, confined, hydrogenic.

  Si                   ion:

  List of free ionic orbitals and eigenvalues:
    n    l      energy [Ha]    energy [eV]
    1    0       -66.641157     -1813.3982
    2    0        -5.964274      -162.2962
    3    0        -1.073878       -29.2217
    2    1        -4.350005      -118.3697
    3    1        -0.776571       -21.1316


  List of ionic basis orbitals and eigenvalues:
    n    l      energy [Ha]    energy [eV]    outer radius [A]
    3    0        -1.073857       -29.2211       4.214062


  Si                   hydrogenic:

  List of hydrogenic basis orbitals:
    n    l      effective z      eigenvalue [eV]  inner max. [A]     outer max. [A]     outer radius [A]
    3    2         4.200000       -26.6624           1.139231           1.139231           4.534782
    2    1         1.400000        -6.4613           1.472672           1.472672           4.590560
    4    3         6.200000       -32.6778           1.368518           1.368518           4.534782

  Creating atomic-like basis functions for current effective potential.

  Species Si                  :

  List of atomic basis orbitals and eigenvalues:
    n    l      energy [Ha]    energy [eV]    outer radius [A]
    1    0       -65.767597     -1789.6274       0.789468
    2    0        -5.115610      -139.2028       2.815114
    3    0        -0.388877       -10.5819       4.534782
    2    1        -3.500197       -95.2452       3.259919
    3    1        -0.140803        -3.8315       4.590560

  Assembling full basis from fixed parts.
  | Species Si :   atomic orbital   1 s accepted.
  | Species Si :   atomic orbital   2 s accepted.
  | Species Si :    ionic orbital   3 s accepted.
  | Species Si :   atomic orbital   3 s accepted.
  | Species Si :   atomic orbital   2 p accepted.
  | Species Si :   atomic orbital   3 p accepted.
  | Species Si :    hydro orbital   2 p accepted.
  | Species Si :    hydro orbital   3 d accepted.
  | Species Si :    hydro orbital   4 f accepted.

  Basis size parameters after reduction:
  | Total number of radial functions:        9
  | Total number of basis functions :       50

  Per-task memory consumption for arrays in subroutine allocate_ext:
  |           3.102808MB.
  Testing on-site integration grid accuracy.
  |  Species  Function  <phi|h_atom|phi> (log., in eV)  <phi|h_atom|phi> (rad., in eV)
           1        1              -1789.6273740966              -1789.6266345813
           1        2               -139.2028173376               -139.2028132357
           1        3                -10.2237226190                -10.2235219160
           1        4                  5.6355365073                  5.5558633521 ***
           1        5                -95.2452114632                -95.2452114537
           1        6                 -3.8413965043                 -3.8571292824
           1        7                  6.4035522332                  6.2277973139 ***
           1        8                  6.3860095444                  6.3839142324
           1        9                 19.3722793793                 19.3677446767
 * Note: Onsite integrals marked "***" above are less accurate than
 * onsite_accuracy_threshold =    0.03000 eV. Usually, this is harmless.
 * When in doubt, tighten the "radial" and/or "radial_multiplier" flags to check.

  Preparing densities etc. for the partition functions (integrals / Hartree potential).

  Preparations completed.
  max(cpu_time)          :      0.112 s.
  Wall clock time (cpu1) :      0.112 s.
------------------------------------------------------------
  After prepare_scf [GB]:     22.25

  Initializing index lists of integration centers etc. from given atomic structure:
  Mapping all atomic coordinates to central unit cell.

  Initializing the k-points
  Using symmetry for reducing the k-points
  | k-points reduced from:      125 to       63
  | Number of k-points                             :        63
  The eigenvectors in the calculations are COMPLEX.
  | K-points in task   0:        15
  | K-points in task   1:        16
  | K-points in task   2:        16
  | K-points in task   3:        16
  | Number of basis functions in the Hamiltonian integrals :      2179
  | Number of basis functions in a single unit cell        :        50
  | Number of centers in hartree potential         :       732
  | Number of centers in hartree multipole         :       318
  | Number of centers in electron density summation:       198
  | Number of centers in basis integrals           :       228
  | Number of centers in integrals                 :       101
  | Number of centers in hamiltonian               :       198
  | Consuming        110 KiB for k_phase.
  | Number of super-cells (origin) [n_cells]                     :        2197
  | Number of super-cells (after PM_index) [n_cells]             :         112
  | Number of super-cells in hamiltonian [n_cells_in_hamiltonian]:         112
  | Size of matrix packed + index [n_hamiltonian_matrix_size] :       89403
  After initialize_bc_dependent_lists [GB]:     22.24

------------------------------------------------------------
          Begin self-consistency loop: Initialization.

          Date     :  20231009, Time     :  142734.828
------------------------------------------------------------
  Available memory per node after initialize_hartree_non_periodic_ewald [GB]:     22.24
  | Estimated reciprocal-space cutoff momentum G_max:         2.40094914 bohr^-1 .
  | Reciprocal lattice points for long-range Hartree potential:      58
  Available memory per node after initialize_recip_hartree_potential [GB]:     22.24
  Available memory per node after initialize_scalapack [GB]:     22.24
  Available memory per node after aims_elsi_init_scf [GB]:     22.24
  Available memory per node after initialize_fixed_grids [GB]:     22.24
  Partitioning the integration grid into batches with parallel hashing+maxmin method.
  | Number of batches:      141
  | Maximal batch size:     107
  | Minimal batch size:      50
  | Average batch size:      79.489
  | Standard deviation of batch sizes:      15.046

  Integration load balanced across     4 MPI tasks.
  Work distribution over tasks is as follows:
  Task     0 has       2848 integration points.
  Task     1 has       2793 integration points.
  Task     2 has       2765 integration points.
  Task     3 has       2802 integration points.
  Available memory per node after partition_grid [GB]:     22.24
  Initializing partition tables, free-atom densities, potentials, etc. across the integration grid (initialize_grid_storage).
  | initialize_grid_storage: Actual outermost partition radius vs. multipole_radius_free
  | (-- VB: in principle, multipole_radius_free should be larger, hence this output)
  | Species        1: Confinement radius =              4.999999999999999 AA, multipole_radius_free =              5.000694715736543 AA.
  | Species        1: outer_partition_radius set to              5.000694715736543 AA .
  | The sparse table of interatomic distances needs        255.65 kbyte instead of       415.87 kbyte of memory.
  | Net number of integration points:    11208
  | of which are non-zero points    :     9820
  | Numerical average free-atom electrostatic potential    :    -13.13394093 eV
  Available memory per node after initialize_grid_storage_p1 [GB]:     22.23
  Renormalizing the initial density to the exact electron count on the 3D integration grid.
  | Initial density: Formal number of electrons (from input files) :      28.0000000000
  | Integrated number of electrons on 3D grid     :      28.0049838157
  | Charge integration error                      :       0.0049838157
  | Normalization factor for density and gradient :       0.9998220383
  Renormalizing the free-atom superposition density to the exact electron count on the 3D integration grid.
  | Formal number of electrons (from input files) :      28.0000000000
  | Integrated number of electrons on 3D grid     :      28.0049838157
  | Charge integration error                      :       0.0049838157
  | Normalization factor for density and gradient :       0.9998220383
  Obtaining max. number of non-zero basis functions in each batch (get_n_compute_maxes).
  | Maximal number of non-zero basis functions:      694 in task     0
  | Maximal number of non-zero basis functions:      694 in task     1
  | Maximal number of non-zero basis functions:      691 in task     2
  | Maximal number of non-zero basis functions:      685 in task     3
  Available memory per node after get_n_compute_maxes_p1 [GB]:     22.23
  Allocating        0.229 MB for KS_eigenvector_complex
  Available memory per node after allocate_matrices [GB]:     22.23
  Available memory per node after init_comm_sparse_local_matrix_scalapack [GB]:     22.23
  Integrating Hamiltonian matrix: batch-based integration.
  Time summed over all CPUs for integration: real work        0.765 s, elapsed        0.802 s
  Available memory per node after integrate hamiltonian matrix [GB]:     22.20
  Integrating overlap matrix.
  Time summed over all CPUs for integration: real work        0.674 s, elapsed        0.677 s
  Available memory per node after integrate ovlp matrix [GB]:     22.20
  Available memory per node after ASI_callbacks invoke [GB]:     22.20
  Decreasing sparse matrix size:
  | Tolerance:  0.1000E-12
  Hamiltonian matrix
  | Array has    77221 nonzero elements out of    89403 elements
  | Sparsity factor is 0.136
  Overlap matrix
  | Array has    74518 nonzero elements out of    89403 elements
  | Sparsity factor is 0.166
  New size of hamiltonian matrix:       77719
  Available memory per node after save_overlap_scalapack [GB]:     22.20

  Updating Kohn-Sham eigenvalues and eigenvectors using ELSI and the (modified) LAPACK eigensolver.
  Singularity check in k-point 4, task 0 (analysis for other k-points/tasks may follow below):
  Overlap matrix is not singular
  | Lowest and highest eigenvalues :  0.9814E-03,  0.6764E+01
  Finished singularity check of overlap matrix
  | Time :     0.001 s
  Starting LAPACK eigensolver
  Finished Cholesky decomposition
  | Time :     0.000 s
  Finished transformation to standard eigenproblem
  | Time :     0.000 s
  Finished solving standard eigenproblem
  | Time :     0.001 s
  Finished back-transformation of eigenvectors
  | Time :     0.000 s

  Obtaining occupation numbers and electronic chemical potential using ELSI.
  | Note that, for insulating systems, the printed 'chemical potential' value is not uniquely defined.
  | It can be anywhere in the energy gap, as long as it correctly separates occupied and unoccupied states.
  | In systems with a gap, the physically relevant chemical potential is the VBM or HOMO.

  | Chemical potential (Fermi level):    -5.72125725 eV
  Available memory per node after advance_KS_solution [GB]:     22.20
  Writing Kohn-Sham eigenvalues.
  K-point:       1 at    0.000000    0.000000    0.000000 (in units of recip. lattice)

  State    Occupation    Eigenvalue [Ha]    Eigenvalue [eV]
      1       2.00000         -65.789115        -1790.21291
      2       2.00000         -65.789115        -1790.21291
      3       2.00000          -5.141764         -139.91451
      4       2.00000          -5.141478         -139.90674
      5       2.00000          -3.526367          -95.95733
      6       2.00000          -3.526367          -95.95733
      7       2.00000          -3.526367          -95.95733
      8       2.00000          -3.525741          -95.94029
      9       2.00000          -3.525741          -95.94029
     10       2.00000          -3.525741          -95.94029
     11       2.00000          -0.662177          -18.01875
     12       2.00000          -0.226113           -6.15285
     13       2.00000          -0.226113           -6.15285
     14       2.00000          -0.226113           -6.15285
     15       0.00000          -0.123886           -3.37110
     16       0.00000          -0.123886           -3.37110
     17       0.00000          -0.123886           -3.37110
     18       0.00000          -0.102335           -2.78468
     19       0.00000           0.072041            1.96033
     20       0.00000           0.072041            1.96033

  What follows are estimated values for band gap, HOMO, LUMO, etc.
  | They are estimated on a discrete k-point grid and not necessarily exact.
  | For converged numbers, create a DOS and/or band structure plot on a denser k-grid.

  Highest occupied state (VBM) at     -6.15284783 eV (relative to internal zero)
  | Occupation number:      2.00000000
  | K-point:       1 at    0.000000    0.000000    0.000000 (in units of recip. lattice)

  Lowest unoccupied state (CBM) at    -5.28294343 eV (relative to internal zero)
  | Occupation number:      0.00000000
  | K-point:       9 at    0.000000    0.400000    0.400000 (in units of recip. lattice)

  ESTIMATED overall HOMO-LUMO gap:      0.86990440 eV between HOMO at k-point 1 and LUMO at k-point 9
  | This appears to be an indirect band gap.
  | Smallest direct gap :      2.78175086 eV for k_point 1 at    0.000000    0.000000    0.000000 (in units of recip. lattice)
  The gap value is above 0.2 eV. Unless you are using a very sparse k-point grid,
  this system is most likely an insulator or a semiconductor.
  Calculating total energy contributions from superposition of free atom densities.

  Total energy components:
  | Sum of eigenvalues            :        -329.30768503 Ha       -8960.91803628 eV
  | XC energy correction          :         -41.72346576 Ha       -1135.35326941 eV
  | XC potential correction       :          53.88391950 Ha        1466.25605176 eV
  | Free-atom electrostatic energy:        -263.59230454 Ha       -7172.71155008 eV
  | Hartree energy correction     :           0.00000000 Ha           0.00000000 eV
  | Entropy correction            :           0.00000000 Ha           0.00000000 eV
  | ---------------------------
  | Total energy                  :        -580.73953584 Ha      -15802.72680401 eV
  | Total energy, T -> 0          :        -580.73953584 Ha      -15802.72680401 eV  <-- do not rely on this value for anything but (periodic) metals
  | Electronic free energy        :        -580.73953584 Ha      -15802.72680401 eV

  Derived energy quantities:
  | Kinetic energy                :         582.31303193 Ha       15845.54381124 eV
  | Electrostatic energy          :       -1121.32910201 Ha      -30512.91734584 eV
  | Energy correction for multipole
  | error in Hartree potential    :           0.00000000 Ha           0.00000000 eV
  | Sum of eigenvalues per atom                           :       -4480.45901814 eV
  | Total energy (T->0) per atom                          :       -7901.36340200 eV  <-- do not rely on this value for anything but (periodic) metals
  | Electronic free energy per atom                       :       -7901.36340200 eV
  Initialize hartree_potential_storage
  Max. number of atoms included in rho_multipole:            2

  End scf initialization - timings             :  max(cpu_time)    wall_clock(cpu1)
  | Time for scf. initialization                :        0.509 s           0.509 s
  | Boundary condition initialization           :        0.025 s           0.024 s
  | Integration                                 :        0.374 s           0.374 s
  | Solution of K.-S. eqns.                     :        0.026 s           0.025 s
  | Grid partitioning                           :        0.018 s           0.017 s
  | Preloading free-atom quantities on grid     :        0.076 s           0.076 s
  | Free-atom superposition energy              :        0.013 s           0.014 s
  | Total energy evaluation                     :        0.000 s           0.000 s

  Partial memory accounting:
  | Current value for overall tracked memory usage:
  |   Minimum:        1.745 MB (on task 0)
  |   Maximum:        1.760 MB (on task 1)
  |   Average:        1.756 MB
  | Peak value for overall tracked memory usage:
  |   Minimum:        7.256 MB (on task 3 after allocating wave)
  |   Maximum:        7.373 MB (on task 1 after allocating wave)
  |   Average:        7.330 MB
  | Largest tracked array allocation so far:
  |   Minimum:        3.580 MB (hamiltonian_shell on task 3)
  |   Maximum:        3.675 MB (hamiltonian_shell on task 0)
  |   Average:        3.643 MB
  Note:  These values currently only include a subset of arrays which are explicitly tracked.
  The "true" memory usage will be greater.
------------------------------------------------------------
  Available memory after initialize_scf [GB]:     22.20
  Available memory after allocating mixing [GB]:     22.20
  Evaluating new KS density using the density matrix
  Evaluating density matrix
  Time summed over all CPUs for getting density from density matrix: real work        1.677 s, elapsed        1.713 s
  Integration grid: deviation in total charge (<rho> - N_e) =   7.105427E-15

  Time for density update prior                :  max(cpu_time)    wall_clock(cpu1)
  | self-consistency iterative process          :        0.433 s           0.433 s
  Available memory before start of SCF loop [GB]:     22.19

------------------------------------------------------------
          Begin self-consistency iteration #    1

  Date     :  20231009, Time     :  142735.770
------------------------------------------------------------
  Pulay mixing of updated and previous charge densities.
  Available memory per node after mixing [GB]:     22.19
  Renormalizing the density to the exact electron count on the 3D integration grid.
  | Formal number of electrons (from input files) :      28.0000000000
  | Integrated number of electrons on 3D grid     :      27.9997751829
  | Charge integration error                      :      -0.0002248171
  | Normalization factor for density and gradient :       1.0000080292

  Evaluating partitioned Hartree potential by multipole expansion.
  | Original multipole sum: apparent total charge =  -0.199753E-14
  | Sum of charges compensated after spline to logarithmic grids =  -0.435833E-05
  | Analytical far-field extrapolation by fixed multipoles:
  | Hartree multipole sum: apparent total charge =   0.000000E+00
  Summing up the Hartree potential.
  Time summed over all CPUs for potential: real work        0.036 s, elapsed        0.037 s
  | RMS charge density error from multipole expansion :   0.560637E-03
  | Average real-space part of the electrostatic potential :      0.01953545 eV

  Integrating Hamiltonian matrix: batch-based integration.
  Time summed over all CPUs for integration: real work        0.705 s, elapsed        0.733 s

  Updating Kohn-Sham eigenvalues and eigenvectors using ELSI and the (modified) LAPACK eigensolver.
  Starting LAPACK eigensolver
  Finished Cholesky decomposition
  | Time :     0.000 s
  Finished transformation to standard eigenproblem
  | Time :     0.000 s
  Finished solving standard eigenproblem
  | Time :     0.000 s
  Finished back-transformation of eigenvectors
  | Time :     0.000 s

  Obtaining occupation numbers and electronic chemical potential using ELSI.
  | Note that, for insulating systems, the printed 'chemical potential' value is not uniquely defined.
  | It can be anywhere in the energy gap, as long as it correctly separates occupied and unoccupied states.
  | In systems with a gap, the physically relevant chemical potential is the VBM or HOMO.

  | Chemical potential (Fermi level):    -5.69161616 eV
  Writing Kohn-Sham eigenvalues.
  K-point:       1 at    0.000000    0.000000    0.000000 (in units of recip. lattice)

  State    Occupation    Eigenvalue [Ha]    Eigenvalue [eV]
      1       2.00000         -65.786605        -1790.14459
      2       2.00000         -65.786605        -1790.14459
      3       2.00000          -5.139953         -139.86525
      4       2.00000          -5.139668         -139.85748
      5       2.00000          -3.524499          -95.90650
      6       2.00000          -3.524499          -95.90650
      7       2.00000          -3.524499          -95.90650
      8       2.00000          -3.523873          -95.88946
      9       2.00000          -3.523873          -95.88946
     10       2.00000          -3.523873          -95.88946
     11       2.00000          -0.661393          -17.99741
     12       2.00000          -0.225084           -6.12485
     13       2.00000          -0.225084           -6.12485
     14       2.00000          -0.225084           -6.12485
     15       0.00000          -0.123283           -3.35470
     16       0.00000          -0.123283           -3.35470
     17       0.00000          -0.123283           -3.35470
     18       0.00000          -0.101149           -2.75240
     19       0.00000           0.072604            1.97566
     20       0.00000           0.072604            1.97566

  What follows are estimated values for band gap, HOMO, LUMO, etc.
  | They are estimated on a discrete k-point grid and not necessarily exact.
  | For converged numbers, create a DOS and/or band structure plot on a denser k-grid.

  Highest occupied state (VBM) at     -6.12484824 eV (relative to internal zero)
  | Occupation number:      2.00000000
  | K-point:       1 at    0.000000    0.000000    0.000000 (in units of recip. lattice)

  Lowest unoccupied state (CBM) at    -5.27239979 eV (relative to internal zero)
  | Occupation number:      0.00000000
  | K-point:      55 at    0.600000    0.600000    0.000000 (in units of recip. lattice)

  ESTIMATED overall HOMO-LUMO gap:      0.85244845 eV between HOMO at k-point 1 and LUMO at k-point 55
  | This appears to be an indirect band gap.
  | Smallest direct gap :      2.77014669 eV for k_point 1 at    0.000000    0.000000    0.000000 (in units of recip. lattice)
  The gap value is above 0.2 eV. Unless you are using a very sparse k-point grid,
  this system is most likely an insulator or a semiconductor.

  Total energy components:
  | Sum of eigenvalues            :        -329.26130941 Ha       -8959.65609135 eV
  | XC energy correction          :         -41.72681058 Ha       -1135.44428667 eV
  | XC potential correction       :          53.88824614 Ha        1466.37378562 eV
  | Free-atom electrostatic energy:        -263.59230454 Ha       -7172.71155008 eV
  | Hartree energy correction     :          -0.04679054 Ha          -1.27323548 eV
  | Entropy correction            :           0.00000000 Ha           0.00000000 eV
  | ---------------------------
  | Total energy                  :        -580.73896894 Ha      -15802.71137796 eV
  | Total energy, T -> 0          :        -580.73896894 Ha      -15802.71137796 eV  <-- do not rely on this value for anything but (periodic) metals
  | Electronic free energy        :        -580.73896894 Ha      -15802.71137796 eV

  Derived energy quantities:
  | Kinetic energy                :         582.33147026 Ha       15846.04554363 eV
  | Electrostatic energy          :       -1121.34362862 Ha      -30513.31263493 eV
  | Energy correction for multipole
  | error in Hartree potential    :           0.00072132 Ha           0.01962809 eV
  | Sum of eigenvalues per atom                           :       -4479.82804568 eV
  | Total energy (T->0) per atom                          :       -7901.35568898 eV  <-- do not rely on this value for anything but (periodic) metals
  | Electronic free energy per atom                       :       -7901.35568898 eV
  Evaluating new KS density using the density matrix
  Evaluating density matrix
  Time summed over all CPUs for getting density from density matrix: real work        1.624 s, elapsed        1.660 s
  Integration grid: deviation in total charge (<rho> - N_e) =  -2.842171E-14

  Self-consistency convergence accuracy:
  | Change of charge density      :  0.1138E+00
  | Change of unmixed KS density  :  0.3262E+02
  | Change of sum of eigenvalues  :  0.1262E+01 eV
  | Change of total energy        :  0.1543E-01 eV


------------------------------------------------------------
  End self-consistency iteration #     1       :  max(cpu_time)    wall_clock(cpu1)
  | Time for this iteration                     :        0.705 s           0.705 s
  | Charge density update                       :        0.419 s           0.419 s
  | Density mixing & preconditioning            :        0.049 s           0.049 s
  | Hartree multipole update                    :        0.000 s           0.001 s
  | Hartree multipole summation                 :        0.038 s           0.038 s
  | Integration                                 :        0.185 s           0.185 s
  | Solution of K.-S. eqns.                     :        0.013 s           0.013 s
  | Total energy evaluation                     :        0.000 s           0.000 s

  Partial memory accounting:
  | Current value for overall tracked memory usage:
  |   Minimum:        3.300 MB (on task 2)
  |   Maximum:        3.331 MB (on task 0)
  |   Average:        3.317 MB
  | Peak value for overall tracked memory usage:
  |   Minimum:       10.256 MB (on task 3 after allocating gradient_basis_wave)
  |   Maximum:       10.405 MB (on task 0 after allocating gradient_basis_wave)
  |   Average:       10.345 MB
  | Largest tracked array allocation so far:
  |   Minimum:        3.580 MB (hamiltonian_shell on task 3)
  |   Maximum:        3.675 MB (hamiltonian_shell on task 0)
  |   Average:        3.643 MB
  Note:  These values currently only include a subset of arrays which are explicitly tracked.
  The "true" memory usage will be greater.
------------------------------------------------------------

------------------------------------------------------------
          Begin self-consistency iteration #    2

  Date     :  20231009, Time     :  142736.475
------------------------------------------------------------
  Pulay mixing of updated and previous charge densities.
  Available memory per node after mixing [GB]:     22.17
  Renormalizing the density to the exact electron count on the 3D integration grid.
  | Formal number of electrons (from input files) :      28.0000000000
  | Integrated number of electrons on 3D grid     :      27.9961039954
  | Charge integration error                      :      -0.0038960046
  | Normalization factor for density and gradient :       1.0001391624

  Evaluating partitioned Hartree potential by multipole expansion.
  | Original multipole sum: apparent total charge =  -0.156177E-13
  | Sum of charges compensated after spline to logarithmic grids =  -0.819782E-04
  | Analytical far-field extrapolation by fixed multipoles:
  | Hartree multipole sum: apparent total charge =   0.000000E+00
  Summing up the Hartree potential.
  Time summed over all CPUs for potential: real work        0.045 s, elapsed        0.046 s
  | RMS charge density error from multipole expansion :   0.105426E-01
  | Average real-space part of the electrostatic potential :      0.36351033 eV

  Integrating Hamiltonian matrix: batch-based integration.
  Time summed over all CPUs for integration: real work        0.709 s, elapsed        0.723 s

  Updating Kohn-Sham eigenvalues and eigenvectors using ELSI and the (modified) LAPACK eigensolver.
  Starting LAPACK eigensolver
  Finished Cholesky decomposition
  | Time :     0.000 s
  Finished transformation to standard eigenproblem
  | Time :     0.000 s
  Finished solving standard eigenproblem
  | Time :     0.001 s
  Finished back-transformation of eigenvectors
  | Time :     0.000 s

  Obtaining occupation numbers and electronic chemical potential using ELSI.
  | Note that, for insulating systems, the printed 'chemical potential' value is not uniquely defined.
  | It can be anywhere in the energy gap, as long as it correctly separates occupied and unoccupied states.
  | In systems with a gap, the physically relevant chemical potential is the VBM or HOMO.

  | Chemical potential (Fermi level):    -5.13823613 eV
  What follows are estimated values for band gap, HOMO, LUMO, etc.
  | They are estimated on a discrete k-point grid and not necessarily exact.
  | For converged numbers, create a DOS and/or band structure plot on a denser k-grid.

  Highest occupied state (VBM) at     -5.59126750 eV (relative to internal zero)
  | Occupation number:      2.00000000
  | K-point:       1 at    0.000000    0.000000    0.000000 (in units of recip. lattice)

  Lowest unoccupied state (CBM) at    -5.03204367 eV (relative to internal zero)
  | Occupation number:      0.00000000
  | K-point:       9 at    0.000000    0.400000    0.400000 (in units of recip. lattice)

  ESTIMATED overall HOMO-LUMO gap:      0.55922382 eV between HOMO at k-point 1 and LUMO at k-point 9
  | This appears to be an indirect band gap.
  | Smallest direct gap :      2.55113617 eV for k_point 1 at    0.000000    0.000000    0.000000 (in units of recip. lattice)
  The gap value is above 0.2 eV. Unless you are using a very sparse k-point grid,
  this system is most likely an insulator or a semiconductor.

  Checking to see if s.c.f. parameters should be adjusted.
  The system likely has a gap. Increased the default Pulay mixing parameter (charge_mix_param). Value:   0.200000 .
  Kept the default occupation width. Value:   0.010000 eV.

  Total energy components:
  | Sum of eigenvalues            :        -328.44523209 Ha       -8937.44949758 eV
  | XC energy correction          :         -41.79888938 Ha       -1137.40565067 eV
  | XC potential correction       :          53.98026524 Ha        1468.87775297 eV
  | Free-atom electrostatic energy:        -263.59230454 Ha       -7172.71155008 eV
  | Hartree energy correction     :          -0.87858449 Ha         -23.90750042 eV
  | Entropy correction            :          -0.00000000 Ha          -0.00000000 eV
  | ---------------------------
  | Total energy                  :        -580.73474526 Ha      -15802.59644578 eV
  | Total energy, T -> 0          :        -580.73474526 Ha      -15802.59644578 eV  <-- do not rely on this value for anything but (periodic) metals
  | Electronic free energy        :        -580.73474526 Ha      -15802.59644578 eV

  Derived energy quantities:
  | Kinetic energy                :         582.62557532 Ha       15854.04854964 eV
  | Electrostatic energy          :       -1121.56143120 Ha      -30519.23934476 eV
  | Energy correction for multipole
  | error in Hartree potential    :           0.01356819 Ha           0.36920934 eV
  | Sum of eigenvalues per atom                           :       -4468.72474879 eV
  | Total energy (T->0) per atom                          :       -7901.29822289 eV  <-- do not rely on this value for anything but (periodic) metals
  | Electronic free energy per atom                       :       -7901.29822289 eV
  Evaluating new KS density using the density matrix
  Evaluating density matrix
  Time summed over all CPUs for getting density from density matrix: real work        1.573 s, elapsed        1.612 s
  Integration grid: deviation in total charge (<rho> - N_e) =  -2.842171E-14

  Self-consistency convergence accuracy:
  | Change of charge density      :  0.1079E+00
  | Change of unmixed KS density  :  0.9741E-03
  | Change of sum of eigenvalues  :  0.2221E+02 eV
  | Change of total energy        :  0.1149E+00 eV


------------------------------------------------------------
  End self-consistency iteration #     2       :  max(cpu_time)    wall_clock(cpu1)
  | Time for this iteration                     :        0.704 s           0.704 s
  | Charge density update                       :        0.407 s           0.407 s
  | Density mixing & preconditioning            :        0.051 s           0.051 s
  | Hartree multipole update                    :        0.001 s           0.000 s
  | Hartree multipole summation                 :        0.048 s           0.048 s
  | Integration                                 :        0.183 s           0.182 s
  | Solution of K.-S. eqns.                     :        0.014 s           0.014 s
  | Total energy evaluation                     :        0.000 s           0.000 s

  Partial memory accounting:
  | Current value for overall tracked memory usage:
  |   Minimum:        3.301 MB (on task 2)
  |   Maximum:        3.332 MB (on task 0)
  |   Average:        3.318 MB
  | Peak value for overall tracked memory usage:
  |   Minimum:       10.257 MB (on task 3 after allocating gradient_basis_wave)
  |   Maximum:       10.406 MB (on task 0 after allocating gradient_basis_wave)
  |   Average:       10.345 MB
  | Largest tracked array allocation so far:
  |   Minimum:        3.580 MB (hamiltonian_shell on task 3)
  |   Maximum:        3.675 MB (hamiltonian_shell on task 0)
  |   Average:        3.643 MB
  Note:  These values currently only include a subset of arrays which are explicitly tracked.
  The "true" memory usage will be greater.
------------------------------------------------------------

------------------------------------------------------------
          Begin self-consistency iteration #    3

  Date     :  20231009, Time     :  142737.179
------------------------------------------------------------
  Pulay mixing of updated and previous charge densities.
  Available memory per node after mixing [GB]:     22.18
  Renormalizing the density to the exact electron count on the 3D integration grid.
  | Formal number of electrons (from input files) :      28.0000000000
  | Integrated number of electrons on 3D grid     :      28.0007529352
  | Charge integration error                      :       0.0007529352
  | Normalization factor for density and gradient :       0.9999731102

  Evaluating partitioned Hartree potential by multipole expansion.
  | Original multipole sum: apparent total charge =  -0.446080E-13
  | Sum of charges compensated after spline to logarithmic grids =  -0.867143E-04
  | Analytical far-field extrapolation by fixed multipoles:
  | Hartree multipole sum: apparent total charge =   0.000000E+00
  Summing up the Hartree potential.
  Time summed over all CPUs for potential: real work        0.046 s, elapsed        0.046 s
  | RMS charge density error from multipole expansion :   0.110172E-01
  | Average real-space part of the electrostatic potential :      0.34160166 eV

  Integrating Hamiltonian matrix: batch-based integration.
  Time summed over all CPUs for integration: real work        0.710 s, elapsed        0.725 s

  Updating Kohn-Sham eigenvalues and eigenvectors using ELSI and the (modified) LAPACK eigensolver.
  Starting LAPACK eigensolver
  Finished Cholesky decomposition
  | Time :     0.000 s
  Finished transformation to standard eigenproblem
  | Time :     0.000 s
  Finished solving standard eigenproblem
  | Time :     0.001 s
  Finished back-transformation of eigenvectors
  | Time :     0.000 s

  Obtaining occupation numbers and electronic chemical potential using ELSI.
  | Note that, for insulating systems, the printed 'chemical potential' value is not uniquely defined.
  | It can be anywhere in the energy gap, as long as it correctly separates occupied and unoccupied states.
  | In systems with a gap, the physically relevant chemical potential is the VBM or HOMO.

  | Chemical potential (Fermi level):    -5.17740803 eV
  What follows are estimated values for band gap, HOMO, LUMO, etc.
  | They are estimated on a discrete k-point grid and not necessarily exact.
  | For converged numbers, create a DOS and/or band structure plot on a denser k-grid.

  Highest occupied state (VBM) at     -5.62583713 eV (relative to internal zero)
  | Occupation number:      2.00000000
  | K-point:       1 at    0.000000    0.000000    0.000000 (in units of recip. lattice)

  Lowest unoccupied state (CBM) at    -5.03983184 eV (relative to internal zero)
  | Occupation number:      0.00000000
  | K-point:       9 at    0.000000    0.400000    0.400000 (in units of recip. lattice)

  ESTIMATED overall HOMO-LUMO gap:      0.58600528 eV between HOMO at k-point 1 and LUMO at k-point 9
  | This appears to be an indirect band gap.
  | Smallest direct gap :      2.55866399 eV for k_point 1 at    0.000000    0.000000    0.000000 (in units of recip. lattice)
  The gap value is above 0.2 eV. Unless you are using a very sparse k-point grid,
  this system is most likely an insulator or a semiconductor.

  Total energy components:
  | Sum of eigenvalues            :        -328.60917754 Ha       -8941.91068020 eV
  | XC energy correction          :         -41.78449276 Ha       -1137.01389863 eV
  | XC potential correction       :          53.96155157 Ha        1468.36852807 eV
  | Free-atom electrostatic energy:        -263.59230454 Ha       -7172.71155008 eV
  | Hartree energy correction     :          -0.71013042 Ha         -19.32363193 eV
  | Entropy correction            :          -0.00000000 Ha          -0.00000000 eV
  | ---------------------------
  | Total energy                  :        -580.73455369 Ha      -15802.59123277 eV
  | Total energy, T -> 0          :        -580.73455369 Ha      -15802.59123277 eV  <-- do not rely on this value for anything but (periodic) metals
  | Electronic free energy        :        -580.73455369 Ha      -15802.59123277 eV

  Derived energy quantities:
  | Kinetic energy                :         582.40937520 Ha       15848.16544494 eV
  | Electrostatic energy          :       -1121.35943612 Ha      -30513.74277908 eV
  | Energy correction for multipole
  | error in Hartree potential    :           0.01428700 Ha           0.38876893 eV
  | Sum of eigenvalues per atom                           :       -4470.95534010 eV
  | Total energy (T->0) per atom                          :       -7901.29561639 eV  <-- do not rely on this value for anything but (periodic) metals
  | Electronic free energy per atom                       :       -7901.29561639 eV
  Evaluating new KS density using the density matrix
  Evaluating density matrix
  Time summed over all CPUs for getting density from density matrix: real work        1.629 s, elapsed        1.676 s
  Integration grid: deviation in total charge (<rho> - N_e) =  -3.552714E-15

  Self-consistency convergence accuracy:
  | Change of charge density      :  0.1700E-01
  | Change of unmixed KS density  :  0.1686E-01
  | Change of sum of eigenvalues  : -0.4461E+01 eV
  | Change of total energy        :  0.5213E-02 eV


------------------------------------------------------------
  End self-consistency iteration #     3       :  max(cpu_time)    wall_clock(cpu1)
  | Time for this iteration                     :        0.719 s           0.719 s
  | Charge density update                       :        0.423 s           0.423 s
  | Density mixing & preconditioning            :        0.051 s           0.052 s
  | Hartree multipole update                    :        0.001 s           0.000 s
  | Hartree multipole summation                 :        0.048 s           0.048 s
  | Integration                                 :        0.183 s           0.183 s
  | Solution of K.-S. eqns.                     :        0.014 s           0.013 s
  | Total energy evaluation                     :        0.000 s           0.000 s

  Partial memory accounting:
  | Current value for overall tracked memory usage:
  |   Minimum:        3.301 MB (on task 2)
  |   Maximum:        3.332 MB (on task 0)
  |   Average:        3.318 MB
  | Peak value for overall tracked memory usage:
  |   Minimum:       10.257 MB (on task 3 after allocating gradient_basis_wave)
  |   Maximum:       10.406 MB (on task 0 after allocating gradient_basis_wave)
  |   Average:       10.345 MB
  | Largest tracked array allocation so far:
  |   Minimum:        3.580 MB (hamiltonian_shell on task 3)
  |   Maximum:        3.675 MB (hamiltonian_shell on task 0)
  |   Average:        3.643 MB
  Note:  These values currently only include a subset of arrays which are explicitly tracked.
  The "true" memory usage will be greater.
------------------------------------------------------------

------------------------------------------------------------
          Begin self-consistency iteration #    4

  Date     :  20231009, Time     :  142737.898
------------------------------------------------------------
  Pulay mixing of updated and previous charge densities.
  Available memory per node after mixing [GB]:     22.18
  Renormalizing the density to the exact electron count on the 3D integration grid.
  | Formal number of electrons (from input files) :      28.0000000000
  | Integrated number of electrons on 3D grid     :      28.0004222476
  | Charge integration error                      :       0.0004222476
  | Normalization factor for density and gradient :       0.9999849200

  Evaluating partitioned Hartree potential by multipole expansion.
  | Original multipole sum: apparent total charge =   0.104572E-13
  | Sum of charges compensated after spline to logarithmic grids =  -0.925111E-04
  | Analytical far-field extrapolation by fixed multipoles:
  | Hartree multipole sum: apparent total charge =   0.000000E+00
  Summing up the Hartree potential.
  Time summed over all CPUs for potential: real work        0.045 s, elapsed        0.046 s
  | RMS charge density error from multipole expansion :   0.117107E-01
  | Average real-space part of the electrostatic potential :      0.34009285 eV

  Integrating Hamiltonian matrix: batch-based integration.
  Time summed over all CPUs for integration: real work        0.729 s, elapsed        0.742 s

  Updating Kohn-Sham eigenvalues and eigenvectors using ELSI and the (modified) LAPACK eigensolver.
  Starting LAPACK eigensolver
  Finished Cholesky decomposition
  | Time :     0.000 s
  Finished transformation to standard eigenproblem
  | Time :     0.000 s
  Finished solving standard eigenproblem
  | Time :     0.000 s
  Finished back-transformation of eigenvectors
  | Time :     0.000 s

  Obtaining occupation numbers and electronic chemical potential using ELSI.
  | Note that, for insulating systems, the printed 'chemical potential' value is not uniquely defined.
  | It can be anywhere in the energy gap, as long as it correctly separates occupied and unoccupied states.
  | In systems with a gap, the physically relevant chemical potential is the VBM or HOMO.

  | Chemical potential (Fermi level):    -5.17925163 eV
  What follows are estimated values for band gap, HOMO, LUMO, etc.
  | They are estimated on a discrete k-point grid and not necessarily exact.
  | For converged numbers, create a DOS and/or band structure plot on a denser k-grid.

  Highest occupied state (VBM) at     -5.62535536 eV (relative to internal zero)
  | Occupation number:      2.00000000
  | K-point:       1 at    0.000000    0.000000    0.000000 (in units of recip. lattice)

  Lowest unoccupied state (CBM) at    -5.03245378 eV (relative to internal zero)
  | Occupation number:      0.00000000
  | K-point:      52 at    0.600000    0.000000    0.600000 (in units of recip. lattice)

  ESTIMATED overall HOMO-LUMO gap:      0.59290158 eV between HOMO at k-point 1 and LUMO at k-point 52
  | This appears to be an indirect band gap.
  | Smallest direct gap :      2.55483349 eV for k_point 1 at    0.000000    0.000000    0.000000 (in units of recip. lattice)
  The gap value is above 0.2 eV. Unless you are using a very sparse k-point grid,
  this system is most likely an insulator or a semiconductor.

  Total energy components:
  | Sum of eigenvalues            :        -328.67982289 Ha       -8943.83303808 eV
  | XC energy correction          :         -41.77933549 Ha       -1136.87356205 eV
  | XC potential correction       :          53.95468794 Ha        1468.18175910 eV
  | Free-atom electrostatic energy:        -263.59230454 Ha       -7172.71155008 eV
  | Hartree energy correction     :          -0.63769125 Ha         -17.35246193 eV
  | Entropy correction            :          -0.00000000 Ha          -0.00000000 eV
  | ---------------------------
  | Total energy                  :        -580.73446623 Ha      -15802.58885303 eV
  | Total energy, T -> 0          :        -580.73446623 Ha      -15802.58885303 eV  <-- do not rely on this value for anything but (periodic) metals
  | Electronic free energy        :        -580.73446623 Ha      -15802.58885303 eV

  Derived energy quantities:
  | Kinetic energy                :         582.29362110 Ha       15845.01561561 eV
  | Electrostatic energy          :       -1121.24875184 Ha      -30510.73090659 eV
  | Energy correction for multipole
  | error in Hartree potential    :           0.01523653 Ha           0.41460719 eV
  | Sum of eigenvalues per atom                           :       -4471.91651904 eV
  | Total energy (T->0) per atom                          :       -7901.29442652 eV  <-- do not rely on this value for anything but (periodic) metals
  | Electronic free energy per atom                       :       -7901.29442652 eV
  Evaluating new KS density using the density matrix
  Evaluating density matrix
  Time summed over all CPUs for getting density from density matrix: real work        1.608 s, elapsed        1.623 s
  Integration grid: deviation in total charge (<rho> - N_e) =  -3.552714E-15

  Self-consistency convergence accuracy:
  | Change of charge density      :  0.8185E-02
  | Change of unmixed KS density  :  0.2413E-02
  | Change of sum of eigenvalues  : -0.1922E+01 eV
  | Change of total energy        :  0.2380E-02 eV


------------------------------------------------------------
  End self-consistency iteration #     4       :  max(cpu_time)    wall_clock(cpu1)
  | Time for this iteration                     :        0.708 s           0.708 s
  | Charge density update                       :        0.409 s           0.409 s
  | Density mixing & preconditioning            :        0.051 s           0.051 s
  | Hartree multipole update                    :        0.001 s           0.001 s
  | Hartree multipole summation                 :        0.047 s           0.047 s
  | Integration                                 :        0.187 s           0.187 s
  | Solution of K.-S. eqns.                     :        0.013 s           0.013 s
  | Total energy evaluation                     :        0.000 s           0.000 s

  Partial memory accounting:
  | Current value for overall tracked memory usage:
  |   Minimum:        3.301 MB (on task 2)
  |   Maximum:        3.332 MB (on task 0)
  |   Average:        3.318 MB
  | Peak value for overall tracked memory usage:
  |   Minimum:       10.257 MB (on task 3 after allocating gradient_basis_wave)
  |   Maximum:       10.406 MB (on task 0 after allocating gradient_basis_wave)
  |   Average:       10.345 MB
  | Largest tracked array allocation so far:
  |   Minimum:        3.580 MB (hamiltonian_shell on task 3)
  |   Maximum:        3.675 MB (hamiltonian_shell on task 0)
  |   Average:        3.643 MB
  Note:  These values currently only include a subset of arrays which are explicitly tracked.
  The "true" memory usage will be greater.
------------------------------------------------------------

------------------------------------------------------------
          Begin self-consistency iteration #    5

  Date     :  20231009, Time     :  142738.606
------------------------------------------------------------
  Pulay mixing of updated and previous charge densities.
  Available memory per node after mixing [GB]:     22.19
  Renormalizing the density to the exact electron count on the 3D integration grid.
  | Formal number of electrons (from input files) :      28.0000000000
  | Integrated number of electrons on 3D grid     :      28.0008668048
  | Charge integration error                      :       0.0008668048
  | Normalization factor for density and gradient :       0.9999690436

  Evaluating partitioned Hartree potential by multipole expansion.
  | Original multipole sum: apparent total charge =   0.184762E-13
  | Sum of charges compensated after spline to logarithmic grids =  -0.917571E-04
  | Analytical far-field extrapolation by fixed multipoles:
  | Hartree multipole sum: apparent total charge =   0.000000E+00
  Summing up the Hartree potential.
  Time summed over all CPUs for potential: real work        0.045 s, elapsed        0.047 s
  | RMS charge density error from multipole expansion :   0.117940E-01
  | Average real-space part of the electrostatic potential :      0.32471366 eV

  Integrating Hamiltonian matrix: batch-based integration.
  Time summed over all CPUs for integration: real work        0.713 s, elapsed        0.742 s

  Updating Kohn-Sham eigenvalues and eigenvectors using ELSI and the (modified) LAPACK eigensolver.
  Starting LAPACK eigensolver
  Finished Cholesky decomposition
  | Time :     0.000 s
  Finished transformation to standard eigenproblem
  | Time :     0.000 s
  Finished solving standard eigenproblem
  | Time :     0.001 s
  Finished back-transformation of eigenvectors
  | Time :     0.000 s

  Obtaining occupation numbers and electronic chemical potential using ELSI.
  | Note that, for insulating systems, the printed 'chemical potential' value is not uniquely defined.
  | It can be anywhere in the energy gap, as long as it correctly separates occupied and unoccupied states.
  | In systems with a gap, the physically relevant chemical potential is the VBM or HOMO.

  | Chemical potential (Fermi level):    -5.19464681 eV
  What follows are estimated values for band gap, HOMO, LUMO, etc.
  | They are estimated on a discrete k-point grid and not necessarily exact.
  | For converged numbers, create a DOS and/or band structure plot on a denser k-grid.

  Highest occupied state (VBM) at     -5.63730965 eV (relative to internal zero)
  | Occupation number:      2.00000000
  | K-point:       1 at    0.000000    0.000000    0.000000 (in units of recip. lattice)

  Lowest unoccupied state (CBM) at    -5.03766168 eV (relative to internal zero)
  | Occupation number:      0.00000000
  | K-point:       9 at    0.000000    0.400000    0.400000 (in units of recip. lattice)

  ESTIMATED overall HOMO-LUMO gap:      0.59964797 eV between HOMO at k-point 1 and LUMO at k-point 9
  | This appears to be an indirect band gap.
  | Smallest direct gap :      2.55892590 eV for k_point 1 at    0.000000    0.000000    0.000000 (in units of recip. lattice)
  The gap value is above 0.2 eV. Unless you are using a very sparse k-point grid,
  this system is most likely an insulator or a semiconductor.

  Total energy components:
  | Sum of eigenvalues            :        -328.72312326 Ha       -8945.01130118 eV
  | XC energy correction          :         -41.77882963 Ha       -1136.85979715 eV
  | XC potential correction       :          53.95380450 Ha        1468.15771945 eV
  | Free-atom electrostatic energy:        -263.59230454 Ha       -7172.71155008 eV
  | Hartree energy correction     :          -0.59396390 Ha         -16.16258000 eV
  | Entropy correction            :          -0.00000000 Ha          -0.00000000 eV
  | ---------------------------
  | Total energy                  :        -580.73441684 Ha      -15802.58750897 eV
  | Total energy, T -> 0          :        -580.73441684 Ha      -15802.58750897 eV  <-- do not rely on this value for anything but (periodic) metals
  | Electronic free energy        :        -580.73441684 Ha      -15802.58750897 eV

  Derived energy quantities:
  | Kinetic energy                :         582.30599062 Ha       15845.35220745 eV
  | Electrostatic energy          :       -1121.26157782 Ha      -30511.07991927 eV
  | Energy correction for multipole
  | error in Hartree potential    :           0.01526913 Ha           0.41549421 eV
  | Sum of eigenvalues per atom                           :       -4472.50565059 eV
  | Total energy (T->0) per atom                          :       -7901.29375449 eV  <-- do not rely on this value for anything but (periodic) metals
  | Electronic free energy per atom                       :       -7901.29375449 eV
  Evaluating new KS density using the density matrix
  Evaluating density matrix
  Time summed over all CPUs for getting density from density matrix: real work        1.602 s, elapsed        1.637 s
  Integration grid: deviation in total charge (<rho> - N_e) =  -1.421085E-14

  Self-consistency convergence accuracy:
  | Change of charge density      :  0.3209E-02
  | Change of unmixed KS density  :  0.1079E-02
  | Change of sum of eigenvalues  : -0.1178E+01 eV
  | Change of total energy        :  0.1344E-02 eV


------------------------------------------------------------
  End self-consistency iteration #     5       :  max(cpu_time)    wall_clock(cpu1)
  | Time for this iteration                     :        0.721 s           0.721 s
  | Charge density update                       :        0.412 s           0.412 s
  | Density mixing & preconditioning            :        0.058 s           0.058 s
  | Hartree multipole update                    :        0.001 s           0.001 s
  | Hartree multipole summation                 :        0.049 s           0.049 s
  | Integration                                 :        0.187 s           0.187 s
  | Solution of K.-S. eqns.                     :        0.014 s           0.014 s
  | Total energy evaluation                     :        0.000 s           0.000 s

  Partial memory accounting:
  | Current value for overall tracked memory usage:
  |   Minimum:        3.301 MB (on task 2)
  |   Maximum:        3.332 MB (on task 0)
  |   Average:        3.318 MB
  | Peak value for overall tracked memory usage:
  |   Minimum:       10.257 MB (on task 3 after allocating gradient_basis_wave)
  |   Maximum:       10.406 MB (on task 0 after allocating gradient_basis_wave)
  |   Average:       10.345 MB
  | Largest tracked array allocation so far:
  |   Minimum:        3.580 MB (hamiltonian_shell on task 3)
  |   Maximum:        3.675 MB (hamiltonian_shell on task 0)
  |   Average:        3.643 MB
  Note:  These values currently only include a subset of arrays which are explicitly tracked.
  The "true" memory usage will be greater.
------------------------------------------------------------

------------------------------------------------------------
          Begin self-consistency iteration #    6

  Date     :  20231009, Time     :  142739.327
------------------------------------------------------------
  Pulay mixing of updated and previous charge densities.
  Available memory per node after mixing [GB]:     22.19
  Renormalizing the density to the exact electron count on the 3D integration grid.
  | Formal number of electrons (from input files) :      28.0000000000
  | Integrated number of electrons on 3D grid     :      27.9999732519
  | Charge integration error                      :      -0.0000267481
  | Normalization factor for density and gradient :       1.0000009553

  Evaluating partitioned Hartree potential by multipole expansion.
  | Original multipole sum: apparent total charge =  -0.174611E-13
  | Sum of charges compensated after spline to logarithmic grids =  -0.915236E-04
  | Analytical far-field extrapolation by fixed multipoles:
  | Hartree multipole sum: apparent total charge =   0.000000E+00
  Summing up the Hartree potential.
  Time summed over all CPUs for potential: real work        0.047 s, elapsed        0.048 s
  | RMS charge density error from multipole expansion :   0.117566E-01
  | Average real-space part of the electrostatic potential :      0.32298324 eV

  Integrating Hamiltonian matrix: batch-based integration.
  Time summed over all CPUs for integration: real work        0.780 s, elapsed        0.827 s

  Updating Kohn-Sham eigenvalues and eigenvectors using ELSI and the (modified) LAPACK eigensolver.
  Starting LAPACK eigensolver
  Finished Cholesky decomposition
  | Time :     0.000 s
  Finished transformation to standard eigenproblem
  | Time :     0.000 s
  Finished solving standard eigenproblem
  | Time :     0.000 s
  Finished back-transformation of eigenvectors
  | Time :     0.000 s

  Obtaining occupation numbers and electronic chemical potential using ELSI.
  | Note that, for insulating systems, the printed 'chemical potential' value is not uniquely defined.
  | It can be anywhere in the energy gap, as long as it correctly separates occupied and unoccupied states.
  | In systems with a gap, the physically relevant chemical potential is the VBM or HOMO.

  | Chemical potential (Fermi level):    -5.19824999 eV
  What follows are estimated values for band gap, HOMO, LUMO, etc.
  | They are estimated on a discrete k-point grid and not necessarily exact.
  | For converged numbers, create a DOS and/or band structure plot on a denser k-grid.

  Highest occupied state (VBM) at     -5.64100634 eV (relative to internal zero)
  | Occupation number:      2.00000000
  | K-point:       1 at    0.000000    0.000000    0.000000 (in units of recip. lattice)

  Lowest unoccupied state (CBM) at    -5.03924340 eV (relative to internal zero)
  | Occupation number:      0.00000000
  | K-point:       9 at    0.000000    0.400000    0.400000 (in units of recip. lattice)

  ESTIMATED overall HOMO-LUMO gap:      0.60176294 eV between HOMO at k-point 1 and LUMO at k-point 9
  | This appears to be an indirect band gap.
  | Smallest direct gap :      2.56025896 eV for k_point 1 at    0.000000    0.000000    0.000000 (in units of recip. lattice)
  The gap value is above 0.2 eV. Unless you are using a very sparse k-point grid,
  this system is most likely an insulator or a semiconductor.

  Total energy components:
  | Sum of eigenvalues            :        -328.72855301 Ha       -8945.15905203 eV
[...]
  | Energy correction for multipole
  | error in Hartree potential    :           0.01531761 Ha           0.41681331 eV
  | Sum of eigenvalues per atom                           :       -4472.47985921 eV
  | Total energy (T->0) per atom                          :       -7901.29372322 eV  <-- do not rely on this value for anything but (periodic) metals
  | Electronic free energy per atom                       :       -7901.29372322 eV
  Evaluating new KS density using the density matrix
  Evaluating density matrix
  Time summed over all CPUs for getting density from density matrix: real work        1.671 s, elapsed        1.703 s
  Integration grid: deviation in total charge (<rho> - N_e) =   0.000000E+00

  Self-consistency convergence accuracy:
  | Change of charge density      :  0.1112E-04
  | Change of unmixed KS density  :  0.7943E-05
  | Change of sum of eigenvalues  :  0.2181E-02 eV
  | Change of total energy        : -0.1750E-05 eV


------------------------------------------------------------
  End self-consistency iteration #     9       :  max(cpu_time)    wall_clock(cpu1)
  | Time for this iteration                     :        0.750 s           0.750 s
  | Charge density update                       :        0.429 s           0.429 s
  | Density mixing & preconditioning            :        0.060 s           0.060 s
  | Hartree multipole update                    :        0.001 s           0.001 s
  | Hartree multipole summation                 :        0.052 s           0.051 s
  | Integration                                 :        0.193 s           0.193 s
  | Solution of K.-S. eqns.                     :        0.015 s           0.015 s
  | Total energy evaluation                     :        0.000 s           0.000 s

  Partial memory accounting:
  | Current value for overall tracked memory usage:
  |   Minimum:        3.301 MB (on task 2)
  |   Maximum:        3.332 MB (on task 0)
  |   Average:        3.318 MB
  | Peak value for overall tracked memory usage:
  |   Minimum:       10.257 MB (on task 3 after allocating gradient_basis_wave)
  |   Maximum:       10.406 MB (on task 0 after allocating gradient_basis_wave)
  |   Average:       10.345 MB
  | Largest tracked array allocation so far:
  |   Minimum:        3.580 MB (hamiltonian_shell on task 3)
  |   Maximum:        3.675 MB (hamiltonian_shell on task 0)
  |   Average:        3.643 MB
  Note:  These values currently only include a subset of arrays which are explicitly tracked.
  The "true" memory usage will be greater.
------------------------------------------------------------

------------------------------------------------------------
          Begin self-consistency iteration #   10

  Date     :  20231009, Time     :  142742.301
------------------------------------------------------------
  Pulay mixing of updated and previous charge densities.
  Available memory per node after mixing [GB]:     22.18
  Renormalizing the density to the exact electron count on the 3D integration grid.
  | Formal number of electrons (from input files) :      28.0000000000
  | Integrated number of electrons on 3D grid     :      27.9999979158
  | Charge integration error                      :      -0.0000020842
  | Normalization factor for density and gradient :       1.0000000744

  Evaluating partitioned Hartree potential by multipole expansion.
  | Original multipole sum: apparent total charge =   0.214126E-14
  | Sum of charges compensated after spline to logarithmic grids =  -0.920729E-04
  | Analytical far-field extrapolation by fixed multipoles:
  | Hartree multipole sum: apparent total charge =   0.000000E+00
  Summing up the Hartree potential.
  Time summed over all CPUs for potential: real work        0.047 s, elapsed        0.049 s
  | RMS charge density error from multipole expansion :   0.118126E-01
  | Average real-space part of the electrostatic potential :      0.32599842 eV

  Integrating Hamiltonian matrix: batch-based integration.
  Time summed over all CPUs for integration: real work        0.745 s, elapsed        0.790 s

  Updating Kohn-Sham eigenvalues and eigenvectors using ELSI and the (modified) LAPACK eigensolver.
  Starting LAPACK eigensolver
  Finished Cholesky decomposition
  | Time :     0.000 s
  Finished transformation to standard eigenproblem
  | Time :     0.000 s
  Finished solving standard eigenproblem
  | Time :     0.000 s
  Finished back-transformation of eigenvectors
  | Time :     0.000 s

  Obtaining occupation numbers and electronic chemical potential using ELSI.
  | Note that, for insulating systems, the printed 'chemical potential' value is not uniquely defined.
  | It can be anywhere in the energy gap, as long as it correctly separates occupied and unoccupied states.
  | In systems with a gap, the physically relevant chemical potential is the VBM or HOMO.

  | Chemical potential (Fermi level):    -5.19426938 eV
  What follows are estimated values for band gap, HOMO, LUMO, etc.
  | They are estimated on a discrete k-point grid and not necessarily exact.
  | For converged numbers, create a DOS and/or band structure plot on a denser k-grid.

  Highest occupied state (VBM) at     -5.63748593 eV (relative to internal zero)
  | Occupation number:      2.00000000
  | K-point:       1 at    0.000000    0.000000    0.000000 (in units of recip. lattice)

  Lowest unoccupied state (CBM) at    -5.03713550 eV (relative to internal zero)
  | Occupation number:      0.00000000
  | K-point:       9 at    0.000000    0.400000    0.400000 (in units of recip. lattice)

  ESTIMATED overall HOMO-LUMO gap:      0.60035043 eV between HOMO at k-point 1 and LUMO at k-point 9
  | This appears to be an indirect band gap.
  | Smallest direct gap :      2.55884405 eV for k_point 1 at    0.000000    0.000000    0.000000 (in units of recip. lattice)
  The gap value is above 0.2 eV. Unless you are using a very sparse k-point grid,
  this system is most likely an insulator or a semiconductor.

  Total energy components:
  | Sum of eigenvalues            :        -328.72112057 Ha       -8944.95680516 eV
  | XC energy correction          :         -41.77888965 Ha       -1136.86143021 eV
  | XC potential correction       :          53.95391675 Ha        1468.16077397 eV
  | Free-atom electrostatic energy:        -263.59230454 Ha       -7172.71155008 eV
  | Hartree energy correction     :          -0.59601658 Ha         -16.21843641 eV
  | Entropy correction            :          -0.00000000 Ha          -0.00000000 eV
  | ---------------------------
  | Total energy                  :        -580.73441459 Ha      -15802.58744789 eV
  | Total energy, T -> 0          :        -580.73441459 Ha      -15802.58744789 eV  <-- do not rely on this value for anything but (periodic) metals
  | Electronic free energy        :        -580.73441459 Ha      -15802.58744789 eV

  Derived energy quantities:
  | Kinetic energy                :         582.31082926 Ha       15845.48387363 eV
  | Electrostatic energy          :       -1121.26635421 Ha      -30511.20989131 eV
  | Energy correction for multipole
  | error in Hartree potential    :           0.01531852 Ha           0.41683825 eV
  | Sum of eigenvalues per atom                           :       -4472.47840258 eV
  | Total energy (T->0) per atom                          :       -7901.29372394 eV  <-- do not rely on this value for anything but (periodic) metals
  | Electronic free energy per atom                       :       -7901.29372394 eV
  Preliminary charge convergence reached. Turning off preconditioner.


  Self-consistency convergence accuracy:
  | Change of charge density      :  0.5004E-05
  | Change of unmixed KS density  :  0.1004E-05
  | Change of sum of eigenvalues  :  0.2913E-02 eV
  | Change of total energy        : -0.1442E-05 eV

  Writing Kohn-Sham eigenvalues.
  K-point:       1 at    0.000000    0.000000    0.000000 (in units of recip. lattice)

  State    Occupation    Eigenvalue [Ha]    Eigenvalue [eV]
      1       2.00000         -65.760278        -1789.42821
      2       2.00000         -65.760278        -1789.42821
      3       2.00000          -5.120610         -139.33888
      4       2.00000          -5.120326         -139.33116
      5       2.00000          -3.504391          -95.35933
      6       2.00000          -3.504391          -95.35933
      7       2.00000          -3.504391          -95.35933
      8       2.00000          -3.503771          -95.34246
      9       2.00000          -3.503771          -95.34246
     10       2.00000          -3.503771          -95.34246
     11       2.00000          -0.647573          -17.62136
     12       2.00000          -0.207174           -5.63749
     13       2.00000          -0.207174           -5.63749
     14       2.00000          -0.207174           -5.63749
     15       0.00000          -0.113138           -3.07864
     16       0.00000          -0.113138           -3.07864
     17       0.00000          -0.113138           -3.07864
     18       0.00000          -0.082095           -2.23391
     19       0.00000           0.082094            2.23388
     20       0.00000           0.082094            2.23388

  What follows are estimated values for band gap, HOMO, LUMO, etc.
  | They are estimated on a discrete k-point grid and not necessarily exact.
  | For converged numbers, create a DOS and/or band structure plot on a denser k-grid.

  Highest occupied state (VBM) at     -5.63748593 eV (relative to internal zero)
  | Occupation number:      2.00000000
  | K-point:       1 at    0.000000    0.000000    0.000000 (in units of recip. lattice)

  Lowest unoccupied state (CBM) at    -5.03713550 eV (relative to internal zero)
  | Occupation number:      0.00000000
  | K-point:       9 at    0.000000    0.400000    0.400000 (in units of recip. lattice)

  ESTIMATED overall HOMO-LUMO gap:      0.60035043 eV between HOMO at k-point 1 and LUMO at k-point 9
  | This appears to be an indirect band gap.
  | Smallest direct gap :      2.55884405 eV for k_point 1 at    0.000000    0.000000    0.000000 (in units of recip. lattice)
  The gap value is above 0.2 eV. Unless you are using a very sparse k-point grid,
  this system is most likely an insulator or a semiconductor.

  | Chemical Potential                          :    -5.19426938 eV
  | Note that, for insulating systems, the printed 'chemical potential' value is not uniquely defined.
  | It can be anywhere in the energy gap, as long as it correctly separates occupied and unoccupied states.
  | In systems with a gap, the physically relevant chemical potential is the VBM or HOMO.

  Self-consistency cycle converged.


------------------------------------------------------------
  End self-consistency iteration #    10       :  max(cpu_time)    wall_clock(cpu1)
  | Time for this iteration                     :        0.328 s           0.328 s
  | Charge density update                       :        0.000 s           0.000 s
  | Density mixing                              :        0.059 s           0.059 s
  | Hartree multipole update                    :        0.002 s           0.002 s
  | Hartree multipole summation                 :        0.053 s           0.053 s
  | Integration                                 :        0.199 s           0.198 s
  | Solution of K.-S. eqns.                     :        0.015 s           0.016 s
  | Total energy evaluation                     :        0.000 s           0.000 s

  Partial memory accounting:
  | Current value for overall tracked memory usage:
  |   Minimum:        3.301 MB (on task 2)
  |   Maximum:        3.332 MB (on task 0)
  |   Average:        3.318 MB
  | Peak value for overall tracked memory usage:
  |   Minimum:       10.257 MB (on task 3 after allocating gradient_basis_wave)
  |   Maximum:       10.406 MB (on task 0 after allocating gradient_basis_wave)
  |   Average:       10.345 MB
  | Largest tracked array allocation so far:
  |   Minimum:        3.580 MB (hamiltonian_shell on task 3)
  |   Maximum:        3.675 MB (hamiltonian_shell on task 0)
  |   Average:        3.643 MB
  Note:  These values currently only include a subset of arrays which are explicitly tracked.
  The "true" memory usage will be greater.
------------------------------------------------------------

  Energy and forces in a compact form:
  | Total energy uncorrected      :         -0.158025874478884E+05 eV
  | Total energy corrected        :         -0.158025874478884E+05 eV  <-- do not rely on this value for anything but (periodic) metals
  | Electronic free energy        :         -0.158025874478884E+05 eV

  ------------------------------------
  Start decomposition of the XC Energy
  ------------------------------------
  X and C from original XC functional choice
  Hartree-Fock Energy :          0.000000000 Ha              0.000000000 eV
  X Energy            :        -40.684675049 Ha          -1107.086336004 eV
  C Energy            :         -1.094214600 Ha            -29.775094204 eV
  XC Energy w/o HF    :        -41.778889648 Ha          -1136.861430208 eV
  Total XC Energy     :        -41.778889648 Ha          -1136.861430208 eV
  ------------------------------------
  LDA X and C from self-consistent density
  X Energy LDA        :        -37.631074483 Ha          -1023.993636906 eV
  C Energy LDA        :         -2.146486700 Ha            -58.408874925 eV
  ------------------------------------
  End decomposition of the XC Energy
  ------------------------------------

------------------------------------------------------------

------------------------------------------------------------------------------
  Final output of selected total energy values:

  The following output summarizes some interesting total energy values
  at the end of a run (AFTER all relaxation, molecular dynamics, etc.).

  | Total energy of the DFT / Hartree-Fock s.c.f. calculation      :         -15802.587447888 eV
  | Final zero-broadening corrected energy (caution - metals only) :         -15802.587447888 eV
  | For reference only, the value of 1 Hartree used in FHI-aims is :             27.211384500 eV
  | For reference only, the overall average (free atom contribution
  | + realspace contribution) of the electrostatic potential after
  | s.c.f. convergence is                                          :            -12.807942508 eV

  Before relying on these values, please be sure to understand exactly which
  total energy value is referred to by a given number. Different objects may
  all carry the same name 'total energy'. Definitions:

  Total energy of the DFT / Hartree-Fock s.c.f. calculation:
  | Note that this energy does not include ANY quantities calculated after the
  | s.c.f. cycle, in particular not ANY RPA, MP2, etc. many-body perturbation terms.

  Final zero-broadening corrected energy:
  | For metallic systems only, a broadening of the occupation numbers at the Fermi
  | level can be extrapolated back to zero broadening by an electron-gas inspired
  | formula. For all systems that are not real metals, this value can be
  | meaningless and should be avoided.

------------------------------------------------------------------------------
  Methods described in the following list of references were used in this FHI-aims run.
  If you publish the results, please make sure to cite these reference if they apply.
  FHI-aims is an academic code, and for our developers (often, Ph.D. students
  and postdocs), scientific credit in the community is essential.
  Thank you for helping us!

  For any use of FHI-aims, please cite:

    Volker Blum, Ralf Gehrke, Felix Hanke, Paula Havu, Ville Havu,
    Xinguo Ren, Karsten Reuter, and Matthias Scheffler
    'Ab initio molecular simulations with numeric atom-centered orbitals'
    Computer Physics Communications 180, 2175-2196 (2009)
    http://doi.org/10.1016/j.cpc.2009.06.022


  The provided symmetry information was generated with SPGlib:

    Atsushi Togo, Yusuke Seto, Dimitar Pashov
    SPGlib 1.7.3 obtained from http://spglib.sourceforge.net
    Copyright (C) 2008 Atsushi Togo


  The ELSI infrastructure was used in your run to solve the Kohn-Sham electronic structure.
  Please check out http://elsi-interchange.org to learn more.
  If scalability is important for your project, please acknowledge ELSI by citing:

    V. W-z. Yu, F. Corsetti, A. Garcia, W. P. Huhn, M. Jacquelin, W. Jia,
    B. Lange, L. Lin, J. Lu, W. Mi, A. Seifitokaldani, A. Vazquez-Mayagoitia,
    C. Yang, H. Yang, and V. Blum
    'ELSI: A unified software interface for Kohn-Sham electronic structure solvers'
    Computer Physics Communications 222, 267-285 (2018).
    http://doi.org/10.1016/j.cpc.2017.09.007


  For the real-space grid partitioning and parallelization used in this calculation, please cite:

    Ville Havu, Volker Blum, Paula Havu, and Matthias Scheffler,
    'Efficient O(N) integration for all-electron electronic structure calculation'
    'using numerically tabulated basis functions'
    Journal of Computational Physics 228, 8367-8379 (2009).
    http://doi.org/10.1016/j.jcp.2009.08.008

  Of course, there are many other important community references, e.g., those cited in the
  above references. Our list is limited to references that describe implementations in the
  FHI-aims code. The reason is purely practical (length of this list) - please credit others as well.

------------------------------------------------------------
          Leaving FHI-aims.
          Date     :  20231009, Time     :  142742.632

          Computational steps:
          | Number of self-consistency cycles          :           10
          | Number of SCF (re)initializations          :            1

          Detailed time accounting                     :  max(cpu_time)    wall_clock(cpu1)
          | Total time                                  :        7.966 s           7.967 s
          | Preparation time                            :        0.112 s           0.112 s
          | Boundary condition initalization            :        0.025 s           0.024 s
          | Grid partitioning                           :        0.018 s           0.017 s
          | Preloading free-atom quantities on grid     :        0.076 s           0.076 s
          | Free-atom superposition energy              :        0.013 s           0.014 s
          | Total time for integrations                 :        2.286 s           2.284 s
          | Total time for solution of K.-S. equations  :        0.168 s           0.169 s
          | Total time for density update               :        4.189 s           4.190 s
          | Total time for mixing & preconditioning     :        0.556 s           0.556 s
          | Total time for Hartree multipole update     :        0.007 s           0.008 s
          | Total time for Hartree multipole sum        :        0.482 s           0.480 s
          | Total time for total energy evaluation      :        0.001 s           0.000 s
          | Total time for scaled ZORA corrections      :        0.000 s           0.000 s

          Partial memory accounting:
          | Residual value for overall tracked memory usage across tasks:     0.000000 MB (should be 0.000000 MB)
          | Peak values for overall tracked memory usage:
          |   Minimum:       10.257 MB (on task 3 after allocating gradient_basis_wave)
          |   Maximum:       10.406 MB (on task 0 after allocating gradient_basis_wave)
          |   Average:       10.345 MB
          | Largest tracked array allocation:
          |   Minimum:        3.580 MB (hamiltonian_shell on task 3)
          |   Maximum:        3.675 MB (hamiltonian_shell on task 0)
          |   Average:        3.643 MB
          Note:  These values currently only include a subset of arrays which are explicitly tracked.
          The "true" memory usage will be greater.

          Have a nice day.
------------------------------------------------------------
