<?xml version="1.0" encoding="ISO-8859-1"?>
<modeling>
 <generator>
  <i name="program" type="string">vasp </i>
  <i name="version" type="string">6.3.1  </i>
  <i name="subversion" type="string">04May22 (build May  6 2022 16:02:18) complex                          parallel </i>
  <i name="platform" type="string">LinuxGNU </i>
  <i name="date" type="string">2023 03 22 </i>
  <i name="time" type="string">12:59:14 </i>
 </generator>
 <incar>
  <i type="string" name="PREC">Accurate</i>
  <i type="string" name="ALGO">Fast</i>
  <i type="int" name="ISPIN">     2</i>
  <i type="int" name="NELM">   200</i>
  <i type="int" name="IBRION">     2</i>
  <i name="EDIFF">      0.00001000</i>
  <i name="EDIFFG">     -0.02000000</i>
  <i type="int" name="NSW">    99</i>
  <i type="int" name="ISIF">     3</i>
  <i name="ENCUT">    680.00000000</i>
  <i name="ENAUG">   1360.00000000</i>
  <v name="MAGMOM">      0.60000000      0.60000000</v>
  <i type="logical" name="LREAL"> F  </i>
  <i type="int" name="ISMEAR">     0</i>
  <i name="SIGMA">      0.20000000</i>
  <i type="logical" name="LWAVE"> F  </i>
  <i type="logical" name="LCHARG"> F  </i>
  <i type="logical" name="LVTOT"> T  </i>
  <i type="int" name="LORBIT">    11</i>
  <i type="logical" name="LELF"> F  </i>
  <i type="logical" name="LASPH"> T  </i>
  <i type="logical" name="LAECHG"> T  </i>
  <i type="string" name="GGA">Ps</i>
  <i type="logical" name="LMIXTAU"> T  </i>
 </incar>
 <primitive_cell>
  <structure name="primitive_cell" >
   <crystal>
    <varray name="basis" >
     <v>       0.00000000       2.73000000       2.73000000 </v>
     <v>       2.73000000       0.00000000       2.73000000 </v>
     <v>       2.73000000       2.73000000       0.00000000 </v>
    </varray>
    <i name="volume">     40.69283400 </i>
    <varray name="rec_basis" >
     <v>      -0.18315018       0.18315018       0.18315018 </v>
     <v>       0.18315018      -0.18315018       0.18315018 </v>
     <v>       0.18315018       0.18315018      -0.18315018 </v>
    </varray>
   </crystal>
   <varray name="positions" >
    <v>       0.00000000       0.00000000       0.00000000 </v>
    <v>       0.25000000       0.25000000       0.25000000 </v>
   </varray>
  </structure>
  <varray name="primitive_index" >
   <v type="int" >        1 </v>
   <v type="int" >        2 </v>
  </varray>
 </primitive_cell>
 <kpoints>
  <generation param="Gamma">
   <v type="int" name="divisions">       7        7        7 </v>
   <v name="usershift">      0.00000000       0.00000000       0.00000000 </v>
   <v name="genvec1">      0.14285714      -0.00000000       0.00000000 </v>
   <v name="genvec2">     -0.00000000       0.14285714      -0.00000000 </v>
   <v name="genvec3">      0.00000000       0.00000000       0.14285714 </v>
   <v name="shift">      0.00000000       0.00000000       0.00000000 </v>
  </generation>
  <varray name="kpointlist" >
   <v>       0.00000000       0.00000000       0.00000000 </v>
   <v>       0.14285714       0.00000000       0.00000000 </v>
   <v>       0.28571429       0.00000000       0.00000000 </v>
   <v>       0.42857143       0.00000000       0.00000000 </v>
   <v>       0.14285714       0.14285714       0.00000000 </v>
   <v>       0.28571429       0.14285714       0.00000000 </v>
   <v>       0.42857143       0.14285714       0.00000000 </v>
   <v>      -0.42857143       0.14285714       0.00000000 </v>
   <v>      -0.28571429       0.14285714       0.00000000 </v>
   <v>      -0.14285714       0.14285714       0.00000000 </v>
   <v>       0.28571429       0.28571429       0.00000000 </v>
   <v>       0.42857143       0.28571429       0.00000000 </v>
   <v>      -0.42857143       0.28571429       0.00000000 </v>
   <v>      -0.28571429       0.28571429       0.00000000 </v>
   <v>       0.42857143       0.42857143       0.00000000 </v>
   <v>      -0.42857143       0.42857143       0.00000000 </v>
   <v>       0.42857143       0.28571429       0.14285714 </v>
   <v>      -0.42857143       0.28571429       0.14285714 </v>
   <v>      -0.42857143       0.42857143       0.14285714 </v>
   <v>      -0.28571429       0.42857143       0.14285714 </v>
  </varray>
  <varray name="weights" >
   <v>       0.00291545 </v>
   <v>       0.02332362 </v>
   <v>       0.02332362 </v>
   <v>       0.02332362 </v>
   <v>       0.01749271 </v>
   <v>       0.06997085 </v>
   <v>       0.06997085 </v>
   <v>       0.06997085 </v>
   <v>       0.06997085 </v>
   <v>       0.03498542 </v>
   <v>       0.01749271 </v>
   <v>       0.06997085 </v>
   <v>       0.06997085 </v>
   <v>       0.03498542 </v>
   <v>       0.01749271 </v>
   <v>       0.03498542 </v>
   <v>       0.06997085 </v>
   <v>       0.13994169 </v>
   <v>       0.06997085 </v>
   <v>       0.06997085 </v>
  </varray>
 </kpoints>
 <parameters>
  <separator name="general" >
   <i type="string" name="SYSTEM">unknown system</i>
   <i type="logical" name="LCOMPAT"> F  </i>
  </separator>
  <separator name="electronic" >
   <i type="string" name="PREC">accura</i>
   <i name="ENMAX">    680.00000000</i>
   <i name="ENAUG">   1360.00000000</i>
   <i name="EDIFF">      0.00001000</i>
   <i type="int" name="IALGO">    68</i>
   <i type="int" name="IWAVPR">    11</i>
   <i type="int" name="NBANDS">    12</i>
   <i type="int" name="NBANDSLOW">    -1</i>
   <i type="int" name="NBANDSHIGH">    -1</i>
   <i name="NELECT">      8.00000000</i>
   <i type="int" name="TURBO">     0</i>
   <i type="int" name="IRESTART">     0</i>
   <i type="int" name="NREBOOT">     0</i>
   <i type="int" name="NMIN">     0</i>
   <i name="EREF">      0.00000000</i>
   <separator name="electronic smearing" >
    <i type="int" name="ISMEAR">     0</i>
    <i name="SIGMA">      0.20000000</i>
    <i name="KSPACING">      0.50000000</i>
    <i type="logical" name="KGAMMA"> T  </i>
    <i type="logical" name="KBLOWUP"> T  </i>
   </separator>
   <separator name="electronic projectors" >
    <i type="logical" name="LREAL"> F  </i>
    <v name="ROPT">      0.00000000</v>
    <i type="int" name="LMAXPAW">  -100</i>
    <i type="int" name="LMAXMIX">     2</i>
    <i type="logical" name="NLSPLINE"> F  </i>
   </separator>
   <separator name="electronic startup" >
    <i type="int" name="ISTART">     0</i>
    <i type="int" name="ICHARG">     2</i>
    <i type="int" name="INIWAV">     1</i>
   </separator>
   <separator name="electronic spin" >
    <i type="int" name="ISPIN">     2</i>
    <i type="logical" name="LNONCOLLINEAR"> F  </i>
    <v name="MAGMOM">      0.60000000      0.60000000</v>
    <i name="NUPDOWN">     -1.00000000</i>
    <i type="logical" name="LSORBIT"> F  </i>
    <v name="SAXIS">      0.00000000      0.00000000      1.00000000</v>
    <i type="logical" name="LSPIRAL"> F  </i>
    <v name="QSPIRAL">      0.00000000      0.00000000      0.00000000</v>
    <i type="logical" name="LZEROZ"> F  </i>
   </separator>
   <separator name="electronic exchange-correlation" >
    <i type="logical" name="LASPH"> T  </i>
    <i type="logical" name="LMETAGGA"> F  </i>
   </separator>
   <separator name="electronic convergence" >
    <i type="int" name="NELM">   200</i>
    <i type="int" name="NELMDL">    -5</i>
    <i type="int" name="NELMIN">     2</i>
    <i name="ENINI">    680.00000000</i>
    <separator name="electronic convergence detail" >
     <i type="logical" name="LDIAG"> T  </i>
     <i type="logical" name="LSUBROT"> F  </i>
     <i name="WEIMIN">      0.00100000</i>
     <i name="EBREAK">      0.00000021</i>
     <i name="DEPER">      0.30000000</i>
     <i type="int" name="NRMM">     4</i>
     <i name="TIME">      0.40000000</i>
    </separator>
   </separator>
   <separator name="electronic mixer" >
    <i name="AMIX">      0.40000000</i>
    <i name="BMIX">      1.00000000</i>
    <i name="AMIN">      0.10000000</i>
    <i name="AMIX_MAG">      1.60000000</i>
    <i name="BMIX_MAG">      1.00000000</i>
    <separator name="electronic mixer details" >
     <i type="int" name="IMIX">     4</i>
     <i type="logical" name="MIXFIRST"> F  </i>
     <i type="int" name="MAXMIX">   -45</i>
     <i name="WC">    100.00000000</i>
     <i type="int" name="INIMIX">     1</i>
     <i type="int" name="MIXPRE">     1</i>
     <i type="int" name="MREMOVE">     5</i>
    </separator>
   </separator>
   <separator name="electronic dipolcorrection" >
    <i type="logical" name="LDIPOL"> F  </i>
    <i type="logical" name="LMONO"> F  </i>
    <i type="int" name="IDIPOL">     0</i>
    <i name="EPSILON">      1.00000000</i>
    <v name="DIPOL">   -100.00000000   -100.00000000   -100.00000000</v>
    <i name="EFIELD">      0.00000000</i>
   </separator>
  </separator>
  <separator name="grids" >
   <i type="int" name="NGX">    36</i>
   <i type="int" name="NGY">    36</i>
   <i type="int" name="NGZ">    36</i>
   <i type="int" name="NGXF">    72</i>
   <i type="int" name="NGYF">    72</i>
   <i type="int" name="NGZF">    72</i>
   <i type="logical" name="ADDGRID"> F  </i>
  </separator>
  <separator name="ionic" >
   <i type="int" name="NSW">    99</i>
   <i type="int" name="IBRION">     2</i>
   <i type="int" name="MDALGO">     0</i>
   <i type="int" name="ISIF">     3</i>
   <i name="PSTRESS">      0.00000000</i>
   <i name="EDIFFG">     -0.02000000</i>
   <i type="int" name="NFREE">     1</i>
   <i name="POTIM">      0.50000000</i>
   <i name="SMASS">     -3.00000000</i>
   <i name="SCALEE">      1.00000000</i>
  </separator>
  <separator name="ionic md" >
   <i name="TEBEG">      0.00010000</i>
   <i name="TEEND">      0.00010000</i>
   <i type="int" name="NBLOCK">     1</i>
   <i type="int" name="KBLOCK">    99</i>
   <i type="int" name="NPACO">   256</i>
   <i name="APACO">     10.00000000</i>
  </separator>
  <separator name="symmetry" >
   <i type="int" name="ISYM">     2</i>
   <i name="SYMPREC">      0.00001000</i>
  </separator>
  <separator name="dos" >
   <i type="int" name="LORBIT">    11</i>
   <v name="RWIGS">     -1.00000000</v>
   <i type="int" name="NEDOS">   301</i>
   <i name="EMIN">     10.00000000</i>
   <i name="EMAX">    -10.00000000</i>
   <i name="EFERMI">      0.00000000</i>
  </separator>
  <separator name="writing" >
   <i type="int" name="NWRITE">     2</i>
   <i type="logical" name="LWAVE"> F  </i>
   <i type="logical" name="LDOWNSAMPLE"> F  </i>
   <i type="logical" name="LCHARG"> F  </i>
   <i type="logical" name="LPARD"> F  </i>
   <i type="logical" name="LVTOT"> T  </i>
   <i type="logical" name="LVHAR"> F  </i>
   <i type="logical" name="LELF"> F  </i>
   <i type="logical" name="LOPTICS"> F  </i>
   <v name="STM">      0.00000000      0.00000000      0.00000000      0.00000000      0.00000000      0.00000000      0.00000000</v>
  </separator>
  <separator name="performance" >
   <i type="int" name="NPAR">     4</i>
   <i type="int" name="NSIM">     4</i>
   <i type="int" name="NBLK">    -1</i>
   <i type="logical" name="LPLANE"> T  </i>
   <i type="logical" name="LSCALAPACK"> T  </i>
   <i type="logical" name="LSCAAWARE"> F  </i>
   <i type="logical" name="LSCALU"> F  </i>
   <i type="logical" name="LASYNC"> F  </i>
   <i type="logical" name="LORBITALREAL"> F  </i>
  </separator>
  <separator name="miscellaneous" >
   <i type="int" name="IDIOT">     3</i>
   <i type="int" name="PHON_NSTRUCT">    -1</i>
   <i type="logical" name="LMUSIC"> F  </i>
   <v name="POMASS">     28.08500000</v>
   <v name="DARWINR">      0.00000000</v>
   <v name="DARWINV">      1.00000000</v>
   <i type="logical" name="LCORR"> T  </i>
  </separator>
  <i type="logical" name="GGA_COMPAT"> T  </i>
  <i type="logical" name="LBERRY"> F  </i>
  <i type="int" name="ICORELEVEL">     0</i>
  <i type="logical" name="LDAU"> F  </i>
  <i type="int" name="I_CONSTRAINED_M">     0</i>
  <separator name="electronic exchange-correlation" >
   <i type="string" name="GGA">PS</i>
   <i type="int" name="VOSKOWN">     0</i>
   <i type="logical" name="LHFCALC"> F  </i>
   <i type="string" name="PRECFOCK"></i>
   <i type="logical" name="LSYMGRAD"> F  </i>
   <i type="logical" name="LHFONE"> F  </i>
   <i type="logical" name="LRHFCALC"> F  </i>
   <i type="logical" name="LTHOMAS"> F  </i>
   <i type="logical" name="LMODELHF"> F  </i>
   <i type="logical" name="LFOCKACE"> F  </i>
   <i name="ENCUT4O">     -1.00000000</i>
   <i type="int" name="EXXOEP">     0</i>
   <i type="int" name="FOURORBIT">     0</i>
   <i name="AEXX">      0.00000000</i>
   <i name="HFALPHA">      0.00000000</i>
   <i name="MCALPHA">      0.00000000</i>
   <i name="ALDAX">      1.00000000</i>
   <i name="AGGAX">      1.00000000</i>
   <i name="ALDAC">      1.00000000</i>
   <i name="AGGAC">      1.00000000</i>
   <i type="int" name="NKREDX">     1</i>
   <i type="int" name="NKREDY">     1</i>
   <i type="int" name="NKREDZ">     1</i>
   <i type="logical" name="SHIFTRED"> F  </i>
   <i type="logical" name="ODDONLY"> F  </i>
   <i type="logical" name="EVENONLY"> F  </i>
   <i type="int" name="LMAXFOCK">     0</i>
   <i type="int" name="NMAXFOCKAE">     0</i>
   <i type="logical" name="LFOCKAEDFT"> F  </i>
   <i name="HFSCREEN">      0.00000000</i>
   <i name="HFSCREENC">      0.00000000</i>
   <i type="int" name="NBANDSGWLOW">     0</i>
  </separator>
  <separator name="vdW DFT" >
   <i type="logical" name="LUSE_VDW"> F  </i>
   <i name="Zab_VDW">     -0.84910000</i>
   <i name="PARAM1">      0.12340000</i>
   <i name="PARAM2">      1.00000000</i>
   <i name="PARAM3">      0.00000000</i>
  </separator>
  <separator name="model GW" >
   <i type="int" name="MODEL_GW">     0</i>
   <i name="MODEL_EPS0">     12.20785020</i>
   <i name="MODEL_ALPHA">      1.00000000</i>
  </separator>
  <separator name="linear response parameters" >
   <i type="logical" name="LEPSILON"> F  </i>
   <i type="logical" name="LRPA"> F  </i>
   <i type="logical" name="LNABLA"> F  </i>
   <i type="logical" name="LVEL"> F  </i>
   <i name="CSHIFT">      0.10000000</i>
   <i name="OMEGAMAX">     -1.00000000</i>
   <i name="DEG_THRESHOLD">      0.00200000</i>
   <i name="RTIME">     -0.10000000</i>
   <i name="WPLASMAI">      0.00000000</i>
   <v name="DFIELD">      0.00000000      0.00000000      0.00000000</v>
   <v name="WPLASMA">      0.00000000      0.00000000      0.00000000      0.00000000      0.00000000      0.00000000      0.00000000      0.00000000      0.00000000</v>
  </separator>
  <separator name="orbital magnetization" >
   <i type="logical" name="NUCIND"> F  </i>
   <v name="MAGPOS">      0.00000000      0.00000000      0.00000000</v>
   <i type="logical" name="LNICSALL"> T  </i>
   <i type="logical" name="ORBITALMAG"> F  </i>
   <i type="logical" name="LMAGBLOCH"> F  </i>
   <i type="logical" name="LCHIMAG"> F  </i>
   <i type="logical" name="LGAUGE"> T  </i>
   <i type="int" name="MAGATOM">     0</i>
   <v name="MAGDIPOL">      0.00000000      0.00000000      0.00000000</v>
   <v name="AVECCONST">      0.00000000      0.00000000      0.00000000</v>
  </separator>
  <separator name="response functions" >
   <i type="logical" name="LFINITE_TEMPERATURE"> F  </i>
   <i type="logical" name="LADDER"> F  </i>
   <i type="logical" name="LRPAFORCE"> F  </i>
   <i type="logical" name="LFXC"> F  </i>
   <i type="logical" name="LHARTREE"> T  </i>
   <i type="int" name="IBSE">     0</i>
   <v type="int" name="KPOINT">    -1     0     0     0</v>
   <i type="logical" name="LTCTC"> F  </i>
   <i type="logical" name="LTCTE"> F  </i>
   <i type="logical" name="LTETE"> F  </i>
   <i type="logical" name="LTRIPLET"> F  </i>
   <i type="logical" name="LFXCEPS"> F  </i>
   <i type="logical" name="LFXHEG"> F  </i>
   <i type="int" name="NATURALO">     2</i>
   <i type="logical" name="LHOLEGF"> F  </i>
   <i type="logical" name="L2ORDER"> F  </i>
   <i type="logical" name="LDMP1"> F  </i>
   <i type="logical" name="LMP2LT"> F  </i>
   <i type="logical" name="LSMP2LT"> F  </i>
   <i type="logical" name="LGWLF"> F  </i>
   <i name="ENCUTGW">     -2.00000000</i>
   <i name="ENCUTGWSOFT">     -2.00000000</i>
   <i name="ENCUTLF">     -1.00000000</i>
   <i type="logical" name="LESF_SPLINES"> F  </i>
   <i type="int" name="LMAXMP2">    -1</i>
   <i name="SCISSOR">      0.00000000</i>
   <i type="int" name="NOMEGA">     0</i>
   <i type="int" name="NOMEGAR">     0</i>
   <i type="int" name="NBANDSGW">    -1</i>
   <i type="int" name="NBANDSO">    -1</i>
   <i type="int" name="NBANDSV">    -1</i>
   <i type="int" name="NELMGW">     1</i>
   <i type="int" name="NELMHF">     1</i>
   <i type="int" name="DIM">     3</i>
   <i type="int" name="IESPILON">     4</i>
   <i type="int" name="ANTIRES">     0</i>
   <i name="OMEGAMAX">    -30.00000000</i>
   <i name="OMEGAMIN">    -30.00000000</i>
   <i name="OMEGATL">   -200.00000000</i>
   <i type="int" name="OMEGAGRID">     0</i>
   <i name="CSHIFT">     -0.10000000</i>
   <i type="logical" name="LSELFENERGY"> F  </i>
   <i type="logical" name="LSPECTRAL"> F  </i>
   <i type="logical" name="LSPECTRALGW"> F  </i>
   <i type="logical" name="LSINGLES"> F  </i>
   <i type="logical" name="LFERMIGW"> F  </i>
   <i type="logical" name="ODDONLYGW"> F  </i>
   <i type="logical" name="EVENONLYGW"> F  </i>
   <i type="int" name="NKREDLFX">     1</i>
   <i type="int" name="NKREDLFY">     1</i>
   <i type="int" name="NKREDLFZ">     1</i>
   <i type="int" name="MAXMEM">  2800</i>
   <i type="int" name="TELESCOPE">     0</i>
   <i type="int" name="NTAUPAR">    -1</i>
   <i type="int" name="NOMEGAPAR">    -1</i>
   <i name="DAMP_NEWTON">      0.80000001</i>
   <i name="LAMBDA">      1.00000000</i>
  </separator>
  <separator name="External order field" >
   <i name="OFIELD_KAPPA">      0.00000000</i>
   <v name="OFIELD_K">      0.00000000      0.00000000      0.00000000</v>
   <i name="OFIELD_Q6_NEAR">      0.00000000</i>
   <i name="OFIELD_Q6_FAR">      0.00000000</i>
   <i name="OFIELD_A">      0.00000000</i>
  </separator>
  <separator name="optional k-points parameters" >
   <i type="int" name="KPOINTS_OPT_MODE">     1</i>
   <i type="logical" name="LKPOINTS_OPT"> F  </i>
  </separator>
 </parameters>
 <atominfo>
  <atoms>       2 </atoms>
  <types>       1 </types>
  <array name="atoms" >
   <dimension dim="1">ion</dimension>
   <field type="string">element</field>
   <field type="int">atomtype</field>
   <set>
    <rc><c>Si</c><c>   1</c></rc>
    <rc><c>Si</c><c>   1</c></rc>
   </set>
  </array>
  <array name="atomtypes" >
   <dimension dim="1">type</dimension>
   <field type="int">atomspertype</field>
   <field type="string">element</field>
   <field>mass</field>
   <field>valence</field>
   <field type="string">pseudopotential</field>
   <set>
    <rc><c>   2</c><c>Si</c><c>     28.08500000</c><c>      4.00000000</c><c>  PAW_PBE Si 05Jan2001                  </c></rc>
   </set>
  </array>
 </atominfo>
 <structure name="initialpos" >
  <crystal>
   <varray name="basis" >
    <v>       0.00000000       2.73000000       2.73000000 </v>
    <v>       2.73000000       0.00000000       2.73000000 </v>
    <v>       2.73000000       2.73000000       0.00000000 </v>
   </varray>
   <i name="volume">     40.69283400 </i>
   <varray name="rec_basis" >
    <v>      -0.18315018       0.18315018       0.18315018 </v>
    <v>       0.18315018      -0.18315018       0.18315018 </v>
    <v>       0.18315018       0.18315018      -0.18315018 </v>
   </varray>
  </crystal>
  <varray name="positions" >
   <v>       0.00000000       0.00000000       0.00000000 </v>
   <v>       0.25000000       0.25000000       0.25000000 </v>
  </varray>
 </structure>
 <calculation>
  <scstep>
   <time name="dav">    0.41    0.41</time>
   <time name="total">    1.08    1.08</time>
   <energy>
    <i name="alphaZ">      3.30899841 </i>
    <i name="ewald">   -227.30768138 </i>
    <i name="hartreedc">    -11.25054504 </i>
    <i name="XCdc">    -17.44029463 </i>
    <i name="pawpsdc">    174.89845602 </i>
    <i name="pawaedc">   -140.31916047 </i>
    <i name="eentropy">     -0.00826006 </i>
    <i name="bandstr">     20.10582623 </i>
    <i name="atom">    205.15160006 </i>
    <i name="e_fr_energy">      7.13893914 </i>
    <i name="e_wo_entrp">      7.14719920 </i>
    <i name="e_0_energy">      7.14306917 </i>
   </energy>
  </scstep>
  <scstep>
   <time name="dav">    0.47    0.47</time>
   <time name="total">    0.47    0.47</time>
   <energy>
    <i name="e_fr_energy">    -10.85233899 </i>
    <i name="e_wo_entrp">    -10.84941913 </i>
    <i name="e_0_energy">    -10.85087906 </i>
   </energy>
  </scstep>
  <scstep>
   <time name="dav">    0.50    0.50</time>
   <time name="total">    0.50    0.50</time>
   <energy>
    <i name="e_fr_energy">    -11.50460402 </i>
    <i name="e_wo_entrp">    -11.50353347 </i>
    <i name="e_0_energy">    -11.50406874 </i>
   </energy>
  </scstep>
  <scstep>
   <time name="dav">    0.53    0.53</time>
   <time name="total">    0.53    0.53</time>
   <energy>
    <i name="e_fr_energy">    -11.50952124 </i>
    <i name="e_wo_entrp">    -11.50846062 </i>
    <i name="e_0_energy">    -11.50899093 </i>
   </energy>
  </scstep>
  <scstep>
   <time name="dav">    0.46    0.46</time>
   <time name="total">    0.52    0.52</time>
   <energy>
    <i name="e_fr_energy">    -11.50956653 </i>
    <i name="e_wo_entrp">    -11.50850598 </i>
    <i name="e_0_energy">    -11.50903625 </i>
   </energy>
  </scstep>
  <scstep>
   <time name="diag">    0.20    0.20</time>
   <time name="diis">    0.15    0.15</time>
   <time name="orth">    0.01    0.01</time>
   <time name="total">    1.07    1.08</time>
   <energy>
    <i name="e_fr_energy">    -11.53588474 </i>
    <i name="e_wo_entrp">    -11.53559532 </i>
    <i name="e_0_energy">    -11.53574003 </i>
   </energy>
  </scstep>
  <scstep>
   <time name="diag">    0.17    0.17</time>
   <time name="diis">    0.15    0.15</time>
   <time name="orth">    0.01    0.01</time>
   <time name="total">    1.04    1.05</time>
   <energy>
    <i name="e_fr_energy">    -11.45883785 </i>
    <i name="e_wo_entrp">    -11.45793308 </i>
    <i name="e_0_energy">    -11.45838546 </i>
   </energy>
  </scstep>
  <scstep>
   <time name="diag">    0.17    0.17</time>
   <time name="diis">    0.15    0.15</time>
   <time name="orth">    0.01    0.01</time>
   <time name="total">    1.02    1.02</time>
   <energy>
    <i name="e_fr_energy">    -11.48099952 </i>
    <i name="e_wo_entrp">    -11.48029733 </i>
    <i name="e_0_energy">    -11.48064842 </i>
   </energy>
  </scstep>
  <scstep>
   <time name="diag">    0.17    0.17</time>
   <time name="diis">    0.15    0.15</time>
   <time name="orth">    0.01    0.01</time>
   <time name="total">    0.98    0.98</time>
   <energy>
    <i name="e_fr_energy">    -11.48105637 </i>
    <i name="e_wo_entrp">    -11.48037143 </i>
    <i name="e_0_energy">    -11.48071390 </i>
   </energy>
  </scstep>
  <scstep>
   <time name="diag">    0.17    0.17</time>
   <time name="diis">    0.15    0.15</time>
   <time name="orth">    0.01    0.01</time>
   <time name="total">    0.99    0.99</time>
   <energy>
    <i name="e_fr_energy">    -11.48119296 </i>
    <i name="e_wo_entrp">    -11.48054373 </i>
    <i name="e_0_energy">    -11.48086835 </i>
   </energy>
  </scstep>
  <scstep>
   <time name="diag">    0.17    0.17</time>
   <time name="diis">    0.15    0.15</time>
   <time name="orth">    0.01    0.01</time>
   <time name="total">    0.99    0.99</time>
   <energy>
    <i name="e_fr_energy">    -11.48122988 </i>
    <i name="e_wo_entrp">    -11.48058485 </i>
    <i name="e_0_energy">    -11.48090737 </i>
   </energy>
  </scstep>
  <scstep>
   <time name="diag">    0.17    0.17</time>
   <time name="diis">    0.13    0.13</time>
   <time name="orth">    0.01    0.01</time>
   <time name="total">    0.91    0.91</time>
   <energy>
    <i name="alphaZ">      3.30899841 </i>
    <i name="ewald">   -227.30768138 </i>
    <i name="hartreedc">    -14.81883747 </i>
    <i name="XCdc">    -16.91603265 </i>
    <i name="pawpsdc">    844.08286210 </i>
    <i name="pawaedc">   -809.70940499 </i>
    <i name="eentropy">     -0.00064402 </i>
    <i name="bandstr">      4.72790436 </i>
    <i name="atom">    205.15160006 </i>
    <i name="e_fr_energy">    -11.48123558 </i>
    <i name="e_wo_entrp">    -11.48059156 </i>
    <i name="e_0_energy">    -11.48091357 </i>
   </energy>
  </scstep>
  <structure>
   <crystal>
    <varray name="basis" >
     <v>       0.00000000       2.73000000       2.73000000 </v>
     <v>       2.73000000       0.00000000       2.73000000 </v>
     <v>       2.73000000       2.73000000       0.00000000 </v>
    </varray>
    <i name="volume">     40.69283400 </i>
    <varray name="rec_basis" >
     <v>      -0.18315018       0.18315018       0.18315018 </v>
     <v>       0.18315018      -0.18315018       0.18315018 </v>
     <v>       0.18315018       0.18315018      -0.18315018 </v>
    </varray>
   </crystal>
   <varray name="positions" >
    <v>       0.00000000       0.00000000       0.00000000 </v>
    <v>       0.25000000       0.25000000       0.25000000 </v>
   </varray>
  </structure>
  <varray name="forces" >
   <v>       0.00000000       0.00000000       0.00000000 </v>
   <v>      -0.00000000      -0.00000000      -0.00000000 </v>
  </varray>
  <varray name="stress" >
   <v>     -11.95348566      -0.00000000      -0.00000000 </v>
   <v>      -0.00000000     -11.95348566       0.00000000 </v>
   <v>      -0.00000000       0.00000000     -11.95348566 </v>
  </varray>
  <energy>
   <i name="e_fr_energy">    -11.48123558 </i>
   <i name="e_wo_entrp">    -11.48059156 </i>
   <i name="e_0_energy">    -11.48091357 </i>
  </energy>
  <time name="totalsc">   11.47   11.49</time>
 </calculation>
 <calculation>
  <scstep>
   <time name="dav">    0.40    0.40</time>
   <time name="total">    1.06    1.06</time>
   <energy>
    <i name="alphaZ">      3.38277406 </i>
    <i name="ewald">   -228.98458991 </i>
    <i name="hartreedc">    -14.93031211 </i>
    <i name="XCdc">    -16.81654928 </i>
    <i name="pawpsdc">    840.16452710 </i>
    <i name="pawaedc">   -805.79106137 </i>
    <i name="eentropy">     -0.00099226 </i>
    <i name="bandstr">      6.33939952 </i>
    <i name="atom">    205.15160006 </i>
    <i name="e_fr_energy">    -11.48520418 </i>
    <i name="e_wo_entrp">    -11.48421192 </i>
    <i name="e_0_energy">    -11.48470805 </i>
   </energy>
  </scstep>
  <scstep>
   <time name="diag">    0.18    0.18</time>
   <time name="diis">    0.18    0.18</time>
   <time name="orth">    0.01    0.01</time>
   <time name="total">    1.10    1.10</time>
   <energy>
    <i name="e_fr_energy">    -11.48325809 </i>
    <i name="e_wo_entrp">    -11.48235400 </i>
    <i name="e_0_energy">    -11.48280605 </i>
   </energy>
  </scstep>
  <scstep>
   <time name="diag">    0.17    0.17</time>
   <time name="diis">    0.15    0.15</time>
   <time name="orth">    0.01    0.01</time>
   <time name="total">    0.98    0.98</time>
   <energy>
    <i name="e_fr_energy">    -11.48230989 </i>
    <i name="e_wo_entrp">    -11.48150262 </i>
    <i name="e_0_energy">    -11.48190625 </i>
   </energy>
  </scstep>
  <scstep>
   <time name="diag">    0.17    0.17</time>
   <time name="diis">    0.15    0.15</time>
   <time name="orth">    0.01    0.01</time>
   <time name="total">    0.98    0.98</time>
   <energy>
    <i name="e_fr_energy">    -11.48231791 </i>
    <i name="e_wo_entrp">    -11.48151028 </i>
    <i name="e_0_energy">    -11.48191410 </i>
   </energy>
  </scstep>
  <scstep>
   <time name="diag">    0.17    0.17</time>
   <time name="diis">    0.13    0.13</time>
   <time name="orth">    0.01    0.01</time>
   <time name="total">    0.91    0.91</time>
   <energy>
    <i name="alphaZ">      3.38277406 </i>
    <i name="ewald">   -228.98458991 </i>
    <i name="hartreedc">    -14.56433863 </i>
    <i name="XCdc">    -16.82193910 </i>
    <i name="pawpsdc">    881.09211244 </i>
    <i name="pawaedc">   -846.73512016 </i>
    <i name="eentropy">     -0.00081031 </i>
    <i name="bandstr">      5.99799152 </i>
    <i name="atom">    205.15160006 </i>
    <i name="e_fr_energy">    -11.48232003 </i>
    <i name="e_wo_entrp">    -11.48150972 </i>
    <i name="e_0_energy">    -11.48191488 </i>
   </energy>
  </scstep>
  <structure>
   <crystal>
    <varray name="basis" >
     <v>      -0.00000000       2.71000756       2.71000756 </v>
     <v>       2.71000756      -0.00000000       2.71000756 </v>
     <v>       2.71000756       2.71000756      -0.00000000 </v>
    </varray>
    <i name="volume">     39.80535521 </i>
    <varray name="rec_basis" >
     <v>      -0.18450133       0.18450133       0.18450133 </v>
     <v>       0.18450133      -0.18450133       0.18450133 </v>
     <v>       0.18450133       0.18450133      -0.18450133 </v>
    </varray>
   </crystal>
   <varray name="positions" >
    <v>       0.00000000       0.00000000       0.00000000 </v>
    <v>       0.25000000       0.25000000       0.25000000 </v>
   </varray>
  </structure>
  <varray name="forces" >
   <v>       0.00000000      -0.00000000      -0.00000000 </v>
   <v>      -0.00000000       0.00000000       0.00000000 </v>
  </varray>
  <varray name="stress" >
   <v>       8.48332916      -0.00000000       0.00000000 </v>
   <v>      -0.00000000       8.48332916       0.00000000 </v>
   <v>       0.00000000       0.00000000       8.48332916 </v>
  </varray>
  <energy>
   <i name="e_fr_energy">    -11.48232003 </i>
   <i name="e_wo_entrp">    -11.48150972 </i>
   <i name="e_0_energy">    -11.48191488 </i>
  </energy>
  <time name="totalsc">    6.39    6.40</time>
 </calculation>
 <calculation>
  <scstep>
   <time name="dav">    0.39    0.39</time>
   <time name="total">    1.05    1.05</time>
   <energy>
    <i name="alphaZ">      3.35289172 </i>
    <i name="ewald">   -228.30833595 </i>
    <i name="hartreedc">    -14.52031143 </i>
    <i name="XCdc">    -16.86201293 </i>
    <i name="pawpsdc">    880.62599688 </i>
    <i name="pawaedc">   -846.26930918 </i>
    <i name="eentropy">     -0.00067588 </i>
    <i name="bandstr">      5.34642847 </i>
    <i name="atom">    205.15160006 </i>
    <i name="e_fr_energy">    -11.48372823 </i>
    <i name="e_wo_entrp">    -11.48305235 </i>
    <i name="e_0_energy">    -11.48339029 </i>
   </energy>
  </scstep>
  <scstep>
   <time name="diag">    0.17    0.17</time>
   <time name="diis">    0.15    0.15</time>
   <time name="orth">    0.01    0.01</time>
   <time name="total">    0.98    0.99</time>
   <energy>
    <i name="e_fr_energy">    -11.48341437 </i>
    <i name="e_wo_entrp">    -11.48270944 </i>
    <i name="e_0_energy">    -11.48306190 </i>
   </energy>
  </scstep>
  <scstep>
   <time name="diag">    0.17    0.17</time>
   <time name="diis">    0.15    0.15</time>
   <time name="orth">    0.01    0.01</time>
   <time name="total">    0.98    0.98</time>
   <energy>
    <i name="e_fr_energy">    -11.48325647 </i>
    <i name="e_wo_entrp">    -11.48251662 </i>
    <i name="e_0_energy">    -11.48288654 </i>
   </energy>
  </scstep>
  <scstep>
   <time name="diag">    0.17    0.17</time>
   <time name="diis">    0.13    0.13</time>
   <time name="orth">    0.01    0.01</time>
   <time name="total">    0.90    0.90</time>
   <energy>
    <i name="alphaZ">      3.35289172 </i>
    <i name="ewald">   -228.30833595 </i>
    <i name="hartreedc">    -14.66558002 </i>
    <i name="XCdc">    -16.85926200 </i>
    <i name="pawpsdc">    861.05200981 </i>
    <i name="pawaedc">   -826.68943963 </i>
    <i name="eentropy">     -0.00073966 </i>
    <i name="bandstr">      5.48359916 </i>
    <i name="atom">    205.15160006 </i>
    <i name="e_fr_energy">    -11.48325650 </i>
    <i name="e_wo_entrp">    -11.48251685 </i>
    <i name="e_0_energy">    -11.48288668 </i>
   </energy>
  </scstep>
  <structure>
   <crystal>
    <varray name="basis" >
     <v>      -0.00000000       2.71803466       2.71803466 </v>
     <v>       2.71803466      -0.00000000       2.71803466 </v>
     <v>       2.71803466       2.71803466      -0.00000000 </v>
    </varray>
    <i name="volume">     40.16011677 </i>
    <varray name="rec_basis" >
     <v>      -0.18395645       0.18395645       0.18395645 </v>
     <v>       0.18395645      -0.18395645       0.18395645 </v>
     <v>       0.18395645       0.18395645      -0.18395645 </v>
    </varray>
   </crystal>
   <varray name="positions" >
    <v>       0.00000000       0.00000000       0.00000000 </v>
    <v>       0.25000000       0.25000000       0.25000000 </v>
   </varray>
  </structure>
  <varray name="forces" >
   <v>       0.00000000       0.00000000       0.00000000 </v>
   <v>      -0.00000000      -0.00000000      -0.00000000 </v>
  </varray>
  <varray name="stress" >
   <v>       0.10814261      -0.00000000      -0.00000000 </v>
   <v>      -0.00000000       0.10814261       0.00000000 </v>
   <v>       0.00000000       0.00000000       0.10814261 </v>
  </varray>
  <energy>
   <i name="e_fr_energy">    -11.48325650 </i>
   <i name="e_wo_entrp">    -11.48251685 </i>
   <i name="e_0_energy">    -11.48288668 </i>
  </energy>
  <time name="totalsc">    5.26    5.26</time>
  <eigenvalues>
   <array>
    <dimension dim="1">band</dimension>
    <dimension dim="2">kpoint</dimension>
    <dimension dim="3">spin</dimension>
    <field>eigene</field>
    <field>occ</field>
    <set>
     <set comment="spin 1">
      <set comment="kpoint 1">
       <r>   -6.2075    1.0000 </r>
       <r>    5.7632    0.9274 </r>
       <r>    5.7632    0.9274 </r>
       <r>    5.7632    0.9274 </r>
       <r>    8.2779    0.0000 </r>
       <r>    8.2779    0.0000 </r>
       <r>    8.2779    0.0000 </r>
       <r>    9.0535    0.0000 </r>
       <r>   13.4483    0.0000 </r>
       <r>   13.4483    0.0000 </r>
       <r>   13.4598    0.0000 </r>
       <r>   16.8482    0.0000 </r>
      </set>
      <set comment="kpoint 2">
       <r>   -5.9410    1.0000 </r>
       <r>    3.8165    1.0000 </r>
       <r>    5.4026    1.0000 </r>
       <r>    5.4026    1.0000 </r>
       <r>    8.1352    0.0000 </r>
       <r>    8.8022    0.0000 </r>
       <r>    8.8022    0.0000 </r>
       <r>   10.7190    0.0000 </r>
       <r>   12.8644    0.0000 </r>
       <r>   12.8644    0.0000 </r>
       <r>   14.4407    0.0000 </r>
       <r>   16.2031    0.0000 </r>
      </set>
      <set comment="kpoint 3">
       <r>   -5.1723    1.0000 </r>
       <r>    1.1879    1.0000 </r>
       <r>    4.8860    1.0000 </r>
       <r>    4.8860    1.0000 </r>
       <r>    7.5874    0.0000 </r>
       <r>    9.2439    0.0000 </r>
       <r>    9.2439    0.0000 </r>
       <r>   13.1105    0.0000 </r>
       <r>   13.1529    0.0000 </r>
       <r>   13.1529    0.0000 </r>
       <r>   14.4554    0.0000 </r>
       <r>   18.1883    0.0000 </r>
      </set>
      <set comment="kpoint 4">
       <r>   -4.1242    1.0000 </r>
       <r>   -0.8534    1.0000 </r>
       <r>    4.5984    1.0000 </r>
       <r>    4.5984    1.0000 </r>
       <r>    7.2596    0.0000 </r>
       <r>    9.0779    0.0000 </r>
       <r>    9.0779    0.0000 </r>
       <r>   13.3369    0.0000 </r>
       <r>   15.1822    0.0000 </r>
       <r>   15.1822    0.0000 </r>
       <r>   16.1885    0.0000 </r>
       <r>   18.2572    0.0000 </r>
      </set>
      <set comment="kpoint 5">
       <r>   -5.8509    1.0000 </r>
       <r>    4.1270    1.0000 </r>
       <r>    4.7796    1.0000 </r>
       <r>    4.7796    1.0000 </r>
       <r>    7.5689    0.0000 </r>
       <r>    9.6934    0.0000 </r>
       <r>    9.6934    0.0000 </r>
       <r>   10.1175    0.0000 </r>
       <r>   12.1508    0.0000 </r>
       <r>   13.8428    0.0000 </r>
       <r>   14.8630    0.0000 </r>
       <r>   17.4695    0.0000 </r>
      </set>
      <set comment="kpoint 6">
       <r>   -5.2425    1.0000 </r>
       <r>    1.9926    1.0000 </r>
       <r>    4.1914    1.0000 </r>
       <r>    4.2356    1.0000 </r>
       <r>    7.7606    0.0000 </r>
       <r>    9.6199    0.0000 </r>
       <r>   10.2245    0.0000 </r>
       <r>   10.4714    0.0000 </r>
       <r>   13.8657    0.0000 </r>
       <r>   14.2152    0.0000 </r>
       <r>   15.7842    0.0000 </r>
       <r>   17.6662    0.0000 </r>
      </set>
      <set comment="kpoint 7">
       <r>   -4.2285    1.0000 </r>
       <r>   -0.2036    1.0000 </r>
       <r>    3.4977    1.0000 </r>
       <r>    4.0486    1.0000 </r>
       <r>    7.8182    0.0000 </r>
       <r>    9.5235    0.0000 </r>
       <r>   10.2379    0.0000 </r>
       <r>   11.4592    0.0000 </r>
       <r>   15.0531    0.0000 </r>
       <r>   15.9489    0.0000 </r>
       <r>   16.6093    0.0000 </r>
       <r>   17.9415    0.0000 </r>
      </set>
      <set comment="kpoint 8">
       <r>   -3.6629    1.0000 </r>
       <r>   -1.0764    1.0000 </r>
       <r>    3.0797    1.0000 </r>
       <r>    4.2501    1.0000 </r>
       <r>    7.9230    0.0000 </r>
       <r>    9.4196    0.0000 </r>
       <r>    9.8354    0.0000 </r>
       <r>   13.8184    0.0000 </r>
       <r>   14.3491    0.0000 </r>
       <r>   14.7464    0.0000 </r>
       <r>   16.6069    0.0000 </r>
       <r>   18.8595    0.0000 </r>
      </set>
      <set comment="kpoint 9">
       <r>   -4.5993    1.0000 </r>
       <r>    0.4807    1.0000 </r>
       <r>    3.0797    1.0000 </r>
       <r>    4.7688    1.0000 </r>
       <r>    8.3419    0.0000 </r>
       <r>    9.6052    0.0000 </r>
       <r>    9.6174    0.0000 </r>
       <r>   12.3227    0.0000 </r>
       <r>   12.4418    0.0000 </r>
       <r>   15.4384    0.0000 </r>
       <r>   16.8926    0.0000 </r>
       <r>   17.8790    0.0000 </r>
      </set>
      <set comment="kpoint 10">
       <r>   -5.5038    1.0000 </r>
       <r>    2.6155    1.0000 </r>
       <r>    3.7687    1.0000 </r>
       <r>    5.3665    1.0000 </r>
       <r>    8.7679    0.0000 </r>
       <r>    9.0085    0.0000 </r>
       <r>    9.2511    0.0000 </r>
       <r>   11.3118    0.0000 </r>
       <r>   11.8932    0.0000 </r>
       <r>   14.2329    0.0000 </r>
       <r>   15.6538    0.0000 </r>
       <r>   16.8905    0.0000 </r>
      </set>
      <set comment="kpoint 11">
       <r>   -4.7979    1.0000 </r>
       <r>    1.6020    1.0000 </r>
       <r>    3.6097    1.0000 </r>
       <r>    3.6097    1.0000 </r>
       <r>    6.5941    0.0000 </r>
       <r>    8.2594    0.0000 </r>
       <r>   12.1106    0.0000 </r>
       <r>   12.1106    0.0000 </r>
       <r>   14.5035    0.0000 </r>
       <r>   15.0235    0.0000 </r>
       <r>   17.7277    0.0000 </r>
       <r>   19.0286    0.0000 </r>
      </set>
      <set comment="kpoint 12">
       <r>   -3.8921    1.0000 </r>
       <r>    0.0959    1.0000 </r>
       <r>    2.6111    1.0000 </r>
       <r>    3.3499    1.0000 </r>
       <r>    6.8725    0.0000 </r>
       <r>    8.3610    0.0000 </r>
       <r>   12.3262    0.0000 </r>
       <r>   12.4907    0.0000 </r>
       <r>   16.6116    0.0000 </r>
       <r>   16.9662    0.0000 </r>
       <r>   17.3046    0.0000 </r>
       <r>   17.9230    0.0000 </r>
      </set>
      <set comment="kpoint 13">
       <r>   -2.9655    1.0000 </r>
       <r>   -1.0928    1.0000 </r>
       <r>    1.6449    1.0000 </r>
       <r>    3.5209    1.0000 </r>
       <r>    7.1090    0.0000 </r>
       <r>   10.6138    0.0000 </r>
       <r>   11.9831    0.0000 </r>
       <r>   12.0594    0.0000 </r>
       <r>   14.7361    0.0000 </r>
       <r>   14.7586    0.0000 </r>
       <r>   18.9749    0.0000 </r>
       <r>   19.4709    0.0000 </r>
      </set>
      <set comment="kpoint 14">
       <r>   -3.6206    1.0000 </r>
       <r>   -0.3372    1.0000 </r>
       <r>    1.5673    1.0000 </r>
       <r>    4.0748    1.0000 </r>
       <r>    7.7286    0.0000 </r>
       <r>   11.1687    0.0000 </r>
       <r>   11.4706    0.0000 </r>
       <r>   12.2980    0.0000 </r>
       <r>   12.5701    0.0000 </r>
       <r>   13.8401    0.0000 </r>
       <r>   18.9330    0.0000 </r>
       <r>   19.5202    0.0000 </r>
      </set>
      <set comment="kpoint 15">
       <r>   -3.1067    1.0000 </r>
       <r>   -0.9017    1.0000 </r>
       <r>    2.9765    1.0000 </r>
       <r>    2.9765    1.0000 </r>
       <r>    6.2231    0.0363 </r>
       <r>    6.7323    0.0000 </r>
       <r>   14.7540    0.0000 </r>
       <r>   14.7540    0.0000 </r>
       <r>   16.9804    0.0000 </r>
       <r>   17.4595    0.0000 </r>
       <r>   17.7560    0.0000 </r>
       <r>   17.7560    0.0000 </r>
      </set>
      <set comment="kpoint 16">
       <r>   -2.1499    1.0000 </r>
       <r>   -1.8644    1.0000 </r>
       <r>    2.0571    1.0000 </r>
       <r>    3.0388    1.0000 </r>
       <r>    6.5222    0.0000 </r>
       <r>    7.8018    0.0000 </r>
       <r>   14.5296    0.0000 </r>
       <r>   14.9671    0.0000 </r>
       <r>   15.1452    0.0000 </r>
       <r>   15.4296    0.0000 </r>
       <r>   19.4590    0.0000 </r>
       <r>   19.4907    0.0000 </r>
      </set>
      <set comment="kpoint 17">
       <r>   -4.4874    1.0000 </r>
       <r>    0.8603    1.0000 </r>
       <r>    2.6112    1.0000 </r>
       <r>    3.9585    1.0000 </r>
       <r>    8.2688    0.0000 </r>
       <r>    9.4988    0.0000 </r>
       <r>    9.8396    0.0000 </r>
       <r>   11.8551    0.0000 </r>
       <r>   13.9483    0.0000 </r>
       <r>   16.6118    0.0000 </r>
       <r>   17.1169    0.0000 </r>
       <r>   18.1449    0.0000 </r>
      </set>
      <set comment="kpoint 18">
       <r>   -3.4384    1.0000 </r>
       <r>   -0.6819    1.0000 </r>
       <r>    2.0378    1.0000 </r>
       <r>    3.4129    1.0000 </r>
       <r>    8.7445    0.0000 </r>
       <r>    9.1678    0.0000 </r>
       <r>   11.1526    0.0000 </r>
       <r>   12.3010    0.0000 </r>
       <r>   14.0172    0.0000 </r>
       <r>   15.6806    0.0000 </r>
       <r>   17.8129    0.0000 </r>
       <r>   19.0862    0.0000 </r>
      </set>
      <set comment="kpoint 19">
       <r>   -2.8986    1.0000 </r>
       <r>   -0.9853    1.0000 </r>
       <r>    2.1246    1.0000 </r>
       <r>    2.5401    1.0000 </r>
       <r>    7.8830    0.0000 </r>
       <r>    8.2405    0.0000 </r>
       <r>   11.8503    0.0000 </r>
       <r>   14.3682    0.0000 </r>
       <r>   14.8421    0.0000 </r>
       <r>   16.7638    0.0000 </r>
       <r>   18.1657    0.0000 </r>
       <r>   19.7066    0.0000 </r>
      </set>
      <set comment="kpoint 20">
       <r>   -2.4556    1.0000 </r>
       <r>   -1.3851    1.0000 </r>
       <r>    1.4721    1.0000 </r>
       <r>    2.6328    1.0000 </r>
       <r>    8.4077    0.0000 </r>
       <r>   10.5083    0.0000 </r>
       <r>   11.3499    0.0000 </r>
       <r>   11.4740    0.0000 </r>
       <r>   14.7799    0.0000 </r>
       <r>   15.9462    0.0000 </r>
       <r>   18.8889    0.0000 </r>
       <r>   20.1650    0.0000 </r>
      </set>
     </set>
     <set comment="spin 2">
      <set comment="kpoint 1">
       <r>   -6.2075    1.0000 </r>
       <r>    5.7632    0.9274 </r>
       <r>    5.7632    0.9274 </r>
       <r>    5.7632    0.9274 </r>
       <r>    8.2779    0.0000 </r>
       <r>    8.2779    0.0000 </r>
       <r>    8.2779    0.0000 </r>
       <r>    9.0535    0.0000 </r>
       <r>   13.4483    0.0000 </r>
       <r>   13.4483    0.0000 </r>
       <r>   13.4599    0.0000 </r>
       <r>   16.8482    0.0000 </r>
      </set>
      <set comment="kpoint 2">
       <r>   -5.9410    1.0000 </r>
       <r>    3.8165    1.0000 </r>
       <r>    5.4026    1.0000 </r>
       <r>    5.4026    1.0000 </r>
       <r>    8.1353    0.0000 </r>
       <r>    8.8022    0.0000 </r>
       <r>    8.8022    0.0000 </r>
       <r>   10.7190    0.0000 </r>
       <r>   12.8644    0.0000 </r>
       <r>   12.8644    0.0000 </r>
       <r>   14.4407    0.0000 </r>
       <r>   16.2031    0.0000 </r>
      </set>
      <set comment="kpoint 3">
       <r>   -5.1723    1.0000 </r>
       <r>    1.1879    1.0000 </r>
       <r>    4.8860    1.0000 </r>
       <r>    4.8860    1.0000 </r>
       <r>    7.5874    0.0000 </r>
       <r>    9.2439    0.0000 </r>
       <r>    9.2439    0.0000 </r>
       <r>   13.1105    0.0000 </r>
       <r>   13.1529    0.0000 </r>
       <r>   13.1529    0.0000 </r>
       <r>   14.4554    0.0000 </r>
       <r>   18.1883    0.0000 </r>
      </set>
      <set comment="kpoint 4">
       <r>   -4.1242    1.0000 </r>
       <r>   -0.8534    1.0000 </r>
       <r>    4.5984    1.0000 </r>
       <r>    4.5984    1.0000 </r>
       <r>    7.2596    0.0000 </r>
       <r>    9.0779    0.0000 </r>
       <r>    9.0779    0.0000 </r>
       <r>   13.3369    0.0000 </r>
       <r>   15.1822    0.0000 </r>
       <r>   15.1822    0.0000 </r>
       <r>   16.1885    0.0000 </r>
       <r>   18.2572    0.0000 </r>
      </set>
      <set comment="kpoint 5">
       <r>   -5.8509    1.0000 </r>
       <r>    4.1270    1.0000 </r>
       <r>    4.7796    1.0000 </r>
       <r>    4.7796    1.0000 </r>
       <r>    7.5689    0.0000 </r>
       <r>    9.6934    0.0000 </r>
       <r>    9.6934    0.0000 </r>
       <r>   10.1175    0.0000 </r>
       <r>   12.1508    0.0000 </r>
       <r>   13.8428    0.0000 </r>
       <r>   14.8630    0.0000 </r>
       <r>   17.4695    0.0000 </r>
      </set>
      <set comment="kpoint 6">
       <r>   -5.2425    1.0000 </r>
       <r>    1.9926    1.0000 </r>
       <r>    4.1914    1.0000 </r>
       <r>    4.2356    1.0000 </r>
       <r>    7.7606    0.0000 </r>
       <r>    9.6199    0.0000 </r>
       <r>   10.2245    0.0000 </r>
       <r>   10.4714    0.0000 </r>
       <r>   13.8657    0.0000 </r>
       <r>   14.2152    0.0000 </r>
       <r>   15.7843    0.0000 </r>
       <r>   17.6662    0.0000 </r>
      </set>
      <set comment="kpoint 7">
       <r>   -4.2285    1.0000 </r>
       <r>   -0.2036    1.0000 </r>
       <r>    3.4977    1.0000 </r>
       <r>    4.0486    1.0000 </r>
       <r>    7.8182    0.0000 </r>
       <r>    9.5236    0.0000 </r>
       <r>   10.2379    0.0000 </r>
       <r>   11.4592    0.0000 </r>
       <r>   15.0531    0.0000 </r>
       <r>   15.9489    0.0000 </r>
       <r>   16.6093    0.0000 </r>
       <r>   17.9415    0.0000 </r>
      </set>
      <set comment="kpoint 8">
       <r>   -3.6629    1.0000 </r>
       <r>   -1.0764    1.0000 </r>
       <r>    3.0797    1.0000 </r>
       <r>    4.2501    1.0000 </r>
       <r>    7.9230    0.0000 </r>
       <r>    9.4196    0.0000 </r>
       <r>    9.8354    0.0000 </r>
       <r>   13.8185    0.0000 </r>
       <r>   14.3491    0.0000 </r>
       <r>   14.7464    0.0000 </r>
       <r>   16.6069    0.0000 </r>
       <r>   18.8594    0.0000 </r>
      </set>
      <set comment="kpoint 9">
       <r>   -4.5992    1.0000 </r>
       <r>    0.4807    1.0000 </r>
       <r>    3.0797    1.0000 </r>
       <r>    4.7688    1.0000 </r>
       <r>    8.3419    0.0000 </r>
       <r>    9.6052    0.0000 </r>
       <r>    9.6174    0.0000 </r>
       <r>   12.3227    0.0000 </r>
       <r>   12.4418    0.0000 </r>
       <r>   15.4384    0.0000 </r>
       <r>   16.8926    0.0000 </r>
       <r>   17.8791    0.0000 </r>
      </set>
      <set comment="kpoint 10">
       <r>   -5.5038    1.0000 </r>
       <r>    2.6155    1.0000 </r>
       <r>    3.7687    1.0000 </r>
       <r>    5.3665    1.0000 </r>
       <r>    8.7679    0.0000 </r>
       <r>    9.0085    0.0000 </r>
       <r>    9.2511    0.0000 </r>
       <r>   11.3118    0.0000 </r>
       <r>   11.8932    0.0000 </r>
       <r>   14.2329    0.0000 </r>
       <r>   15.6538    0.0000 </r>
       <r>   16.8906    0.0000 </r>
      </set>
      <set comment="kpoint 11">
       <r>   -4.7978    1.0000 </r>
       <r>    1.6020    1.0000 </r>
       <r>    3.6097    1.0000 </r>
       <r>    3.6097    1.0000 </r>
       <r>    6.5942    0.0000 </r>
       <r>    8.2594    0.0000 </r>
       <r>   12.1106    0.0000 </r>
       <r>   12.1106    0.0000 </r>
       <r>   14.5035    0.0000 </r>
       <r>   15.0235    0.0000 </r>
       <r>   17.7277    0.0000 </r>
       <r>   19.0287    0.0000 </r>
      </set>
      <set comment="kpoint 12">
       <r>   -3.8921    1.0000 </r>
       <r>    0.0959    1.0000 </r>
       <r>    2.6111    1.0000 </r>
       <r>    3.3499    1.0000 </r>
       <r>    6.8725    0.0000 </r>
       <r>    8.3610    0.0000 </r>
       <r>   12.3262    0.0000 </r>
       <r>   12.4907    0.0000 </r>
       <r>   16.6117    0.0000 </r>
       <r>   16.9662    0.0000 </r>
       <r>   17.3046    0.0000 </r>
       <r>   17.9230    0.0000 </r>
      </set>
      <set comment="kpoint 13">
       <r>   -2.9655    1.0000 </r>
       <r>   -1.0928    1.0000 </r>
       <r>    1.6449    1.0000 </r>
       <r>    3.5209    1.0000 </r>
       <r>    7.1090    0.0000 </r>
       <r>   10.6138    0.0000 </r>
       <r>   11.9831    0.0000 </r>
       <r>   12.0594    0.0000 </r>
       <r>   14.7361    0.0000 </r>
       <r>   14.7586    0.0000 </r>
       <r>   18.9749    0.0000 </r>
       <r>   19.4706    0.0000 </r>
      </set>
      <set comment="kpoint 14">
       <r>   -3.6206    1.0000 </r>
       <r>   -0.3372    1.0000 </r>
       <r>    1.5673    1.0000 </r>
       <r>    4.0749    1.0000 </r>
       <r>    7.7286    0.0000 </r>
       <r>   11.1687    0.0000 </r>
       <r>   11.4706    0.0000 </r>
       <r>   12.2980    0.0000 </r>
       <r>   12.5701    0.0000 </r>
       <r>   13.8401    0.0000 </r>
       <r>   18.9331    0.0000 </r>
       <r>   19.5202    0.0000 </r>
      </set>
      <set comment="kpoint 15">
       <r>   -3.1067    1.0000 </r>
       <r>   -0.9016    1.0000 </r>
       <r>    2.9765    1.0000 </r>
       <r>    2.9765    1.0000 </r>
       <r>    6.2231    0.0363 </r>
       <r>    6.7323    0.0000 </r>
       <r>   14.7540    0.0000 </r>
       <r>   14.7540    0.0000 </r>
       <r>   16.9804    0.0000 </r>
       <r>   17.4595    0.0000 </r>
       <r>   17.7560    0.0000 </r>
       <r>   17.7560    0.0000 </r>
      </set>
      <set comment="kpoint 16">
       <r>   -2.1498    1.0000 </r>
       <r>   -1.8644    1.0000 </r>
       <r>    2.0571    1.0000 </r>
       <r>    3.0388    1.0000 </r>
       <r>    6.5222    0.0000 </r>
       <r>    7.8018    0.0000 </r>
       <r>   14.5296    0.0000 </r>
       <r>   14.9671    0.0000 </r>
       <r>   15.1452    0.0000 </r>
       <r>   15.4296    0.0000 </r>
       <r>   19.4631    0.0000 </r>
       <r>   19.4739    0.0000 </r>
      </set>
      <set comment="kpoint 17">
       <r>   -4.4874    1.0000 </r>
       <r>    0.8604    1.0000 </r>
       <r>    2.6113    1.0000 </r>
       <r>    3.9586    1.0000 </r>
       <r>    8.2689    0.0000 </r>
       <r>    9.4988    0.0000 </r>
       <r>    9.8396    0.0000 </r>
       <r>   11.8551    0.0000 </r>
       <r>   13.9483    0.0000 </r>
       <r>   16.6118    0.0000 </r>
       <r>   17.1169    0.0000 </r>
       <r>   18.1450    0.0000 </r>
      </set>
      <set comment="kpoint 18">
       <r>   -3.4384    1.0000 </r>
       <r>   -0.6819    1.0000 </r>
       <r>    2.0378    1.0000 </r>
       <r>    3.4129    1.0000 </r>
       <r>    8.7445    0.0000 </r>
       <r>    9.1678    0.0000 </r>
       <r>   11.1526    0.0000 </r>
       <r>   12.3010    0.0000 </r>
       <r>   14.0172    0.0000 </r>
       <r>   15.6806    0.0000 </r>
       <r>   17.8129    0.0000 </r>
       <r>   19.0862    0.0000 </r>
      </set>
      <set comment="kpoint 19">
       <r>   -2.8986    1.0000 </r>
       <r>   -0.9853    1.0000 </r>
       <r>    2.1246    1.0000 </r>
       <r>    2.5401    1.0000 </r>
       <r>    7.8830    0.0000 </r>
       <r>    8.2405    0.0000 </r>
       <r>   11.8503    0.0000 </r>
       <r>   14.3682    0.0000 </r>
       <r>   14.8421    0.0000 </r>
       <r>   16.7638    0.0000 </r>
       <r>   18.1657    0.0000 </r>
       <r>   19.7066    0.0000 </r>
      </set>
      <set comment="kpoint 20">
       <r>   -2.4556    1.0000 </r>
       <r>   -1.3851    1.0000 </r>
       <r>    1.4721    1.0000 </r>
       <r>    2.6328    1.0000 </r>
       <r>    8.4077    0.0000 </r>
       <r>   10.5083    0.0000 </r>
       <r>   11.3499    0.0000 </r>
       <r>   11.4741    0.0000 </r>
       <r>   14.7799    0.0000 </r>
       <r>   15.9462    0.0000 </r>
       <r>   18.8889    0.0000 </r>
       <r>   20.1651    0.0000 </r>
      </set>
     </set>
    </set>
   </array>
  </eigenvalues>
  <separator name="orbital magnetization" >
   <v name="MAGDIPOLOUT">      0.00000000      0.00000000      0.00000000</v>
  </separator>
  <dos>
   <i name="efermi">      5.96920163 </i>
   <total>
    <array>
     <dimension dim="1">gridpoints</dimension>
     <dimension dim="2">spin</dimension>
     <field>energy</field>
     <field>total</field>
     <field>integrated</field>
     <set>
      <set comment="spin 1">
       <r>    -8.2075     0.0000     0.0000 </r>
       <r>    -8.1063     0.0000     0.0000 </r>
       <r>    -8.0050     0.0000     0.0000 </r>
       <r>    -7.9038     0.0000     0.0000 </r>
       <r>    -7.8026     0.0000     0.0000 </r>
       <r>    -7.7013     0.0000     0.0000 </r>
       <r>    -7.6001     0.0000     0.0000 </r>
       <r>    -7.4988     0.0000     0.0000 </r>
       <r>    -7.3976     0.0000     0.0000 </r>
       <r>    -7.2964     0.0000     0.0000 </r>
       <r>    -7.1951     0.0000     0.0000 </r>
       <r>    -7.0939     0.0000     0.0000 </r>
       <r>    -6.9926     0.0000     0.0000 </r>
       <r>    -6.8914     0.0000     0.0000 </r>
       <r>    -6.7901     0.0000     0.0000 </r>
       <r>    -6.6889     0.0000     0.0000 </r>
       <r>    -6.5877     0.0001     0.0000 </r>
       <r>    -6.4864     0.0006     0.0001 </r>
       <r>    -6.3852     0.0025     0.0003 </r>
       <r>    -6.2839     0.0072     0.0011 </r>
       <r>    -6.1827     0.0177     0.0028 </r>
       <r>    -6.0814     0.0412     0.0070 </r>
       <r>    -5.9802     0.0793     0.0150 </r>
       <r>    -5.8790     0.1084     0.0260 </r>
       <r>    -5.7777     0.1033     0.0365 </r>
       <r>    -5.6765     0.0850     0.0451 </r>
       <r>    -5.5752     0.0941     0.0546 </r>
       <r>    -5.4740     0.1324     0.0680 </r>
       <r>    -5.3728     0.1860     0.0868 </r>
       <r>    -5.2715     0.2476     0.1119 </r>
       <r>    -5.1703     0.2669     0.1389 </r>
       <r>    -5.0690     0.2020     0.1594 </r>
       <r>    -4.9678     0.1130     0.1708 </r>
       <r>    -4.8665     0.0826     0.1792 </r>
       <r>    -4.7653     0.1308     0.1924 </r>
       <r>    -4.6641     0.2388     0.2166 </r>
       <r>    -4.5628     0.3516     0.2522 </r>
       <r>    -4.4616     0.3883     0.2915 </r>
       <r>    -4.3603     0.3483     0.3268 </r>
       <r>    -4.2591     0.3130     0.3585 </r>
       <r>    -4.1578     0.2984     0.3887 </r>
       <r>    -4.0566     0.2723     0.4162 </r>
       <r>    -3.9554     0.2620     0.4427 </r>
       <r>    -3.8541     0.2922     0.4723 </r>
       <r>    -3.7529     0.3477     0.5075 </r>
       <r>    -3.6516     0.4241     0.5505 </r>
       <r>    -3.5504     0.5027     0.6014 </r>
       <r>    -3.4492     0.5296     0.6550 </r>
       <r>    -3.3479     0.4474     0.7003 </r>
       <r>    -3.2467     0.2940     0.7300 </r>
       <r>    -3.1454     0.2141     0.7517 </r>
       <r>    -3.0442     0.2775     0.7798 </r>
       <r>    -2.9429     0.3845     0.8187 </r>
       <r>    -2.8417     0.3814     0.8573 </r>
       <r>    -2.7405     0.2572     0.8834 </r>
       <r>    -2.6392     0.1520     0.8988 </r>
       <r>    -2.5380     0.1533     0.9143 </r>
       <r>    -2.4367     0.1991     0.9344 </r>
       <r>    -2.3355     0.1981     0.9545 </r>
       <r>    -2.2343     0.1600     0.9707 </r>
       <r>    -2.1330     0.1352     0.9844 </r>
       <r>    -2.0318     0.1245     0.9970 </r>
       <r>    -1.9305     0.1195     1.0091 </r>
       <r>    -1.8293     0.1135     1.0206 </r>
       <r>    -1.7280     0.0893     1.0296 </r>
       <r>    -1.6268     0.0673     1.0364 </r>
       <r>    -1.5256     0.0950     1.0460 </r>
       <r>    -1.4243     0.1726     1.0635 </r>
       <r>    -1.3231     0.2509     1.0889 </r>
       <r>    -1.2218     0.3384     1.1232 </r>
       <r>    -1.1206     0.4871     1.1725 </r>
       <r>    -1.0193     0.6205     1.2353 </r>
       <r>    -0.9181     0.6191     1.2980 </r>
       <r>    -0.8169     0.5446     1.3531 </r>
       <r>    -0.7156     0.5075     1.4045 </r>
       <r>    -0.6144     0.4548     1.4506 </r>
       <r>    -0.5131     0.3285     1.4838 </r>
       <r>    -0.4119     0.2296     1.5071 </r>
       <r>    -0.3107     0.2362     1.5310 </r>
       <r>    -0.2094     0.2775     1.5591 </r>
       <r>    -0.1082     0.2707     1.5865 </r>
       <r>    -0.0069     0.2410     1.6109 </r>
       <r>     0.0943     0.2307     1.6342 </r>
       <r>     0.1956     0.2062     1.6551 </r>
       <r>     0.2968     0.1658     1.6719 </r>
       <r>     0.3980     0.1692     1.6890 </r>
       <r>     0.4993     0.2017     1.7094 </r>
       <r>     0.6005     0.1928     1.7289 </r>
       <r>     0.7018     0.1642     1.7456 </r>
       <r>     0.8030     0.1798     1.7638 </r>
       <r>     0.9043     0.2044     1.7845 </r>
       <r>     1.0055     0.1748     1.8022 </r>
       <r>     1.1067     0.1230     1.8146 </r>
       <r>     1.2080     0.1071     1.8255 </r>
       <r>     1.3092     0.1444     1.8401 </r>
       <r>     1.4105     0.2490     1.8653 </r>
       <r>     1.5117     0.3936     1.9051 </r>
       <r>     1.6129     0.4728     1.9530 </r>
       <r>     1.7142     0.4251     1.9960 </r>
       <r>     1.8154     0.3669     2.0332 </r>
       <r>     1.9167     0.4866     2.0825 </r>
       <r>     2.0179     0.7406     2.1574 </r>
       <r>     2.1192     0.8263     2.2411 </r>
       <r>     2.2204     0.6142     2.3033 </r>
       <r>     2.3216     0.3553     2.3392 </r>
       <r>     2.4229     0.3442     2.3741 </r>
       <r>     2.5241     0.6012     2.4350 </r>
       <r>     2.6254     0.8388     2.5199 </r>
       <r>     2.7266     0.7701     2.5978 </r>
       <r>     2.8278     0.5180     2.6503 </r>
       <r>     2.9291     0.4228     2.6931 </r>
       <r>     3.0303     0.5332     2.7471 </r>
       <r>     3.1316     0.6243     2.8103 </r>
       <r>     3.2328     0.6328     2.8744 </r>
       <r>     3.3341     0.7310     2.9484 </r>
       <r>     3.4353     0.9144     3.0409 </r>
       <r>     3.5365     0.9398     3.1361 </r>
       <r>     3.6378     0.7375     3.2107 </r>
       <r>     3.7390     0.5103     3.2624 </r>
       <r>     3.8403     0.4375     3.3067 </r>
       <r>     3.9415     0.5298     3.3603 </r>
       <r>     4.0428     0.7055     3.4318 </r>
       <r>     4.1440     0.8506     3.5179 </r>
       <r>     4.2452     0.8430     3.6032 </r>
       <r>     4.3465     0.6374     3.6678 </r>
       <r>     4.4477     0.3768     3.7059 </r>
       <r>     4.5490     0.2589     3.7321 </r>
       <r>     4.6502     0.3111     3.7636 </r>
       <r>     4.7514     0.4160     3.8057 </r>
       <r>     4.8527     0.4405     3.8503 </r>
       <r>     4.9539     0.3350     3.8842 </r>
       <r>     5.0552     0.1813     3.9026 </r>
       <r>     5.1564     0.0956     3.9123 </r>
       <r>     5.2577     0.1182     3.9242 </r>
       <r>     5.3589     0.1955     3.9440 </r>
       <r>     5.4601     0.2225     3.9666 </r>
       <r>     5.5614     0.1613     3.9829 </r>
       <r>     5.6626     0.0818     3.9912 </r>
       <r>     5.7639     0.0410     3.9953 </r>
       <r>     5.8651     0.0265     3.9980 </r>
       <r>     5.9664     0.0192     3.9999 </r>
       <r>     6.0676     0.0229     4.0023 </r>
       <r>     6.1688     0.0404     4.0064 </r>
       <r>     6.2701     0.0610     4.0125 </r>
       <r>     6.3713     0.0840     4.0210 </r>
       <r>     6.4726     0.1247     4.0337 </r>
       <r>     6.5738     0.1724     4.0511 </r>
       <r>     6.6750     0.2050     4.0719 </r>
       <r>     6.7763     0.2372     4.0959 </r>
       <r>     6.8775     0.2759     4.1238 </r>
       <r>     6.9788     0.2968     4.1539 </r>
       <r>     7.0800     0.2979     4.1840 </r>
       <r>     7.1813     0.2755     4.2119 </r>
       <r>     7.2825     0.2136     4.2335 </r>
       <r>     7.3837     0.1483     4.2486 </r>
       <r>     7.4850     0.1533     4.2641 </r>
       <r>     7.5862     0.2795     4.2924 </r>
       <r>     7.6875     0.5301     4.3460 </r>
       <r>     7.7887     0.8070     4.4277 </r>
       <r>     7.8899     0.9097     4.5198 </r>
       <r>     7.9912     0.7697     4.5978 </r>
       <r>     8.0924     0.6173     4.6603 </r>
       <r>     8.1937     0.7016     4.7313 </r>
       <r>     8.2949     0.9289     4.8253 </r>
       <r>     8.3962     0.9771     4.9243 </r>
       <r>     8.4974     0.7575     5.0009 </r>
       <r>     8.5986     0.5476     5.0564 </r>
       <r>     8.6999     0.5663     5.1137 </r>
       <r>     8.8011     0.6614     5.1807 </r>
       <r>     8.9024     0.6346     5.2449 </r>
       <r>     9.0036     0.5963     5.3053 </r>
       <r>     9.1049     0.6948     5.3756 </r>
       <r>     9.2061     0.8199     5.4587 </r>
       <r>     9.3073     0.8447     5.5442 </r>
       <r>     9.4086     0.8815     5.6334 </r>
       <r>     9.5098     1.0440     5.7391 </r>
       <r>     9.6111     1.1805     5.8586 </r>
       <r>     9.7123     1.1048     5.9705 </r>
       <r>     9.8135     0.8671     6.0583 </r>
       <r>     9.9148     0.6052     6.1195 </r>
       <r>    10.0160     0.4104     6.1611 </r>
       <r>    10.1173     0.3710     6.1987 </r>
       <r>    10.2185     0.4603     6.2453 </r>
       <r>    10.3198     0.5387     6.2998 </r>
       <r>    10.4210     0.5780     6.3583 </r>
       <r>    10.5222     0.6137     6.4204 </r>
       <r>    10.6235     0.5743     6.4786 </r>
       <r>    10.7247     0.4161     6.5207 </r>
       <r>    10.8260     0.2348     6.5445 </r>
       <r>    10.9272     0.1605     6.5607 </r>
       <r>    11.0284     0.2639     6.5874 </r>
       <r>    11.1297     0.4961     6.6377 </r>
       <r>    11.2309     0.7043     6.7090 </r>
       <r>    11.3322     0.8096     6.7909 </r>
       <r>    11.4334     0.8236     6.8743 </r>
       <r>    11.5347     0.7063     6.9458 </r>
       <r>    11.6359     0.5044     6.9969 </r>
       <r>    11.7371     0.4360     7.0410 </r>
       <r>    11.8384     0.5889     7.1007 </r>
       <r>    11.9396     0.7825     7.1799 </r>
       <r>    12.0409     0.8599     7.2669 </r>
       <r>    12.1421     0.9009     7.3582 </r>
       <r>    12.2434     1.0486     7.4643 </r>
       <r>    12.3446     1.2163     7.5875 </r>
       <r>    12.4458     1.1604     7.7049 </r>
       <r>    12.5471     0.8533     7.7913 </r>
       <r>    12.6483     0.4969     7.8416 </r>
       <r>    12.7496     0.2660     7.8686 </r>
       <r>    12.8508     0.1881     7.8876 </r>
       <r>    12.9520     0.1881     7.9066 </r>
       <r>    13.0533     0.2115     7.9281 </r>
       <r>    13.1545     0.2376     7.9521 </r>
       <r>    13.2558     0.2288     7.9753 </r>
       <r>    13.3570     0.1783     7.9933 </r>
       <r>    13.4583     0.1217     8.0056 </r>
       <r>    13.5595     0.1032     8.0161 </r>
       <r>    13.6607     0.1939     8.0357 </r>
       <r>    13.7620     0.4521     8.0815 </r>
       <r>    13.8632     0.7890     8.1614 </r>
       <r>    13.9645     0.9870     8.2613 </r>
       <r>    14.0657     0.9499     8.3575 </r>
       <r>    14.1670     0.8232     8.4408 </r>
       <r>    14.2682     0.7831     8.5201 </r>
       <r>    14.3694     0.8058     8.6017 </r>
       <r>    14.4707     0.7773     8.6804 </r>
       <r>    14.5719     0.7548     8.7568 </r>
       <r>    14.6732     0.9071     8.8486 </r>
       <r>    14.7744     1.1509     8.9651 </r>
       <r>    14.8756     1.1794     9.0845 </r>
       <r>    14.9769     0.9633     9.1821 </r>
       <r>    15.0781     0.7339     9.2564 </r>
       <r>    15.1794     0.5718     9.3143 </r>
       <r>    15.2806     0.4516     9.3600 </r>
       <r>    15.3819     0.4119     9.4017 </r>
       <r>    15.4831     0.4683     9.4491 </r>
       <r>    15.5843     0.5883     9.5086 </r>
       <r>    15.6856     0.7270     9.5822 </r>
       <r>    15.7868     0.7905     9.6623 </r>
       <r>    15.8881     0.7391     9.7371 </r>
       <r>    15.9893     0.6142     9.7993 </r>
       <r>    16.0905     0.4480     9.8446 </r>
       <r>    16.1918     0.2931     9.8743 </r>
       <r>    16.2930     0.2024     9.8948 </r>
       <r>    16.3943     0.2299     9.9181 </r>
       <r>    16.4955     0.4526     9.9639 </r>
       <r>    16.5968     0.7910    10.0440 </r>
       <r>    16.6980     0.9815    10.1434 </r>
       <r>    16.7992     0.9465    10.2392 </r>
       <r>    16.9005     0.8505    10.3253 </r>
       <r>    17.0017     0.7530    10.4015 </r>
       <r>    17.1030     0.6158    10.4639 </r>
       <r>    17.2042     0.4786    10.5123 </r>
       <r>    17.3055     0.3897    10.5518 </r>
       <r>    17.4067     0.3378    10.5860 </r>
       <r>    17.5079     0.3308    10.6195 </r>
       <r>    17.6092     0.4422    10.6642 </r>
       <r>    17.7104     0.7103    10.7362 </r>
       <r>    17.8117     1.0154    10.8390 </r>
       <r>    17.9129     1.1403    10.9544 </r>
       <r>    18.0141     1.0226    11.0579 </r>
       <r>    18.1154     0.8284    11.1418 </r>
       <r>    18.2166     0.6546    11.2081 </r>
       <r>    18.3179     0.4405    11.2527 </r>
       <r>    18.4191     0.2139    11.2743 </r>
       <r>    18.5204     0.0774    11.2822 </r>
       <r>    18.6216     0.0667    11.2889 </r>
       <r>    18.7228     0.1971    11.3089 </r>
       <r>    18.8241     0.4752    11.3570 </r>
       <r>    18.9253     0.7853    11.4365 </r>
       <r>    19.0266     0.9218    11.5298 </r>
       <r>    19.1278     0.7955    11.6103 </r>
       <r>    19.2291     0.5357    11.6646 </r>
       <r>    19.3303     0.3874    11.7038 </r>
       <r>    19.4315     0.4471    11.7491 </r>
       <r>    19.5328     0.5455    11.8043 </r>
       <r>    19.6340     0.5113    11.8561 </r>
       <r>    19.7353     0.3748    11.8940 </r>
       <r>    19.8365     0.2275    11.9170 </r>
       <r>    19.9377     0.1291    11.9301 </r>
       <r>    20.0390     0.1215    11.9424 </r>
       <r>    20.1402     0.1745    11.9601 </r>
       <r>    20.2415     0.1909    11.9794 </r>
       <r>    20.3427     0.1313    11.9927 </r>
       <r>    20.4440     0.0554    11.9983 </r>
       <r>    20.5452     0.0143    11.9997 </r>
       <r>    20.6464     0.0023    12.0000 </r>
       <r>    20.7477     0.0002    12.0000 </r>
       <r>    20.8489     0.0000    12.0000 </r>
       <r>    20.9502     0.0000    12.0000 </r>
       <r>    21.0514     0.0000    12.0000 </r>
       <r>    21.1526     0.0000    12.0000 </r>
       <r>    21.2539     0.0000    12.0000 </r>
       <r>    21.3551     0.0000    12.0000 </r>
       <r>    21.4564     0.0000    12.0000 </r>
       <r>    21.5576     0.0000    12.0000 </r>
       <r>    21.6589     0.0000    12.0000 </r>
       <r>    21.7601     0.0000    12.0000 </r>
       <r>    21.8613     0.0000    12.0000 </r>
       <r>    21.9626     0.0000    12.0000 </r>
       <r>    22.0638     0.0000    12.0000 </r>
       <r>    22.1651     0.0000    12.0000 </r>
      </set>
      <set comment="spin 2">
       <r>    -8.2075     0.0000     0.0000 </r>
       <r>    -8.1063     0.0000     0.0000 </r>
       <r>    -8.0050     0.0000     0.0000 </r>
       <r>    -7.9038     0.0000     0.0000 </r>
       <r>    -7.8026     0.0000     0.0000 </r>
       <r>    -7.7013     0.0000     0.0000 </r>
       <r>    -7.6001     0.0000     0.0000 </r>
       <r>    -7.4988     0.0000     0.0000 </r>
       <r>    -7.3976     0.0000     0.0000 </r>
       <r>    -7.2964     0.0000     0.0000 </r>
       <r>    -7.1951     0.0000     0.0000 </r>
       <r>    -7.0939     0.0000     0.0000 </r>
       <r>    -6.9926     0.0000     0.0000 </r>
       <r>    -6.8914     0.0000     0.0000 </r>
       <r>    -6.7901     0.0000     0.0000 </r>
       <r>    -6.6889     0.0000     0.0000 </r>
       <r>    -6.5877     0.0001     0.0000 </r>
       <r>    -6.4864     0.0006     0.0001 </r>
       <r>    -6.3852     0.0025     0.0003 </r>
       <r>    -6.2839     0.0072     0.0011 </r>
       <r>    -6.1827     0.0177     0.0028 </r>
       <r>    -6.0814     0.0412     0.0070 </r>
       <r>    -5.9802     0.0793     0.0150 </r>
       <r>    -5.8790     0.1084     0.0260 </r>
       <r>    -5.7777     0.1033     0.0365 </r>
       <r>    -5.6765     0.0850     0.0451 </r>
       <r>    -5.5752     0.0941     0.0546 </r>
       <r>    -5.4740     0.1324     0.0680 </r>
       <r>    -5.3728     0.1860     0.0868 </r>
       <r>    -5.2715     0.2476     0.1119 </r>
       <r>    -5.1703     0.2669     0.1389 </r>
       <r>    -5.0690     0.2020     0.1594 </r>
       <r>    -4.9678     0.1130     0.1708 </r>
       <r>    -4.8665     0.0826     0.1792 </r>
       <r>    -4.7653     0.1308     0.1924 </r>
       <r>    -4.6641     0.2388     0.2166 </r>
       <r>    -4.5628     0.3516     0.2522 </r>
       <r>    -4.4616     0.3883     0.2915 </r>
       <r>    -4.3603     0.3483     0.3268 </r>
       <r>    -4.2591     0.3130     0.3584 </r>
       <r>    -4.1578     0.2984     0.3887 </r>
       <r>    -4.0566     0.2723     0.4162 </r>
       <r>    -3.9554     0.2620     0.4427 </r>
       <r>    -3.8541     0.2922     0.4723 </r>
       <r>    -3.7529     0.3477     0.5075 </r>
       <r>    -3.6516     0.4241     0.5505 </r>
       <r>    -3.5504     0.5027     0.6014 </r>
       <r>    -3.4492     0.5296     0.6550 </r>
       <r>    -3.3479     0.4474     0.7003 </r>
       <r>    -3.2467     0.2940     0.7300 </r>
       <r>    -3.1454     0.2141     0.7517 </r>
       <r>    -3.0442     0.2775     0.7798 </r>
       <r>    -2.9429     0.3845     0.8187 </r>
       <r>    -2.8417     0.3814     0.8573 </r>
       <r>    -2.7405     0.2572     0.8834 </r>
       <r>    -2.6392     0.1520     0.8988 </r>
       <r>    -2.5380     0.1532     0.9143 </r>
       <r>    -2.4367     0.1991     0.9344 </r>
       <r>    -2.3355     0.1981     0.9545 </r>
       <r>    -2.2343     0.1600     0.9707 </r>
       <r>    -2.1330     0.1352     0.9844 </r>
       <r>    -2.0318     0.1245     0.9970 </r>
       <r>    -1.9305     0.1195     1.0091 </r>
       <r>    -1.8293     0.1135     1.0206 </r>
       <r>    -1.7280     0.0893     1.0296 </r>
       <r>    -1.6268     0.0673     1.0364 </r>
       <r>    -1.5256     0.0950     1.0460 </r>
       <r>    -1.4243     0.1726     1.0635 </r>
       <r>    -1.3231     0.2509     1.0889 </r>
       <r>    -1.2218     0.3384     1.1232 </r>
       <r>    -1.1206     0.4871     1.1725 </r>
       <r>    -1.0193     0.6204     1.2353 </r>
       <r>    -0.9181     0.6191     1.2980 </r>
       <r>    -0.8169     0.5446     1.3531 </r>
       <r>    -0.7156     0.5075     1.4045 </r>
       <r>    -0.6144     0.4548     1.4505 </r>
       <r>    -0.5131     0.3285     1.4838 </r>
       <r>    -0.4119     0.2296     1.5071 </r>
       <r>    -0.3107     0.2362     1.5310 </r>
       <r>    -0.2094     0.2775     1.5591 </r>
       <r>    -0.1082     0.2707     1.5865 </r>
       <r>    -0.0069     0.2410     1.6109 </r>
       <r>     0.0943     0.2307     1.6342 </r>
       <r>     0.1956     0.2062     1.6551 </r>
       <r>     0.2968     0.1658     1.6719 </r>
       <r>     0.3980     0.1692     1.6890 </r>
       <r>     0.4993     0.2017     1.7094 </r>
       <r>     0.6005     0.1929     1.7289 </r>
       <r>     0.7018     0.1642     1.7456 </r>
       <r>     0.8030     0.1798     1.7638 </r>
       <r>     0.9043     0.2044     1.7845 </r>
       <r>     1.0055     0.1748     1.8022 </r>
       <r>     1.1067     0.1230     1.8146 </r>
       <r>     1.2080     0.1071     1.8255 </r>
       <r>     1.3092     0.1444     1.8401 </r>
       <r>     1.4105     0.2490     1.8653 </r>
       <r>     1.5117     0.3936     1.9051 </r>
       <r>     1.6129     0.4728     1.9530 </r>
       <r>     1.7142     0.4251     1.9960 </r>
       <r>     1.8154     0.3669     2.0332 </r>
       <r>     1.9167     0.4865     2.0825 </r>
       <r>     2.0179     0.7406     2.1574 </r>
       <r>     2.1192     0.8263     2.2411 </r>
       <r>     2.2204     0.6142     2.3033 </r>
       <r>     2.3216     0.3553     2.3392 </r>
       <r>     2.4229     0.3442     2.3741 </r>
       <r>     2.5241     0.6012     2.4349 </r>
       <r>     2.6254     0.8388     2.5199 </r>
       <r>     2.7266     0.7701     2.5978 </r>
       <r>     2.8278     0.5180     2.6503 </r>
       <r>     2.9291     0.4228     2.6931 </r>
       <r>     3.0303     0.5332     2.7471 </r>
       <r>     3.1316     0.6243     2.8103 </r>
       <r>     3.2328     0.6328     2.8744 </r>
       <r>     3.3341     0.7310     2.9484 </r>
       <r>     3.4353     0.9144     3.0409 </r>
       <r>     3.5365     0.9398     3.1361 </r>
       <r>     3.6378     0.7375     3.2107 </r>
       <r>     3.7390     0.5103     3.2624 </r>
       <r>     3.8403     0.4375     3.3067 </r>
       <r>     3.9415     0.5297     3.3603 </r>
       <r>     4.0428     0.7055     3.4318 </r>
       <r>     4.1440     0.8506     3.5179 </r>
       <r>     4.2452     0.8430     3.6032 </r>
       <r>     4.3465     0.6375     3.6678 </r>
       <r>     4.4477     0.3768     3.7059 </r>
       <r>     4.5490     0.2589     3.7321 </r>
       <r>     4.6502     0.3110     3.7636 </r>
       <r>     4.7514     0.4160     3.8057 </r>
       <r>     4.8527     0.4405     3.8503 </r>
       <r>     4.9539     0.3350     3.8842 </r>
       <r>     5.0552     0.1813     3.9026 </r>
       <r>     5.1564     0.0956     3.9123 </r>
       <r>     5.2577     0.1181     3.9242 </r>
       <r>     5.3589     0.1955     3.9440 </r>
       <r>     5.4601     0.2225     3.9666 </r>
       <r>     5.5614     0.1613     3.9829 </r>
       <r>     5.6626     0.0818     3.9912 </r>
       <r>     5.7639     0.0410     3.9953 </r>
       <r>     5.8651     0.0265     3.9980 </r>
       <r>     5.9664     0.0192     3.9999 </r>
       <r>     6.0676     0.0229     4.0023 </r>
       <r>     6.1688     0.0404     4.0064 </r>
       <r>     6.2701     0.0610     4.0125 </r>
       <r>     6.3713     0.0840     4.0210 </r>
       <r>     6.4726     0.1247     4.0337 </r>
       <r>     6.5738     0.1724     4.0511 </r>
       <r>     6.6750     0.2050     4.0719 </r>
       <r>     6.7763     0.2372     4.0959 </r>
       <r>     6.8775     0.2759     4.1238 </r>
       <r>     6.9788     0.2968     4.1539 </r>
       <r>     7.0800     0.2979     4.1840 </r>
       <r>     7.1813     0.2755     4.2119 </r>
       <r>     7.2825     0.2136     4.2335 </r>
       <r>     7.3837     0.1483     4.2486 </r>
       <r>     7.4850     0.1533     4.2641 </r>
       <r>     7.5862     0.2795     4.2924 </r>
       <r>     7.6875     0.5301     4.3460 </r>
       <r>     7.7887     0.8070     4.4277 </r>
       <r>     7.8899     0.9097     4.5198 </r>
       <r>     7.9912     0.7697     4.5978 </r>
       <r>     8.0924     0.6173     4.6603 </r>
       <r>     8.1937     0.7016     4.7313 </r>
       <r>     8.2949     0.9289     4.8253 </r>
       <r>     8.3962     0.9771     4.9243 </r>
       <r>     8.4974     0.7575     5.0009 </r>
       <r>     8.5986     0.5476     5.0564 </r>
       <r>     8.6999     0.5663     5.1137 </r>
       <r>     8.8011     0.6614     5.1807 </r>
       <r>     8.9024     0.6346     5.2449 </r>
       <r>     9.0036     0.5963     5.3053 </r>
       <r>     9.1049     0.6948     5.3756 </r>
       <r>     9.2061     0.8199     5.4586 </r>
       <r>     9.3073     0.8447     5.5442 </r>
       <r>     9.4086     0.8815     5.6334 </r>
       <r>     9.5098     1.0439     5.7391 </r>
       <r>     9.6111     1.1805     5.8586 </r>
       <r>     9.7123     1.1049     5.9705 </r>
       <r>     9.8135     0.8671     6.0583 </r>
       <r>     9.9148     0.6052     6.1195 </r>
       <r>    10.0160     0.4104     6.1611 </r>
       <r>    10.1173     0.3710     6.1987 </r>
       <r>    10.2185     0.4603     6.2453 </r>
       <r>    10.3198     0.5387     6.2998 </r>
       <r>    10.4210     0.5780     6.3583 </r>
       <r>    10.5222     0.6137     6.4204 </r>
       <r>    10.6235     0.5743     6.4786 </r>
       <r>    10.7247     0.4161     6.5207 </r>
       <r>    10.8260     0.2348     6.5445 </r>
       <r>    10.9272     0.1605     6.5607 </r>
       <r>    11.0284     0.2638     6.5874 </r>
       <r>    11.1297     0.4961     6.6377 </r>
       <r>    11.2309     0.7043     6.7090 </r>
       <r>    11.3322     0.8096     6.7909 </r>
       <r>    11.4334     0.8236     6.8743 </r>
       <r>    11.5347     0.7064     6.9458 </r>
       <r>    11.6359     0.5044     6.9969 </r>
       <r>    11.7371     0.4360     7.0410 </r>
       <r>    11.8384     0.5889     7.1007 </r>
       <r>    11.9396     0.7825     7.1799 </r>
       <r>    12.0409     0.8599     7.2669 </r>
       <r>    12.1421     0.9008     7.3581 </r>
       <r>    12.2434     1.0486     7.4643 </r>
       <r>    12.3446     1.2163     7.5874 </r>
       <r>    12.4458     1.1604     7.7049 </r>
       <r>    12.5471     0.8533     7.7913 </r>
       <r>    12.6483     0.4970     7.8416 </r>
       <r>    12.7496     0.2660     7.8686 </r>
       <r>    12.8508     0.1881     7.8876 </r>
       <r>    12.9520     0.1881     7.9066 </r>
       <r>    13.0533     0.2115     7.9281 </r>
       <r>    13.1545     0.2376     7.9521 </r>
       <r>    13.2558     0.2288     7.9753 </r>
       <r>    13.3570     0.1783     7.9933 </r>
       <r>    13.4583     0.1217     8.0056 </r>
       <r>    13.5595     0.1032     8.0161 </r>
       <r>    13.6607     0.1939     8.0357 </r>
       <r>    13.7620     0.4520     8.0815 </r>
       <r>    13.8632     0.7889     8.1614 </r>
       <r>    13.9645     0.9870     8.2613 </r>
       <r>    14.0657     0.9499     8.3574 </r>
       <r>    14.1670     0.8232     8.4408 </r>
       <r>    14.2682     0.7831     8.5201 </r>
       <r>    14.3694     0.8058     8.6017 </r>
       <r>    14.4707     0.7773     8.6803 </r>
       <r>    14.5719     0.7548     8.7568 </r>
       <r>    14.6732     0.9071     8.8486 </r>
       <r>    14.7744     1.1509     8.9651 </r>
       <r>    14.8756     1.1794     9.0845 </r>
       <r>    14.9769     0.9634     9.1821 </r>
       <r>    15.0781     0.7339     9.2564 </r>
       <r>    15.1794     0.5718     9.3142 </r>
       <r>    15.2806     0.4516     9.3600 </r>
       <r>    15.3819     0.4119     9.4017 </r>
       <r>    15.4831     0.4683     9.4491 </r>
       <r>    15.5843     0.5883     9.5086 </r>
       <r>    15.6856     0.7270     9.5822 </r>
       <r>    15.7868     0.7905     9.6623 </r>
       <r>    15.8881     0.7391     9.7371 </r>
       <r>    15.9893     0.6142     9.7993 </r>
       <r>    16.0905     0.4480     9.8446 </r>
       <r>    16.1918     0.2931     9.8743 </r>
       <r>    16.2930     0.2024     9.8948 </r>
       <r>    16.3943     0.2298     9.9181 </r>
       <r>    16.4955     0.4526     9.9639 </r>
       <r>    16.5968     0.7910    10.0440 </r>
       <r>    16.6980     0.9815    10.1434 </r>
       <r>    16.7992     0.9465    10.2392 </r>
       <r>    16.9005     0.8505    10.3253 </r>
       <r>    17.0017     0.7530    10.4015 </r>
[...]
        <r>  0.0000  0.0233  0.0000  0.0246  0.0000  0.0000  0.0000  0.0000  0.0000 </r>
       </set>
      </set>
      <set comment="kpoint 14">
       <set comment="band 1">
        <r>  0.2108  0.0092  0.0047  0.0092  0.0000  0.0000  0.0000  0.0000  0.0000 </r>
        <r>  0.2108  0.0092  0.0047  0.0092  0.0000  0.0000  0.0000  0.0000  0.0000 </r>
       </set>
       <set comment="band 2">
        <r>  0.1646  0.0163  0.0410  0.0163  0.0000  0.0000  0.0000  0.0000  0.0000 </r>
        <r>  0.1646  0.0163  0.0410  0.0163  0.0000  0.0000  0.0000  0.0000  0.0000 </r>
       </set>
       <set comment="band 3">
        <r>  0.0108  0.0386  0.0723  0.0386  0.0000  0.0000  0.0000  0.0000  0.0000 </r>
        <r>  0.0108  0.0386  0.0723  0.0386  0.0000  0.0000  0.0000  0.0000  0.0000 </r>
       </set>
       <set comment="band 4">
        <r>  0.0000  0.1037  0.0000  0.1037  0.0000  0.0000  0.0000  0.0000  0.0000 </r>
        <r>  0.0000  0.1037  0.0000  0.1037  0.0000  0.0000  0.0000  0.0000  0.0000 </r>
       </set>
       <set comment="band 5">
        <r>  0.0583  0.0019  0.0494  0.0019  0.0000  0.0000  0.0000  0.0000  0.0000 </r>
        <r>  0.0583  0.0019  0.0494  0.0019  0.0000  0.0000  0.0000  0.0000  0.0000 </r>
       </set>
       <set comment="band 6">
        <r>  0.0000  0.0748  0.0000  0.0748  0.0000  0.0000  0.0000  0.0000  0.0000 </r>
        <r>  0.0000  0.0748  0.0000  0.0748  0.0000  0.0000  0.0000  0.0000  0.0000 </r>
       </set>
       <set comment="band 7">
        <r>  0.0249  0.0005  0.0921  0.0005  0.0000  0.0000  0.0000  0.0000  0.0000 </r>
        <r>  0.0249  0.0005  0.0921  0.0005  0.0000  0.0000  0.0000  0.0000  0.0000 </r>
       </set>
       <set comment="band 8">
        <r>  0.0730  0.0511  0.0332  0.0511  0.0000  0.0000  0.0000  0.0000  0.0000 </r>
        <r>  0.0730  0.0511  0.0332  0.0511  0.0000  0.0000  0.0000  0.0000  0.0000 </r>
       </set>
       <set comment="band 9">
        <r>  0.0000  0.0056  0.0000  0.0056  0.0000  0.0000  0.0000  0.0000  0.0000 </r>
        <r>  0.0000  0.0056  0.0000  0.0056  0.0000  0.0000  0.0000  0.0000  0.0000 </r>
       </set>
       <set comment="band 10">
        <r>  0.0183  0.0482  0.0429  0.0482  0.0000  0.0000  0.0000  0.0000  0.0000 </r>
        <r>  0.0183  0.0482  0.0429  0.0482  0.0000  0.0000  0.0000  0.0000  0.0000 </r>
       </set>
       <set comment="band 11">
        <r>  0.0241  0.0064  0.0070  0.0064  0.0000  0.0000  0.0000  0.0000  0.0000 </r>
        <r>  0.0241  0.0064  0.0070  0.0064  0.0000  0.0000  0.0000  0.0000  0.0000 </r>
       </set>
       <set comment="band 12">
        <r>  0.0253  0.0067  0.0168  0.0067  0.0000  0.0000  0.0000  0.0000  0.0000 </r>
        <r>  0.0253  0.0067  0.0168  0.0067  0.0000  0.0000  0.0000  0.0000  0.0000 </r>
       </set>
      </set>
      <set comment="kpoint 15">
       <set comment="band 1">
        <r>  0.1980  0.0000  0.0337  0.0000  0.0000  0.0000  0.0000  0.0000  0.0000 </r>
        <r>  0.1980  0.0000  0.0337  0.0000  0.0000  0.0000  0.0000  0.0000  0.0000 </r>
       </set>
       <set comment="band 2">
        <r>  0.1871  0.0000  0.0584  0.0000  0.0000  0.0000  0.0000  0.0000  0.0000 </r>
        <r>  0.1871  0.0000  0.0584  0.0000  0.0000  0.0000  0.0000  0.0000  0.0000 </r>
       </set>
       <set comment="band 3">
        <r>  0.0000  0.0985  0.0000  0.0984  0.0000  0.0000  0.0000  0.0000  0.0000 </r>
        <r>  0.0000  0.0984  0.0000  0.0985  0.0000  0.0000  0.0000  0.0000  0.0000 </r>
       </set>
       <set comment="band 4">
        <r>  0.0000  0.0984  0.0000  0.0985  0.0000  0.0000  0.0000  0.0000  0.0000 </r>
        <r>  0.0000  0.0985  0.0000  0.0984  0.0000  0.0000  0.0000  0.0000  0.0000 </r>
       </set>
       <set comment="band 5">
        <r>  0.0541  0.0000  0.0412  0.0000  0.0000  0.0000  0.0000  0.0000  0.0000 </r>
        <r>  0.0541  0.0000  0.0412  0.0000  0.0000  0.0000  0.0000  0.0000  0.0000 </r>
       </set>
       <set comment="band 6">
        <r>  0.0484  0.0000  0.0300  0.0000  0.0000  0.0000  0.0000  0.0000  0.0000 </r>
        <r>  0.0484  0.0000  0.0300  0.0000  0.0000  0.0000  0.0000  0.0000  0.0000 </r>
       </set>
       <set comment="band 7">
        <r>  0.0000  0.0860  0.0000  0.0858  0.0000  0.0000  0.0000  0.0000  0.0000 </r>
        <r>  0.0000  0.0858  0.0000  0.0860  0.0000  0.0000  0.0000  0.0000  0.0000 </r>
       </set>
       <set comment="band 8">
        <r>  0.0000  0.0858  0.0000  0.0860  0.0000  0.0000  0.0000  0.0000  0.0000 </r>
        <r>  0.0000  0.0860  0.0000  0.0858  0.0000  0.0000  0.0000  0.0000  0.0000 </r>
       </set>
       <set comment="band 9">
        <r>  0.0000  0.0000  0.0000  0.0000  0.0000  0.0000  0.0000  0.0000  0.0000 </r>
        <r>  0.0000  0.0000  0.0000  0.0000  0.0000  0.0000  0.0000  0.0000  0.0000 </r>
       </set>
       <set comment="band 10">
        <r>  0.0961  0.0000  0.1810  0.0000  0.0000  0.0000  0.0000  0.0000  0.0000 </r>
        <r>  0.0961  0.0000  0.1810  0.0000  0.0000  0.0000  0.0000  0.0000  0.0000 </r>
       </set>
       <set comment="band 11">
        <r>  0.0000  0.0574  0.0000  0.0181  0.0000  0.0000  0.0000  0.0000  0.0000 </r>
        <r>  0.0000  0.0505  0.0000  0.0251  0.0000  0.0000  0.0000  0.0000  0.0000 </r>
       </set>
       <set comment="band 12">
        <r>  0.0000  0.0181  0.0000  0.0574  0.0000  0.0000  0.0000  0.0000  0.0000 </r>
        <r>  0.0000  0.0251  0.0000  0.0505  0.0000  0.0000  0.0000  0.0000  0.0000 </r>
       </set>
      </set>
      <set comment="kpoint 16">
       <set comment="band 1">
        <r>  0.2029  0.0013  0.0378  0.0013  0.0000  0.0000  0.0000  0.0000  0.0000 </r>
        <r>  0.2029  0.0013  0.0378  0.0013  0.0000  0.0000  0.0000  0.0000  0.0000 </r>
       </set>
       <set comment="band 2">
        <r>  0.1900  0.0019  0.0449  0.0019  0.0000  0.0000  0.0000  0.0000  0.0000 </r>
        <r>  0.1900  0.0019  0.0449  0.0019  0.0000  0.0000  0.0000  0.0000  0.0000 </r>
       </set>
       <set comment="band 3">
        <r>  0.0025  0.0730  0.0198  0.0730  0.0000  0.0000  0.0000  0.0000  0.0000 </r>
        <r>  0.0025  0.0730  0.0198  0.0730  0.0000  0.0000  0.0000  0.0000  0.0000 </r>
       </set>
       <set comment="band 4">
        <r>  0.0000  0.0989  0.0000  0.0989  0.0000  0.0000  0.0000  0.0000  0.0000 </r>
        <r>  0.0000  0.0989  0.0000  0.0989  0.0000  0.0000  0.0000  0.0000  0.0000 </r>
       </set>
       <set comment="band 5">
        <r>  0.0524  0.0003  0.0351  0.0003  0.0000  0.0000  0.0000  0.0000  0.0000 </r>
        <r>  0.0524  0.0003  0.0351  0.0003  0.0000  0.0000  0.0000  0.0000  0.0000 </r>
       </set>
       <set comment="band 6">
        <r>  0.0379  0.0238  0.0218  0.0238  0.0000  0.0000  0.0000  0.0000  0.0000 </r>
        <r>  0.0379  0.0238  0.0218  0.0238  0.0000  0.0000  0.0000  0.0000  0.0000 </r>
       </set>
       <set comment="band 7">
        <r>  0.0000  0.0887  0.0000  0.0887  0.0000  0.0000  0.0000  0.0000  0.0000 </r>
        <r>  0.0000  0.0887  0.0000  0.0887  0.0000  0.0000  0.0000  0.0000  0.0000 </r>
       </set>
       <set comment="band 8">
        <r>  0.0283  0.0915  0.0265  0.0915  0.0000  0.0000  0.0000  0.0000  0.0000 </r>
        <r>  0.0283  0.0915  0.0265  0.0915  0.0000  0.0000  0.0000  0.0000  0.0000 </r>
       </set>
       <set comment="band 9">
        <r>  0.0231  0.0016  0.0780  0.0016  0.0000  0.0000  0.0000  0.0000  0.0000 </r>
        <r>  0.0231  0.0016  0.0780  0.0016  0.0000  0.0000  0.0000  0.0000  0.0000 </r>
       </set>
       <set comment="band 10">
        <r>  0.0000  0.0065  0.0000  0.0065  0.0000  0.0000  0.0000  0.0000  0.0000 </r>
        <r>  0.0000  0.0065  0.0000  0.0065  0.0000  0.0000  0.0000  0.0000  0.0000 </r>
       </set>
       <set comment="band 11">
        <r>  0.0004  0.0001  0.0025  0.0023  0.0000  0.0000  0.0000  0.0000  0.0000 </r>
        <r>  0.0004  0.0021  0.0024  0.0001  0.0000  0.0000  0.0000  0.0000  0.0000 </r>
       </set>
       <set comment="band 12">
        <r>  0.0287  0.0273  0.1824  0.0205  0.0000  0.0000  0.0000  0.0000  0.0000 </r>
        <r>  0.0285  0.0205  0.1828  0.0273  0.0000  0.0000  0.0000  0.0000  0.0000 </r>
       </set>
      </set>
      <set comment="kpoint 17">
       <set comment="band 1">
        <r>  0.2068  0.0026  0.0140  0.0008  0.0000  0.0000  0.0000  0.0000  0.0000 </r>
        <r>  0.2068  0.0026  0.0140  0.0008  0.0000  0.0000  0.0000  0.0000  0.0000 </r>
       </set>
       <set comment="band 2">
        <r>  0.1556  0.0142  0.0467  0.0277  0.0000  0.0000  0.0000  0.0000  0.0000 </r>
        <r>  0.1556  0.0142  0.0467  0.0277  0.0000  0.0000  0.0000  0.0000  0.0000 </r>
       </set>
       <set comment="band 3">
        <r>  0.0124  0.0505  0.0206  0.0917  0.0000  0.0000  0.0000  0.0000  0.0000 </r>
        <r>  0.0124  0.0505  0.0206  0.0917  0.0000  0.0000  0.0000  0.0000  0.0000 </r>
       </set>
       <set comment="band 4">
        <r>  0.0069  0.1016  0.0598  0.0305  0.0000  0.0000  0.0000  0.0000  0.0000 </r>
        <r>  0.0069  0.1016  0.0598  0.0305  0.0000  0.0000  0.0000  0.0000  0.0000 </r>
       </set>
       <set comment="band 5">
        <r>  0.0292  0.0265  0.0490  0.0293  0.0000  0.0000  0.0000  0.0000  0.0000 </r>
        <r>  0.0292  0.0265  0.0490  0.0293  0.0000  0.0000  0.0000  0.0000  0.0000 </r>
       </set>
       <set comment="band 6">
        <r>  0.0433  0.0196  0.0217  0.0107  0.0000  0.0000  0.0000  0.0000  0.0000 </r>
        <r>  0.0433  0.0196  0.0217  0.0107  0.0000  0.0000  0.0000  0.0000  0.0000 </r>
       </set>
       <set comment="band 7">
        <r>  0.0470  0.0441  0.0105  0.0520  0.0000  0.0000  0.0000  0.0000  0.0000 </r>
        <r>  0.0470  0.0441  0.0105  0.0520  0.0000  0.0000  0.0000  0.0000  0.0000 </r>
       </set>
       <set comment="band 8">
        <r>  0.0065  0.0558  0.0126  0.0825  0.0000  0.0000  0.0000  0.0000  0.0000 </r>
        <r>  0.0065  0.0558  0.0126  0.0825  0.0000  0.0000  0.0000  0.0000  0.0000 </r>
       </set>
       <set comment="band 9">
        <r>  0.0413  0.0074  0.0462  0.0035  0.0000  0.0000  0.0000  0.0000  0.0000 </r>
        <r>  0.0413  0.0074  0.0462  0.0035  0.0000  0.0000  0.0000  0.0000  0.0000 </r>
       </set>
       <set comment="band 10">
        <r>  0.0006  0.0324  0.0757  0.0326  0.0000  0.0000  0.0000  0.0000  0.0000 </r>
        <r>  0.0006  0.0324  0.0757  0.0326  0.0000  0.0000  0.0000  0.0000  0.0000 </r>
       </set>
       <set comment="band 11">
        <r>  0.0530  0.0373  0.0555  0.0230  0.0000  0.0000  0.0000  0.0000  0.0000 </r>
        <r>  0.0530  0.0373  0.0555  0.0230  0.0000  0.0000  0.0000  0.0000  0.0000 </r>
       </set>
       <set comment="band 12">
        <r>  0.0121  0.0029  0.0000  0.0006  0.0000  0.0000  0.0000  0.0000  0.0000 </r>
        <r>  0.0121  0.0029  0.0000  0.0006  0.0000  0.0000  0.0000  0.0000  0.0000 </r>
       </set>
      </set>
      <set comment="kpoint 18">
       <set comment="band 1">
        <r>  0.2123  0.0034  0.0160  0.0047  0.0000  0.0000  0.0000  0.0000  0.0000 </r>
        <r>  0.2123  0.0034  0.0160  0.0047  0.0000  0.0000  0.0000  0.0000  0.0000 </r>
       </set>
       <set comment="band 2">
        <r>  0.1518  0.0156  0.0279  0.0323  0.0000  0.0000  0.0000  0.0000  0.0000 </r>
        <r>  0.1518  0.0156  0.0279  0.0323  0.0000  0.0000  0.0000  0.0000  0.0000 </r>
       </set>
       <set comment="band 3">
        <r>  0.0292  0.0384  0.0419  0.0686  0.0000  0.0000  0.0000  0.0000  0.0000 </r>
        <r>  0.0292  0.0384  0.0419  0.0686  0.0000  0.0000  0.0000  0.0000  0.0000 </r>
       </set>
       <set comment="band 4">
        <r>  0.0023  0.0966  0.0541  0.0346  0.0000  0.0000  0.0000  0.0000  0.0000 </r>
        <r>  0.0023  0.0966  0.0541  0.0346  0.0000  0.0000  0.0000  0.0000  0.0000 </r>
       </set>
       <set comment="band 5">
        <r>  0.0330  0.0338  0.0326  0.0176  0.0000  0.0000  0.0000  0.0000  0.0000 </r>
        <r>  0.0330  0.0338  0.0326  0.0176  0.0000  0.0000  0.0000  0.0000  0.0000 </r>
       </set>
       <set comment="band 6">
        <r>  0.0440  0.0390  0.0128  0.0349  0.0000  0.0000  0.0000  0.0000  0.0000 </r>
        <r>  0.0440  0.0390  0.0128  0.0349  0.0000  0.0000  0.0000  0.0000  0.0000 </r>
       </set>
       <set comment="band 7">
        <r>  0.0323  0.0371  0.0212  0.0353  0.0000  0.0000  0.0000  0.0000  0.0000 </r>
        <r>  0.0323  0.0371  0.0212  0.0353  0.0000  0.0000  0.0000  0.0000  0.0000 </r>
       </set>
       <set comment="band 8">
        <r>  0.0176  0.0367  0.0317  0.0539  0.0000  0.0000  0.0000  0.0000  0.0000 </r>
        <r>  0.0176  0.0367  0.0317  0.0539  0.0000  0.0000  0.0000  0.0000  0.0000 </r>
       </set>
       <set comment="band 9">
        <r>  0.0139  0.0404  0.0534  0.0261  0.0000  0.0000  0.0000  0.0000  0.0000 </r>
        <r>  0.0139  0.0404  0.0534  0.0261  0.0000  0.0000  0.0000  0.0000  0.0000 </r>
       </set>
       <set comment="band 10">
        <r>  0.0164  0.0136  0.0430  0.0295  0.0000  0.0000  0.0000  0.0000  0.0000 </r>
        <r>  0.0164  0.0136  0.0430  0.0295  0.0000  0.0000  0.0000  0.0000  0.0000 </r>
       </set>
       <set comment="band 11">
        <r>  0.0207  0.0048  0.0257  0.0065  0.0000  0.0000  0.0000  0.0000  0.0000 </r>
        <r>  0.0207  0.0048  0.0257  0.0065  0.0000  0.0000  0.0000  0.0000  0.0000 </r>
       </set>
       <set comment="band 12">
        <r>  0.0188  0.0207  0.0194  0.0651  0.0000  0.0000  0.0000  0.0000  0.0000 </r>
        <r>  0.0188  0.0207  0.0194  0.0651  0.0000  0.0000  0.0000  0.0000  0.0000 </r>
       </set>
      </set>
      <set comment="kpoint 19">
       <set comment="band 1">
        <r>  0.2031  0.0008  0.0293  0.0032  0.0000  0.0000  0.0000  0.0000  0.0000 </r>
        <r>  0.2031  0.0008  0.0293  0.0032  0.0000  0.0000  0.0000  0.0000  0.0000 </r>
       </set>
       <set comment="band 2">
        <r>  0.1926  0.0007  0.0435  0.0118  0.0000  0.0000  0.0000  0.0000  0.0000 </r>
        <r>  0.1926  0.0007  0.0435  0.0118  0.0000  0.0000  0.0000  0.0000  0.0000 </r>
       </set>
       <set comment="band 3">
        <r>  0.0069  0.0665  0.0179  0.0789  0.0000  0.0000  0.0000  0.0000  0.0000 </r>
        <r>  0.0069  0.0665  0.0179  0.0789  0.0000  0.0000  0.0000  0.0000  0.0000 </r>
       </set>
       <set comment="band 4">
        <r>  0.0000  0.0847  0.0269  0.0615  0.0000  0.0000  0.0000  0.0000  0.0000 </r>
        <r>  0.0000  0.0847  0.0269  0.0615  0.0000  0.0000  0.0000  0.0000  0.0000 </r>
       </set>
       <set comment="band 5">
        <r>  0.0366  0.0306  0.0285  0.0214  0.0000  0.0000  0.0000  0.0000  0.0000 </r>
        <r>  0.0366  0.0306  0.0285  0.0214  0.0000  0.0000  0.0000  0.0000  0.0000 </r>
       </set>
       <set comment="band 6">
        <r>  0.0362  0.0304  0.0186  0.0136  0.0000  0.0000  0.0000  0.0000  0.0000 </r>
        <r>  0.0362  0.0304  0.0186  0.0136  0.0000  0.0000  0.0000  0.0000  0.0000 </r>
       </set>
       <set comment="band 7">
        <r>  0.0323  0.0534  0.0256  0.0349  0.0000  0.0000  0.0000  0.0000  0.0000 </r>
        <r>  0.0323  0.0534  0.0256  0.0349  0.0000  0.0000  0.0000  0.0000  0.0000 </r>
       </set>
       <set comment="band 8">
        <r>  0.0168  0.0747  0.0258  0.0564  0.0000  0.0000  0.0000  0.0000  0.0000 </r>
        <r>  0.0168  0.0747  0.0258  0.0564  0.0000  0.0000  0.0000  0.0000  0.0000 </r>
       </set>
       <set comment="band 9">
        <r>  0.0001  0.0175  0.0302  0.0558  0.0000  0.0000  0.0000  0.0000  0.0000 </r>
        <r>  0.0001  0.0175  0.0302  0.0558  0.0000  0.0000  0.0000  0.0000  0.0000 </r>
       </set>
       <set comment="band 10">
        <r>  0.0287  0.0117  0.0787  0.0014  0.0000  0.0000  0.0000  0.0000  0.0000 </r>
        <r>  0.0287  0.0117  0.0787  0.0014  0.0000  0.0000  0.0000  0.0000  0.0000 </r>
       </set>
       <set comment="band 11">
        <r>  0.0073  0.0240  0.0012  0.0836  0.0000  0.0000  0.0000  0.0000  0.0000 </r>
        <r>  0.0073  0.0240  0.0012  0.0836  0.0000  0.0000  0.0000  0.0000  0.0000 </r>
       </set>
       <set comment="band 12">
        <r>  0.0051  0.0013  0.1118  0.0087  0.0000  0.0000  0.0000  0.0000  0.0000 </r>
        <r>  0.0051  0.0013  0.1118  0.0087  0.0000  0.0000  0.0000  0.0000  0.0000 </r>
       </set>
      </set>
      <set comment="kpoint 20">
       <set comment="band 1">
        <r>  0.2122  0.0016  0.0172  0.0147  0.0000  0.0000  0.0000  0.0000  0.0000 </r>
        <r>  0.2122  0.0016  0.0172  0.0147  0.0000  0.0000  0.0000  0.0000  0.0000 </r>
       </set>
       <set comment="band 2">
        <r>  0.1907  0.0023  0.0356  0.0152  0.0000  0.0000  0.0000  0.0000  0.0000 </r>
        <r>  0.1907  0.0023  0.0356  0.0152  0.0000  0.0000  0.0000  0.0000  0.0000 </r>
       </set>
       <set comment="band 3">
        <r>  0.0008  0.0587  0.0511  0.0440  0.0000  0.0000  0.0000  0.0000  0.0000 </r>
        <r>  0.0008  0.0587  0.0511  0.0440  0.0000  0.0000  0.0000  0.0000  0.0000 </r>
       </set>
       <set comment="band 4">
        <r>  0.0030  0.0799  0.0216  0.0701  0.0000  0.0000  0.0000  0.0000  0.0000 </r>
        <r>  0.0030  0.0799  0.0216  0.0701  0.0000  0.0000  0.0000  0.0000  0.0000 </r>
       </set>
       <set comment="band 5">
        <r>  0.0350  0.0396  0.0242  0.0121  0.0000  0.0000  0.0000  0.0000  0.0000 </r>
        <r>  0.0350  0.0396  0.0242  0.0121  0.0000  0.0000  0.0000  0.0000  0.0000 </r>
       </set>
       <set comment="band 6">
        <r>  0.0029  0.0817  0.0003  0.0050  0.0000  0.0000  0.0000  0.0000  0.0000 </r>
        <r>  0.0029  0.0817  0.0003  0.0050  0.0000  0.0000  0.0000  0.0000  0.0000 </r>
       </set>
       <set comment="band 7">
        <r>  0.0463  0.0063  0.0511  0.0634  0.0000  0.0000  0.0000  0.0000  0.0000 </r>
        <r>  0.0463  0.0063  0.0511  0.0634  0.0000  0.0000  0.0000  0.0000  0.0000 </r>
       </set>
       <set comment="band 8">
        <r>  0.0388  0.0404  0.0309  0.0229  0.0000  0.0000  0.0000  0.0000  0.0000 </r>
        <r>  0.0388  0.0404  0.0309  0.0229  0.0000  0.0000  0.0000  0.0000  0.0000 </r>
       </set>
       <set comment="band 9">
        <r>  0.0067  0.0381  0.0695  0.0330  0.0000  0.0000  0.0000  0.0000  0.0000 </r>
        <r>  0.0067  0.0381  0.0695  0.0330  0.0000  0.0000  0.0000  0.0000  0.0000 </r>
       </set>
       <set comment="band 10">
        <r>  0.0188  0.0174  0.0019  0.0793  0.0000  0.0000  0.0000  0.0000  0.0000 </r>
        <r>  0.0188  0.0174  0.0019  0.0793  0.0000  0.0000  0.0000  0.0000  0.0000 </r>
       </set>
       <set comment="band 11">
        <r>  0.0110  0.0189  0.1053  0.0007  0.0000  0.0000  0.0000  0.0000  0.0000 </r>
        <r>  0.0110  0.0189  0.1053  0.0007  0.0000  0.0000  0.0000  0.0000  0.0000 </r>
       </set>
       <set comment="band 12">
        <r>  0.0073  0.0026  0.0326  0.0858  0.0000  0.0000  0.0000  0.0000  0.0000 </r>
        <r>  0.0073  0.0026  0.0325  0.0860  0.0000  0.0000  0.0000  0.0000  0.0000 </r>
       </set>
      </set>
     </set>
    </set>
   </array>
  </projected>
 </calculation>
 <structure name="finalpos" >
  <crystal>
   <varray name="basis" >
    <v>      -0.00000000       2.71803466       2.71803466 </v>
    <v>       2.71803466      -0.00000000       2.71803466 </v>
    <v>       2.71803466       2.71803466      -0.00000000 </v>
   </varray>
   <i name="volume">     40.16011677 </i>
   <varray name="rec_basis" >
    <v>      -0.18395645       0.18395645       0.18395645 </v>
    <v>       0.18395645      -0.18395645       0.18395645 </v>
    <v>       0.18395645       0.18395645      -0.18395645 </v>
   </varray>
  </crystal>
  <varray name="positions" >
   <v>       0.00000000       0.00000000       0.00000000 </v>
   <v>       0.25000000       0.25000000       0.25000000 </v>
  </varray>
 </structure>
</modeling>
