 vasp.6.1.2 22Jul20 (build Dec 10 2020 10:33:42) complex                        
  
 executed on             LinuxIFC date 2022.08.31  14:59:34
 running on  144 total cores
 distrk:  each k-point on  144 cores,    1 groups
 distr:  one band on NCORE=  36 cores,    4 groups


--------------------------------------------------------------------------------------------------------


 INCAR:
 POTCAR:    PAW_PBE Si 05Jan2001                  
 WARNING: For LVTOT=.TRUE., VASP.5.x writes the TOTAL local potential to the
     file LOCPOT. If you want only the Hartree contributions, use LVHAR=.TRUE.
     instead. 

 -----------------------------------------------------------------------------
|                                                                             |
|           W    W    AA    RRRRR   N    N  II  N    N   GGGG   !!!           |
|           W    W   A  A   R    R  NN   N  II  NN   N  G    G  !!!           |
|           W    W  A    A  R    R  N N  N  II  N N  N  G       !!!           |
|           W WW W  AAAAAA  RRRRR   N  N N  II  N  N N  G  GGG   !            |
|           WW  WW  A    A  R   R   N   NN  II  N   NN  G    G                |
|           W    W  A    A  R    R  N    N  II  N    N   GGGG   !!!           |
|                                                                             |
|     For optimal performance we recommend to set                             |
|       NCORE = 4 - approx SQRT(number of cores).                             |
|     NCORE specifies how many cores store one orbital (NPAR=cpu/NCORE).      |
|     This setting can greatly improve the performance of VASP for DFT.       |
|     The default, NCORE=1 might be grossly inefficient on modern             |
|     multi-core architectures or massively parallel machines. Do your        |
|     own testing!!!!                                                         |
|     Unfortunately you need to use the default for GW and RPA                |
|     calculations (for HF NCORE is supported but not extensively tested      |
|     yet).                                                                   |
|                                                                             |
 -----------------------------------------------------------------------------

 POTCAR:    PAW_PBE Si 05Jan2001                  
   VRHFIN =Si: s2p2                                                                                 
   LEXCH  = PE                                                                                      
   EATOM  =   103.0669 eV,    7.5752 Ry                                                             
                                                                                                    
   TITEL  = PAW_PBE Si 05Jan2001                                                                    
   LULTRA =        F    use ultrasoft PP ?                                                          
   IUNSCR =        1    unscreen: 0-lin 1-nonlin 2-no                                               
   RPACOR =    1.500    partial core radius                                                         
   POMASS =   28.085; ZVAL   =    4.000    mass and valenz                                          
   RCORE  =    1.900    outmost cutoff radius                                                       
   RWIGS  =    2.480; RWIGS  =    1.312    wigner-seitz radius (au A)                               
   ENMAX  =  245.345; ENMIN  =  184.009 eV                                                          
   ICORE  =        2    local potential                                                             
   LCOR   =        T    correct aug charges                                                         
   LPAW   =        T    paw PP                                                                      
   EAUG   =  322.069                                                                                
   DEXC   =    0.000                                                                                
   RMAX   =    1.950    core radius for proj-oper                                                   
   RAUG   =    1.300    factor for augmentation sphere                                              
   RDEP   =    1.993    radius for radial grids                                                     
   RDEPT  =    1.837    core radius for aug-charge                                                  
                                                                                                    
   Atomic configuration                                                                             
    6 entries                                                                                       
     n  l   j            E        occ.                                                              
     1  0  0.50     -1785.8828   2.0000                                                             
     2  0  0.50      -139.4969   2.0000                                                             
     2  1  1.50       -95.5546   6.0000                                                             
     3  0  0.50       -10.8127   2.0000                                                             
     3  1  0.50        -4.0811   2.0000                                                             
     3  2  1.50        -4.0817   0.0000                                                             
   Description                                                                                      
     l       E           TYP  RCUT    TYP  RCUT                                                     
     0    -10.8127223     23  1.900                                                                 
     0     -7.6451159     23  1.900                                                                 
     1     -4.0811372     23  1.900                                                                 
     1      2.4879257     23  1.900                                                                 
     2     -4.0817478      7  1.900                                                                 
  local pseudopotential read in
  partial core-charges read in
  partial kinetic energy density read in
  atomic valenz-charges read in
  non local Contribution for L=           0  read in
    real space projection operators read in
  non local Contribution for L=           0  read in
    real space projection operators read in
  non local Contribution for L=           1  read in
    real space projection operators read in
  non local Contribution for L=           1  read in
    real space projection operators read in
    PAW grid and wavefunctions read in
 
   number of l-projection  operators is LMAX  =           4
   number of lm-projection operators is LMMAX =           8
 
 -----------------------------------------------------------------------------
|                                                                             |
|               ----> ADVICE to this user running VASP <----                  |
|                                                                             |
|     You enforced a specific xc type in the INCAR file but a different       |
|     type was found in the POTCAR file.                                      |
|     I HOPE YOU KNOW WHAT YOU ARE DOING!                                     |
|                                                                             |
 -----------------------------------------------------------------------------

  PAW_PBE Si 05Jan2001                  :
 energy of atom  1       EATOM= -103.0669
 kinetic energy error for atom=    0.0003 (will be added to EATOM!!)
 
 
 POSCAR: Si2
  positions in direct lattice
  No initial velocities read in
 exchange correlation table for  LEXCH =       14
   RHO(1)=    0.500       N(1)  =     2000
   RHO(2)=  100.500       N(2)  =     4000

 VTST: version 3.2, (02/03/18)

 CHAIN: initializing optimizer
 
 OPT: Using VASP Dynamics algorithm
 CHAIN: Read ICHAIN            0
 
 POSCAR: Si2
  positions in direct lattice
  No initial velocities read in
 


--------------------------------------------------------------------------------------------------------


 ion  position               nearest neighbor table
   1  0.000  0.000  0.000-   2 2.36   2 2.36   2 2.36   2 2.36
   2  0.250  0.250  0.250-   1 2.36   1 2.36   1 2.36   1 2.36
 
  LATTYP: Found a face centered cubic cell.
 ALAT       =     5.4600000000
  
  Lattice vectors:
  
 A1 = (   0.0000000000,   2.7300000000,   2.7300000000)
 A2 = (   2.7300000000,   0.0000000000,   2.7300000000)
 A3 = (   2.7300000000,   2.7300000000,   0.0000000000)


Analysis of symmetry for initial positions (statically):
=====================================================================
 Subroutine PRICEL returns:
 Original cell was already a primitive cell.
 

 Routine SETGRP: Setting up the symmetry group for a 
 face centered cubic supercell.


 Subroutine GETGRP returns: Found 48 space group operations
 (whereof 24 operations were pure point group operations)
 out of a pool of 48 trial point group operations.


The static configuration has the point symmetry T_d .
 The point group associated with its full space group is O_h .


Analysis of symmetry for dynamics (positions and initial velocities):
=====================================================================
 Subroutine PRICEL returns:
 Original cell was already a primitive cell.
 

 Routine SETGRP: Setting up the symmetry group for a 
 face centered cubic supercell.


 Subroutine GETGRP returns: Found 48 space group operations
 (whereof 24 operations were pure point group operations)
 out of a pool of 48 trial point group operations.


The dynamic configuration has the point symmetry T_d .
 The point group associated with its full space group is O_h .


Analysis of structural, dynamic, and magnetic symmetry:
=====================================================================
 Subroutine PRICEL returns:
 Original cell was already a primitive cell.
 

 Routine SETGRP: Setting up the symmetry group for a 
 face centered cubic supercell.


 Subroutine GETGRP returns: Found 48 space group operations
 (whereof 24 operations were pure point group operations)
 out of a pool of 48 trial point group operations.


The magnetic configuration has the point symmetry T_d .
 The point group associated with its full space group is O_h .


 Subroutine INISYM returns: Found 48 space group operations
 (whereof 24 operations are pure point group operations),
 and found     1 'primitive' translations


----------------------------------------------------------------------------------------

                                     Primitive cell                                     

  volume of cell :      40.6928

  direct lattice vectors                    reciprocal lattice vectors
     0.000000000  2.730000000  2.730000000    -0.183150183  0.183150183  0.183150183
     2.730000000  0.000000000  2.730000000     0.183150183 -0.183150183  0.183150183
     2.730000000  2.730000000  0.000000000     0.183150183  0.183150183 -0.183150183

  length of vectors
     3.860803025  3.860803025  3.860803025     0.317225423  0.317225423  0.317225423

  position of ions in fractional coordinates (direct lattice)
     0.000000000  0.000000000  0.000000000
     0.250000000  0.250000000  0.250000000

  ion indices of the primitive-cell ions
   primitive index   ion index
                 1           1
                 2           2

----------------------------------------------------------------------------------------

 
 

Automatic generation of k-mesh.
 generate k-points for:   10   10   10
Space group operators:
 irot       det(A)        alpha          n_x          n_y          n_z        tau_x        tau_y        tau_z
    1     1.000000     0.000000     1.000000     0.000000     0.000000     0.000000     0.000000     0.000000
    2     1.000000   120.000000    -0.577350    -0.577350    -0.577350     0.000000     0.000000     0.000000
    3     1.000000   120.000000     0.577350     0.577350     0.577350     0.000000     0.000000     0.000000
    4    -1.000000    90.000000    -0.000000    -0.000000    -1.000000     0.000000     0.000000     0.000000
    5    -1.000000   180.000000     0.000000     0.707107     0.707107     0.000000     0.000000     0.000000
    6    -1.000000    90.000000    -0.000000     1.000000    -0.000000     0.000000     0.000000     0.000000
    7     1.000000   180.000000    -0.000000    -0.000000     1.000000     0.000000     0.000000     0.000000
    8     1.000000   120.000000    -0.577350     0.577350     0.577350     0.000000     0.000000     0.000000
    9     1.000000   120.000000    -0.577350     0.577350    -0.577350     0.000000     0.000000     0.000000
   10    -1.000000    90.000000     0.000000     0.000000     1.000000     0.000000     0.000000     0.000000
   11    -1.000000    90.000000    -1.000000     0.000000    -0.000000     0.000000     0.000000     0.000000
   12    -1.000000   180.000000     0.707107     0.000000     0.707107     0.000000     0.000000     0.000000
   13     1.000000   120.000000     0.577350    -0.577350     0.577350     0.000000     0.000000     0.000000
   14     1.000000   120.000000    -0.577350    -0.577350     0.577350     0.000000     0.000000     0.000000
   15     1.000000   180.000000     1.000000     0.000000     0.000000     0.000000     0.000000     0.000000
   16    -1.000000    90.000000     0.000000    -1.000000     0.000000     0.000000     0.000000     0.000000
   17    -1.000000   180.000000     0.707107     0.707107    -0.000000     0.000000     0.000000     0.000000
   18    -1.000000    90.000000     1.000000     0.000000     0.000000     0.000000     0.000000     0.000000
   19     1.000000   120.000000     0.577350    -0.577350    -0.577350     0.000000     0.000000     0.000000
   20     1.000000   180.000000     0.000000     1.000000     0.000000     0.000000     0.000000     0.000000
   21     1.000000   120.000000     0.577350     0.577350    -0.577350     0.000000     0.000000     0.000000
   22    -1.000000   180.000000    -0.000000    -0.707107     0.707107     0.000000     0.000000     0.000000
   23    -1.000000   180.000000     0.707107    -0.707107     0.000000     0.000000     0.000000     0.000000
   24    -1.000000   180.000000    -0.707107     0.000000     0.707107     0.000000     0.000000     0.000000
   25    -1.000000     0.000000     1.000000     0.000000     0.000000     0.250000     0.250000     0.250000
   26    -1.000000   120.000000    -0.577350    -0.577350    -0.577350     0.250000     0.250000     0.250000
   27    -1.000000   120.000000     0.577350     0.577350     0.577350     0.250000     0.250000     0.250000
   28     1.000000    90.000000    -0.000000    -0.000000    -1.000000     0.250000     0.250000     0.250000
   29     1.000000   180.000000     0.000000     0.707107     0.707107     0.250000     0.250000     0.250000
   30     1.000000    90.000000    -0.000000     1.000000    -0.000000     0.250000     0.250000     0.250000
   31    -1.000000   180.000000    -0.000000    -0.000000     1.000000     0.250000     0.250000     0.250000
   32    -1.000000   120.000000    -0.577350     0.577350     0.577350     0.250000     0.250000     0.250000
   33    -1.000000   120.000000    -0.577350     0.577350    -0.577350     0.250000     0.250000     0.250000
   34     1.000000    90.000000     0.000000     0.000000     1.000000     0.250000     0.250000     0.250000
   35     1.000000    90.000000    -1.000000     0.000000    -0.000000     0.250000     0.250000     0.250000
   36     1.000000   180.000000     0.707107     0.000000     0.707107     0.250000     0.250000     0.250000
   37    -1.000000   120.000000     0.577350    -0.577350     0.577350     0.250000     0.250000     0.250000
   38    -1.000000   120.000000    -0.577350    -0.577350     0.577350     0.250000     0.250000     0.250000
   39    -1.000000   180.000000     1.000000     0.000000     0.000000     0.250000     0.250000     0.250000
   40     1.000000    90.000000     0.000000    -1.000000     0.000000     0.250000     0.250000     0.250000
   41     1.000000   180.000000     0.707107     0.707107    -0.000000     0.250000     0.250000     0.250000
   42     1.000000    90.000000     1.000000     0.000000     0.000000     0.250000     0.250000     0.250000
   43    -1.000000   120.000000     0.577350    -0.577350    -0.577350     0.250000     0.250000     0.250000
   44    -1.000000   180.000000     0.000000     1.000000     0.000000     0.250000     0.250000     0.250000
   45    -1.000000   120.000000     0.577350     0.577350    -0.577350     0.250000     0.250000     0.250000
   46     1.000000   180.000000    -0.000000    -0.707107     0.707107     0.250000     0.250000     0.250000
   47     1.000000   180.000000     0.707107    -0.707107     0.000000     0.250000     0.250000     0.250000
   48     1.000000   180.000000    -0.707107     0.000000     0.707107     0.250000     0.250000     0.250000
 TETIRR: Found    148 inequivalent tetrahedra from     6000
 
 Subroutine IBZKPT returns following result:
 ===========================================
 
 Found     47 irreducible k-points:
 
 Following reciprocal coordinates:
            Coordinates               Weight
  0.000000  0.000000  0.000000      1.000000
  0.100000  0.000000  0.000000      8.000000
  0.200000  0.000000 -0.000000      8.000000
  0.300000  0.000000  0.000000      8.000000
  0.400000  0.000000 -0.000000      8.000000
  0.500000  0.000000  0.000000      4.000000
  0.100000  0.100000  0.000000      6.000000
  0.200000  0.100000  0.000000     24.000000
  0.300000  0.100000 -0.000000     24.000000
  0.400000  0.100000  0.000000     24.000000
  0.500000  0.100000 -0.000000     24.000000
 -0.400000  0.100000 -0.000000     24.000000
 -0.300000  0.100000  0.000000     24.000000
 -0.200000  0.100000 -0.000000     24.000000
 -0.100000  0.100000  0.000000     12.000000
  0.200000  0.200000  0.000000      6.000000
  0.300000  0.200000  0.000000     24.000000
  0.400000  0.200000 -0.000000     24.000000
  0.500000  0.200000  0.000000     24.000000
 -0.400000  0.200000 -0.000000     24.000000
 -0.300000  0.200000 -0.000000     24.000000
 -0.200000  0.200000  0.000000     12.000000
  0.300000  0.300000  0.000000      6.000000
  0.400000  0.300000  0.000000     24.000000
  0.500000  0.300000 -0.000000     24.000000
 -0.400000  0.300000  0.000000     24.000000
 -0.300000  0.300000 -0.000000     12.000000
  0.400000  0.400000  0.000000      6.000000
  0.500000  0.400000  0.000000     24.000000
 -0.400000  0.400000 -0.000000     12.000000
  0.500000  0.500000  0.000000      3.000000
  0.300000  0.200000  0.100000     24.000000
  0.400000  0.200000  0.100000     48.000000
  0.500000  0.200000  0.100000     48.000000
 -0.400000  0.200000  0.100000     24.000000
  0.400000  0.300000  0.100000     24.000000
  0.500000  0.300000  0.100000     48.000000
 -0.400000  0.300000  0.100000     48.000000
 -0.300000  0.300000  0.100000     48.000000
 -0.200000  0.300000  0.100000     24.000000
  0.500000  0.400000  0.100000     24.000000
 -0.400000  0.400000  0.100000     48.000000
 -0.300000  0.400000  0.100000     24.000000
 -0.400000  0.500000  0.100000     12.000000
 -0.400000  0.400000  0.200000     24.000000
 -0.300000  0.400000  0.200000     24.000000
 -0.300000  0.500000  0.200000     12.000000
 
 Following cartesian coordinates:
            Coordinates               Weight
  0.000000  0.000000  0.000000      1.000000
 -0.018315  0.018315  0.018315      8.000000
 -0.036630  0.036630  0.036630      8.000000
 -0.054945  0.054945  0.054945      8.000000
 -0.073260  0.073260  0.073260      8.000000
 -0.091575  0.091575  0.091575      4.000000
  0.000000  0.000000  0.036630      6.000000
 -0.018315  0.018315  0.054945     24.000000
 -0.036630  0.036630  0.073260     24.000000
 -0.054945  0.054945  0.091575     24.000000
 -0.073260  0.073260  0.109890     24.000000
  0.091575 -0.091575 -0.054945     24.000000
  0.073260 -0.073260 -0.036630     24.000000
  0.054945 -0.054945 -0.018315     24.000000
  0.036630 -0.036630 -0.000000     12.000000
  0.000000  0.000000  0.073260      6.000000
 -0.018315  0.018315  0.091575     24.000000
 -0.036630  0.036630  0.109890     24.000000
 -0.054945  0.054945  0.128205     24.000000
  0.109890 -0.109890 -0.036630     24.000000
  0.091575 -0.091575 -0.018315     24.000000
  0.073260 -0.073260 -0.000000     12.000000
  0.000000  0.000000  0.109890      6.000000
 -0.018315  0.018315  0.128205     24.000000
 -0.036630  0.036630  0.146520     24.000000
  0.128205 -0.128205 -0.018315     24.000000
  0.109890 -0.109890  0.000000     12.000000
  0.000000 -0.000000  0.146520      6.000000
 -0.018315  0.018315  0.164835     24.000000
  0.146520 -0.146520  0.000000     12.000000
  0.000000  0.000000  0.183150      3.000000
  0.000000  0.036630  0.073260     24.000000
 -0.018315  0.054945  0.091575     48.000000
 -0.036630  0.073260  0.109890     48.000000
  0.128205 -0.091575 -0.054945     24.000000
 -0.000000  0.036630  0.109890     24.000000
 -0.018315  0.054945  0.128205     48.000000
  0.146520 -0.109890 -0.036630     48.000000
  0.128205 -0.091575 -0.018315     48.000000
  0.109890 -0.073260 -0.000000     24.000000
 -0.000000  0.036630  0.146520     24.000000
  0.164835 -0.128205 -0.018315     48.000000
  0.146520 -0.109890  0.000000     24.000000
  0.183150 -0.146520  0.000000     12.000000
  0.183150 -0.109890 -0.036630     24.000000
  0.164835 -0.091575 -0.018315     24.000000
  0.183150 -0.109890  0.000000     12.000000
 


--------------------------------------------------------------------------------------------------------




 Dimension of arrays:
   k-points           NKPTS =     47   k-points in BZ     NKDIM =     47   number of bands    NBANDS=     12
   number of dos      NEDOS =    301   number of ions     NIONS =      2
   non local maximal  LDIM  =      4   non local SUM 2l+1 LMDIM =      8
   total plane-waves  NPLWV =  46656
   max r-space proj   IRMAX =      1   max aug-charges    IRDMAX=  38530
   dimension x,y,z NGX =    36 NGY =   36 NGZ =   36
   dimension x,y,z NGXF=    72 NGYF=   72 NGZF=   72
   support grid    NGXF=    72 NGYF=   72 NGZF=   72
   ions per type =               2
   NGX,Y,Z   is equivalent  to a cutoff of  15.50, 15.50, 15.50 a.u.
   NGXF,Y,Z  is equivalent  to a cutoff of  31.00, 31.00, 31.00 a.u.

 SYSTEM =  unknown system                          
 POSCAR =  Si2                                     

 Startparameter for this run:
   NWRITE =      2    write-flag & timer
   PREC   = accura    normal or accurate (medium, high low for compatibility)
   ISTART =      0    job   : 0-new  1-cont  2-samecut
   ICHARG =      2    charge: 1-file 2-atom 10-const
   ISPIN  =      2    spin polarized calculation?
   LNONCOLLINEAR =      F non collinear calculations
   LSORBIT =      F    spin-orbit coupling
   INIWAV =      1    electr: 0-lowe 1-rand  2-diag
   LASPH  =      T    aspherical Exc in radial PAW
   METAGGA=      F    non-selfconsistent MetaGGA calc.

 Electronic Relaxation 1
   ENCUT  =  680.0 eV  49.98 Ry    7.07 a.u.   8.21  8.21  8.21*2*pi/ulx,y,z
   ENINI  =  680.0     initial cutoff
   ENAUG  = 1360.0 eV  augmentation charge cutoff
   NELM   =    200;   NELMIN=  2; NELMDL= -5     # of ELM steps 
   EDIFF  = 0.1E-04   stopping-criterion for ELM
   LREAL  =      F    real-space projection
   NLSPLINE    = F    spline interpolate recip. space projectors
   LCOMPAT=      F    compatible to vasp.4.4
   GGA_COMPAT  = T    GGA compatible to vasp.4.4-vasp.4.6
   LMAXPAW     = -100 max onsite density
   LMAXMIX     =    2 max onsite mixed and CHGCAR
   VOSKOWN=      0    Vosko Wilk Nusair interpolation
   ROPT   =    0.00000
 Ionic relaxation
   EDIFFG = 0.1E-03   stopping-criterion for IOM
   NSW    =      0    number of steps for IOM
   NBLOCK =      1;   KBLOCK =      1    inner block; outer block 
   IBRION =     -1    ionic relax: 0-MD 1-quasi-New 2-CG
   NFREE  =      0    steps in history (QN), initial steepest desc. (CG)
   ISIF   =      2    stress and relaxation
   IWAVPR =     10    prediction:  0-non 1-charg 2-wave 3-comb
   ISYM   =      2    0-nonsym 1-usesym 2-fastsym
   LCORR  =      T    Harris-Foulkes like correction to forces

   POTIM  = 0.5000    time-step for ionic-motion
   TEIN   =    0.0    initial temperature
   TEBEG  =    0.0;   TEEND  =   0.0 temperature during run
   SMASS  =  -3.00    Nose mass-parameter (am)
   estimated Nose-frequenzy (Omega)   =  0.10E-29 period in steps = 0.13E+47 mass=  -0.341E-27a.u.
   SCALEE = 1.0000    scale energy and forces
   NPACO  =    256;   APACO  = 16.0  distance and # of slots for P.C.
   PSTRESS=    0.0 pullay stress

  Mass of Ions in am
   POMASS =  28.09
  Ionic Valenz
   ZVAL   =   4.00
  Atomic Wigner-Seitz radii
   RWIGS  =  -1.00
  virtual crystal weights 
   VCA    =   1.00
   NELECT =       8.0000    total number of electrons
   NUPDOWN=      -1.0000    fix difference up-down

 DOS related values:
   EMIN   =  10.00;   EMAX   =-10.00  energy-range for DOS
   EFERMI =   0.00
   ISMEAR =    -5;   SIGMA  =   0.20  broadening in eV -4-tet -1-fermi 0-gaus

 Electronic relaxation 2 (details)
   IALGO  =     68    algorithm
   LDIAG  =      T    sub-space diagonalisation (order eigenvalues)
   LSUBROT=      F    optimize rotation matrix (better conditioning)
   TURBO    =      0    0=normal 1=particle mesh
   IRESTART =      0    0=no restart 2=restart with 2 vectors
   NREBOOT  =      0    no. of reboots
   NMIN     =      0    reboot dimension
   EREF     =   0.00    reference energy to select bands
   IMIX   =      4    mixing-type and parameters
     AMIX     =   0.40;   BMIX     =  1.00
     AMIX_MAG =   1.60;   BMIX_MAG =  1.00
     AMIN     =   0.10
     WC   =   100.;   INIMIX=   1;  MIXPRE=   1;  MAXMIX= -45

 Intra band minimization:
   WEIMIN = 0.0000     energy-eigenvalue tresh-hold
   EBREAK =  0.21E-06  absolut break condition
   DEPER  =   0.30     relativ break condition  

   TIME   =   0.40     timestep for ELM

  volume/ion in A,a.u.               =      20.35       137.30
  Fermi-wavevector in a.u.,A,eV,Ry     =   0.951916  1.798861 12.328851  0.906145
  Thomas-Fermi vector in A             =   2.080431
 
 Write flags
   LWAVE        =      F    write WAVECAR
   LDOWNSAMPLE  =      F    k-point downsampling of WAVECAR
   LCHARG       =      T    write CHGCAR
   LVTOT        =      T    write LOCPOT, total local potential
   LVHAR        =      F    write LOCPOT, Hartree potential only
   LELF         =      F    write electronic localiz. function (ELF)
   LORBIT       =     11    0 simple, 1 ext, 2 COOP (PROOUT), +10 PAW based schemes


 Dipole corrections
   LMONO  =      F    monopole corrections only (constant potential shift)
   LDIPOL =      F    correct potential (dipole corrections)
   IDIPOL =      0    1-x, 2-y, 3-z, 4-all directions 
   EPSILON=  1.0000000 bulk dielectric constant

 Exchange correlation treatment:
   GGA     =    PS    GGA type
   LEXCH   =    14    internal setting for exchange type
   VOSKOWN=      0    Vosko Wilk Nusair interpolation
   LHFCALC =     F    Hartree Fock is set to
   LHFONE  =     F    Hartree Fock one center treatment
   AEXX    =    0.0000 exact exchange contribution

 Linear response parameters
   LEPSILON=     F    determine dielectric tensor
   LRPA    =     F    only Hartree local field effects (RPA)
   LNABLA  =     F    use nabla operator in PAW spheres
   LVEL    =     F    velocity operator in full k-point grid
   LINTERFAST=   F  fast interpolation
   KINTER  =     0    interpolate to denser k-point grid
   CSHIFT  =0.1000    complex shift for real part using Kramers Kronig
   OMEGAMAX=  -1.0    maximum frequency
   DEG_THRESHOLD= 0.2000000E-02 threshold for treating states as degnerate
   RTIME   =   -0.100 relaxation time in fs
  (WPLASMAI=    0.000 imaginary part of plasma frequency in eV, 0.658/RTIME)
   DFIELD  = 0.0000000 0.0000000 0.0000000 field for delta impulse in time
 
 Orbital magnetization related:
   ORBITALMAG=     F  switch on orbital magnetization
   LCHIMAG   =     F  perturbation theory with respect to B field
   DQ        =  0.001000  dq finite difference perturbation B field
   LLRAUG    =     F  two centre corrections for induced B field



--------------------------------------------------------------------------------------------------------


 Static calculation
 charge density and potential will be updated during run
 spin polarized calculation
 RMM-DIIS sequential band-by-band and
  variant of blocked Davidson during initial phase
 perform sub-space diagonalisation
    before iterative eigenvector-optimisation
 modified Broyden-mixing scheme, WC =      100.0
 initial mixing is a Kerker type mixing with AMIX =  0.4000 and BMIX =      1.0000
 Hartree-type preconditioning will be used
 using additional bands            8
 reciprocal scheme for non local part
 use partial core corrections
 calculate Harris-corrections to forces 
   (improved forces if not selfconsistent)
 use gradient corrections 
 use of overlap-Matrix (Vanderbilt PP)
 Fermi weights with tetrahedron method with Bloechl corrections


--------------------------------------------------------------------------------------------------------


  energy-cutoff  :      680.00
  volume of cell :       40.69
      direct lattice vectors                 reciprocal lattice vectors
     0.000000000  2.730000000  2.730000000    -0.183150183  0.183150183  0.183150183
     2.730000000  0.000000000  2.730000000     0.183150183 -0.183150183  0.183150183
     2.730000000  2.730000000  0.000000000     0.183150183  0.183150183 -0.183150183

  length of vectors
     3.860803025  3.860803025  3.860803025     0.317225423  0.317225423  0.317225423


 
 k-points in units of 2pi/SCALE and weight: read from INCAR                         
   0.00000000  0.00000000  0.00000000       0.001
  -0.01831502  0.01831502  0.01831502       0.008
  -0.03663004  0.03663004  0.03663004       0.008
  -0.05494505  0.05494505  0.05494505       0.008
  -0.07326007  0.07326007  0.07326007       0.008
  -0.09157509  0.09157509  0.09157509       0.004
   0.00000000  0.00000000  0.03663004       0.006
  -0.01831502  0.01831502  0.05494505       0.024
  -0.03663004  0.03663004  0.07326007       0.024
  -0.05494505  0.05494505  0.09157509       0.024
  -0.07326007  0.07326007  0.10989011       0.024
   0.09157509 -0.09157509 -0.05494505       0.024
   0.07326007 -0.07326007 -0.03663004       0.024
   0.05494505 -0.05494505 -0.01831502       0.024
   0.03663004 -0.03663004 -0.00000000       0.012
   0.00000000  0.00000000  0.07326007       0.006
  -0.01831502  0.01831502  0.09157509       0.024
  -0.03663004  0.03663004  0.10989011       0.024
  -0.05494505  0.05494505  0.12820513       0.024
   0.10989011 -0.10989011 -0.03663004       0.024
   0.09157509 -0.09157509 -0.01831502       0.024
   0.07326007 -0.07326007 -0.00000000       0.012
   0.00000000  0.00000000  0.10989011       0.006
  -0.01831502  0.01831502  0.12820513       0.024
  -0.03663004  0.03663004  0.14652015       0.024
   0.12820513 -0.12820513 -0.01831502       0.024
   0.10989011 -0.10989011  0.00000000       0.012
  -0.00000000  0.00000000  0.14652015       0.006
  -0.01831502  0.01831502  0.16483516       0.024
   0.14652015 -0.14652015  0.00000000       0.012
   0.00000000  0.00000000  0.18315018       0.003
   0.00000000  0.03663004  0.07326007       0.024
  -0.01831502  0.05494505  0.09157509       0.048
  -0.03663004  0.07326007  0.10989011       0.048
   0.12820513 -0.09157509 -0.05494505       0.024
  -0.00000000  0.03663004  0.10989011       0.024
  -0.01831502  0.05494505  0.12820513       0.048
   0.14652015 -0.10989011 -0.03663004       0.048
   0.12820513 -0.09157509 -0.01831502       0.048
   0.10989011 -0.07326007 -0.00000000       0.024
  -0.00000000  0.03663004  0.14652015       0.024
   0.16483516 -0.12820513 -0.01831502       0.048
   0.14652015 -0.10989011  0.00000000       0.024
   0.18315018 -0.14652015  0.00000000       0.012
   0.18315018 -0.10989011 -0.03663004       0.024
   0.16483516 -0.09157509 -0.01831502       0.024
   0.18315018 -0.10989011  0.00000000       0.012
 
 k-points in reciprocal lattice and weights: read from INCAR                         
   0.00000000  0.00000000  0.00000000       0.001
   0.10000000  0.00000000  0.00000000       0.008
   0.20000000  0.00000000 -0.00000000       0.008
   0.30000000  0.00000000  0.00000000       0.008
   0.40000000  0.00000000 -0.00000000       0.008
   0.50000000  0.00000000  0.00000000       0.004
   0.10000000  0.10000000  0.00000000       0.006
   0.20000000  0.10000000  0.00000000       0.024
   0.30000000  0.10000000 -0.00000000       0.024
   0.40000000  0.10000000  0.00000000       0.024
   0.50000000  0.10000000 -0.00000000       0.024
  -0.40000000  0.10000000 -0.00000000       0.024
  -0.30000000  0.10000000  0.00000000       0.024
  -0.20000000  0.10000000 -0.00000000       0.024
  -0.10000000  0.10000000  0.00000000       0.012
   0.20000000  0.20000000  0.00000000       0.006
   0.30000000  0.20000000  0.00000000       0.024
   0.40000000  0.20000000 -0.00000000       0.024
   0.50000000  0.20000000  0.00000000       0.024
  -0.40000000  0.20000000 -0.00000000       0.024
  -0.30000000  0.20000000 -0.00000000       0.024
  -0.20000000  0.20000000  0.00000000       0.012
   0.30000000  0.30000000  0.00000000       0.006
   0.40000000  0.30000000  0.00000000       0.024
   0.50000000  0.30000000 -0.00000000       0.024
  -0.40000000  0.30000000  0.00000000       0.024
  -0.30000000  0.30000000 -0.00000000       0.012
   0.40000000  0.40000000  0.00000000       0.006
   0.50000000  0.40000000  0.00000000       0.024
  -0.40000000  0.40000000 -0.00000000       0.012
   0.50000000  0.50000000  0.00000000       0.003
   0.30000000  0.20000000  0.10000000       0.024
   0.40000000  0.20000000  0.10000000       0.048
   0.50000000  0.20000000  0.10000000       0.048
  -0.40000000  0.20000000  0.10000000       0.024
   0.40000000  0.30000000  0.10000000       0.024
   0.50000000  0.30000000  0.10000000       0.048
  -0.40000000  0.30000000  0.10000000       0.048
  -0.30000000  0.30000000  0.10000000       0.048
  -0.20000000  0.30000000  0.10000000       0.024
   0.50000000  0.40000000  0.10000000       0.024
  -0.40000000  0.40000000  0.10000000       0.048
  -0.30000000  0.40000000  0.10000000       0.024
  -0.40000000  0.50000000  0.10000000       0.012
  -0.40000000  0.40000000  0.20000000       0.024
  -0.30000000  0.40000000  0.20000000       0.024
  -0.30000000  0.50000000  0.20000000       0.012
 
 position of ions in fractional coordinates (direct lattice) 
   0.00000000  0.00000000  0.00000000
   0.25000000  0.25000000  0.25000000
 
 position of ions in cartesian coordinates  (Angst):
   0.00000000  0.00000000  0.00000000
   1.36500000  1.36500000  1.36500000
 


--------------------------------------------------------------------------------------------------------


 k-point   1 :   0.0000 0.0000 0.0000  plane waves:    1639
 k-point   2 :   0.1000 0.0000 0.0000  plane waves:    1642
 k-point   3 :   0.2000 0.0000-0.0000  plane waves:    1654
 k-point   4 :   0.3000 0.0000 0.0000  plane waves:    1637
 k-point   5 :   0.4000 0.0000-0.0000  plane waves:    1640
 k-point   6 :   0.5000 0.0000 0.0000  plane waves:    1676
 k-point   7 :   0.1000 0.1000 0.0000  plane waves:    1643
 k-point   8 :   0.2000 0.1000 0.0000  plane waves:    1633
 k-point   9 :   0.3000 0.1000-0.0000  plane waves:    1636
 k-point  10 :   0.4000 0.1000 0.0000  plane waves:    1637
 k-point  11 :   0.5000 0.1000-0.0000  plane waves:    1640
 k-point  12 :  -0.4000 0.1000-0.0000  plane waves:    1636
 k-point  13 :  -0.3000 0.1000 0.0000  plane waves:    1634
 k-point  14 :  -0.2000 0.1000-0.0000  plane waves:    1636
 k-point  15 :  -0.1000 0.1000 0.0000  plane waves:    1635
 k-point  16 :   0.2000 0.2000 0.0000  plane waves:    1632
 k-point  17 :   0.3000 0.2000 0.0000  plane waves:    1639
 k-point  18 :   0.4000 0.2000-0.0000  plane waves:    1626
 k-point  19 :   0.5000 0.2000 0.0000  plane waves:    1641
 k-point  20 :  -0.4000 0.2000-0.0000  plane waves:    1631
 k-point  21 :  -0.3000 0.2000-0.0000  plane waves:    1636
 k-point  22 :  -0.2000 0.2000 0.0000  plane waves:    1652
 k-point  23 :   0.3000 0.3000 0.0000  plane waves:    1644
 k-point  24 :   0.4000 0.3000 0.0000  plane waves:    1643
 k-point  25 :   0.5000 0.3000-0.0000  plane waves:    1641
 k-point  26 :  -0.4000 0.3000 0.0000  plane waves:    1636
 k-point  27 :  -0.3000 0.3000-0.0000  plane waves:    1634
 k-point  28 :   0.4000 0.4000 0.0000  plane waves:    1628
 k-point  29 :   0.5000 0.4000 0.0000  plane waves:    1642
 k-point  30 :  -0.4000 0.4000-0.0000  plane waves:    1642
 k-point  31 :   0.5000 0.5000 0.0000  plane waves:    1660
 k-point  32 :   0.3000 0.2000 0.1000  plane waves:    1640
 k-point  33 :   0.4000 0.2000 0.1000  plane waves:    1636
 k-point  34 :   0.5000 0.2000 0.1000  plane waves:    1633
 k-point  35 :  -0.4000 0.2000 0.1000  plane waves:    1636
 k-point  36 :   0.4000 0.3000 0.1000  plane waves:    1649
 k-point  37 :   0.5000 0.3000 0.1000  plane waves:    1640
 k-point  38 :  -0.4000 0.3000 0.1000  plane waves:    1643
 k-point  39 :  -0.3000 0.3000 0.1000  plane waves:    1641
 k-point  40 :  -0.2000 0.3000 0.1000  plane waves:    1633
 k-point  41 :   0.5000 0.4000 0.1000  plane waves:    1644
 k-point  42 :  -0.4000 0.4000 0.1000  plane waves:    1642
 k-point  43 :  -0.3000 0.4000 0.1000  plane waves:    1641
 k-point  44 :  -0.4000 0.5000 0.1000  plane waves:    1644
 k-point  45 :  -0.4000 0.4000 0.2000  plane waves:    1634
 k-point  46 :  -0.3000 0.4000 0.2000  plane waves:    1638
 k-point  47 :  -0.3000 0.5000 0.2000  plane waves:    1632

 maximum and minimum number of plane-waves per node :        53       39

 maximum number of plane-waves:      1676
 maximum index in each direction: 
   IXMAX=    8   IYMAX=    8   IZMAX=    8
   IXMIN=   -8   IYMIN=   -8   IZMIN=   -8


 parallel 3D FFT for wavefunctions:
    minimum data exchange during FFTs selected (reduces bandwidth)
 parallel 3D FFT for charge:
    minimum data exchange during FFTs selected (reduces bandwidth)


 total amount of memory used by VASP MPI-rank0    31126. kBytes
=======================================================================

   base      :      30000. kBytes
   nonl-proj :        145. kBytes
   fftplans  :        237. kBytes
   grid      :        486. kBytes
   one-center:          6. kBytes
   wavefun   :        252. kBytes
 
     INWAV:  cpu time    0.0000: real time    0.0000
 Broyden mixing: mesh for mixing (old mesh)
   NGX = 17   NGY = 17   NGZ = 17
  (NGX  = 72   NGY  = 72   NGZ  = 72)
  gives a total of   4913 points

 initial charge density was supplied:
 charge density of overlapping atoms calculated
 number of electron       8.0000000 magnetization       1.2000000
 keeping initial charge density in first step


--------------------------------------------------------------------------------------------------------


 Maximum index for augmentation-charges         1237 (set IRDMAX)


--------------------------------------------------------------------------------------------------------


 First call to EWALD:  gamma=   0.515
 Maximum number of real-space cells 3x 3x 3
 Maximum number of reciprocal cells 3x 3x 3

    FEWALD:  cpu time    0.0020: real time    0.0020


--------------------------------------- Iteration      1(   1)  ---------------------------------------


    POTLOK:  cpu time    0.0215: real time    0.0319
    SETDIJ:  cpu time    0.1908: real time    0.1910
     EDDAV:  cpu time    0.5792: real time    0.5845
 BZINTS: Fermi energy:    9.576842;    8.000000 electrons
         Band energy: 0.216979E+02;  BLOECHL correction:   -0.153178
       DOS:  cpu time    0.0075: real time    0.0075
    --------------------------------------------
      LOOP:  cpu time    0.7990: real time    0.8149

 eigenvalue-minimisations  :  2256
 total energy-change (2. order) : 0.8739242E+01  (-0.3454446E+03)
 number of electron       8.0000000 magnetization       1.2000000
 augmentation part        8.0000000 magnetization       1.2000000

 Free energy of the ion-electron system (eV)
  ---------------------------------------------------
  alpha Z        PSCENC =         3.30899841
  Ewald energy   TEWEN  =      -227.30768138
  -Hartree energ DENC   =       -11.25054504
  -exchange      EXHF   =         0.00000000
  -V(xc)+E(xc)   XCENC  =       -17.44029463
  PAW double counting   =       174.89845602     -140.31916047
  entropy T*S    EENTRO =         0.00000000
  eigenvalues    EBANDS =        21.69786872
  atomic energy  EATOM  =       205.15160006
  Solvation  Ediel_sol  =         0.00000000
  ---------------------------------------------------
  free energy    TOTEN  =         8.73924169 eV

  energy without entropy =        8.73924169  energy(sigma->0) =        8.73924169


--------------------------------------------------------------------------------------------------------




--------------------------------------- Iteration      1(   2)  ---------------------------------------


     EDDAV:  cpu time    0.5752: real time    0.5765
 BZINTS: Fermi energy:    5.747162;    8.000000 electrons
         Band energy: 0.215743E+01;  BLOECHL correction:   -0.000172
       DOS:  cpu time    0.0057: real time    0.0057
    --------------------------------------------
      LOOP:  cpu time    0.5808: real time    0.5821

 eigenvalue-minimisations  :  2940
 total energy-change (2. order) :-0.1954044E+02  (-0.1880227E+02)
 number of electron       8.0000000 magnetization       1.2000000
 augmentation part        8.0000000 magnetization       1.2000000

 Free energy of the ion-electron system (eV)
  ---------------------------------------------------
  alpha Z        PSCENC =         3.30899841
  Ewald energy   TEWEN  =      -227.30768138
  -Hartree energ DENC   =       -11.25054504
  -exchange      EXHF   =         0.00000000
  -V(xc)+E(xc)   XCENC  =       -17.44029463
  PAW double counting   =       174.89845602     -140.31916047
  entropy T*S    EENTRO =         0.00000000
  eigenvalues    EBANDS =         2.15742937
  atomic energy  EATOM  =       205.15160006
  Solvation  Ediel_sol  =         0.00000000
  ---------------------------------------------------
  free energy    TOTEN  =       -10.80119766 eV

  energy without entropy =      -10.80119766  energy(sigma->0) =      -10.80119766


--------------------------------------------------------------------------------------------------------




--------------------------------------- Iteration      1(   3)  ---------------------------------------


     EDDAV:  cpu time    0.5942: real time    0.5950
 BZINTS: Fermi energy:    5.665329;    8.000000 electrons
         Band energy: 0.144769E+01;  BLOECHL correction:   -0.000000
       DOS:  cpu time    0.0035: real time    0.0035
    --------------------------------------------
      LOOP:  cpu time    0.5977: real time    0.5985

 eigenvalue-minimisations  :  2956
 total energy-change (2. order) :-0.7097386E+00  (-0.7075865E+00)
 number of electron       8.0000000 magnetization       1.2000000
 augmentation part        8.0000000 magnetization       1.2000000

 Free energy of the ion-electron system (eV)
  ---------------------------------------------------
  alpha Z        PSCENC =         3.30899841
  Ewald energy   TEWEN  =      -227.30768138
  -Hartree energ DENC   =       -11.25054504
  -exchange      EXHF   =         0.00000000
  -V(xc)+E(xc)   XCENC  =       -17.44029463
  PAW double counting   =       174.89845602     -140.31916047
  entropy T*S    EENTRO =         0.00000000
  eigenvalues    EBANDS =         1.44769082
  atomic energy  EATOM  =       205.15160006
  Solvation  Ediel_sol  =         0.00000000
  ---------------------------------------------------
  free energy    TOTEN  =       -11.51093621 eV

  energy without entropy =      -11.51093621  energy(sigma->0) =      -11.51093621


--------------------------------------------------------------------------------------------------------




--------------------------------------- Iteration      1(   4)  ---------------------------------------


     EDDAV:  cpu time    0.5694: real time    0.5705
 BZINTS: Fermi energy:    5.664833;    8.000000 electrons
         Band energy: 0.144224E+01;  BLOECHL correction:    0.000000
       DOS:  cpu time    0.0035: real time    0.0035
    --------------------------------------------
      LOOP:  cpu time    0.5730: real time    0.5740

 eigenvalue-minimisations  :  2640
 total energy-change (2. order) :-0.5447808E-02  (-0.5447006E-02)
 number of electron       8.0000000 magnetization       1.2000000
 augmentation part        8.0000000 magnetization       1.2000000

 Free energy of the ion-electron system (eV)
  ---------------------------------------------------
  alpha Z        PSCENC =         3.30899841
  Ewald energy   TEWEN  =      -227.30768138
  -Hartree energ DENC   =       -11.25054504
  -exchange      EXHF   =         0.00000000
  -V(xc)+E(xc)   XCENC  =       -17.44029463
  PAW double counting   =       174.89845602     -140.31916047
  entropy T*S    EENTRO =         0.00000000
  eigenvalues    EBANDS =         1.44224301
  atomic energy  EATOM  =       205.15160006
  Solvation  Ediel_sol  =         0.00000000
  ---------------------------------------------------
  free energy    TOTEN  =       -11.51638402 eV

  energy without entropy =      -11.51638402  energy(sigma->0) =      -11.51638402


--------------------------------------------------------------------------------------------------------




--------------------------------------- Iteration      1(   5)  ---------------------------------------


     EDDAV:  cpu time    0.5983: real time    0.6000
 BZINTS: Fermi energy:    5.665146;    8.000000 electrons
         Band energy: 0.144219E+01;  BLOECHL correction:    0.000000
       DOS:  cpu time    0.0035: real time    0.0035
    CHARGE:  cpu time    0.0201: real time    0.0211
    MIXING:  cpu time    0.0014: real time    0.0021
    --------------------------------------------
      LOOP:  cpu time    0.6233: real time    0.6266

 eigenvalue-minimisations  :  2972
 total energy-change (2. order) :-0.5184407E-04  (-0.5184357E-04)
 number of electron       8.0000000 magnetization      -0.3338989
 augmentation part       -0.4672653 magnetization      -0.3321882

 Broyden mixing:
  rms(total) = 0.53229E+00    rms(broyden)= 0.53229E+00
  rms(prec ) = 0.94919E+00
  weight for this iteration     100.00

 Free energy of the ion-electron system (eV)
  ---------------------------------------------------
  alpha Z        PSCENC =         3.30899841
  Ewald energy   TEWEN  =      -227.30768138
  -Hartree energ DENC   =       -11.25054504
  -exchange      EXHF   =         0.00000000
  -V(xc)+E(xc)   XCENC  =       -17.44029463
  PAW double counting   =       174.89845602     -140.31916047
  entropy T*S    EENTRO =         0.00000000
  eigenvalues    EBANDS =         1.44219116
  atomic energy  EATOM  =       205.15160006
  Solvation  Ediel_sol  =         0.00000000
  ---------------------------------------------------
  free energy    TOTEN  =       -11.51643587 eV

  energy without entropy =      -11.51643587  energy(sigma->0) =      -11.51643587


--------------------------------------------------------------------------------------------------------




--------------------------------------- Iteration      1(   6)  ---------------------------------------


    POTLOK:  cpu time    0.0112: real time    0.0117
    SETDIJ:  cpu time    0.1913: real time    0.1912
    EDDIAG:  cpu time    0.2837: real time    0.2847
  RMM-DIIS:  cpu time    0.1269: real time    0.1280
    ORTHCH:  cpu time    0.0101: real time    0.0101
 BZINTS: Fermi energy:    5.912746;    8.000000 electrons
         Band energy: 0.276998E+01;  BLOECHL correction:   -0.000000
       DOS:  cpu time    0.0035: real time    0.0035
    CHARGE:  cpu time    0.0178: real time    0.0178
    MIXING:  cpu time    0.0008: real time    0.0011
    --------------------------------------------
      LOOP:  cpu time    0.6452: real time    0.6480

 eigenvalue-minimisations  :  2260
 total energy-change (2. order) :-0.2728309E-01  (-0.4652552E-02)
 number of electron       8.0000000 magnetization       0.4385454
 augmentation part       -0.4619259 magnetization       0.4394029

 Broyden mixing:
  rms(total) = 0.30109E+00    rms(broyden)= 0.30109E+00
  rms(prec ) = 0.54448E+00
  weight for this iteration     100.00

 eigenvalues of (default mixing * dielectric matrix)
  average eigenvalue GAMMA=   0.9653
  0.9653

 Free energy of the ion-electron system (eV)
  ---------------------------------------------------
  alpha Z        PSCENC =         3.30899841
  Ewald energy   TEWEN  =      -227.30768138
  -Hartree energ DENC   =       -12.66102051
  -exchange      EXHF   =         0.00000000
  -V(xc)+E(xc)   XCENC  =       -17.28692727
  PAW double counting   =       377.12631887     -342.64499019
  entropy T*S    EENTRO =         0.00000000
  eigenvalues    EBANDS =         2.76998306
  atomic energy  EATOM  =       205.15160006
  Solvation  Ediel_sol  =         0.00000000
  ---------------------------------------------------
  free energy    TOTEN  =       -11.54371896 eV

  energy without entropy =      -11.54371896  energy(sigma->0) =      -11.54371896


--------------------------------------------------------------------------------------------------------




--------------------------------------- Iteration      1(   7)  ---------------------------------------


    POTLOK:  cpu time    0.0109: real time    0.0117
    SETDIJ:  cpu time    0.1913: real time    0.1913
    EDDIAG:  cpu time    0.2806: real time    0.2805
  RMM-DIIS:  cpu time    0.1298: real time    0.1298
    ORTHCH:  cpu time    0.0102: real time    0.0102
 BZINTS: Fermi energy:    5.958440;    8.000000 electrons
         Band energy: 0.428463E+01;  BLOECHL correction:   -0.000000
       DOS:  cpu time    0.0035: real time    0.0035
    CHARGE:  cpu time    0.0167: real time    0.0167
    MIXING:  cpu time    0.0005: real time    0.0005
    --------------------------------------------
      LOOP:  cpu time    0.6435: real time    0.6441

 eigenvalue-minimisations  :  2381
 total energy-change (2. order) : 0.7631047E-01  (-0.5037355E-02)
 number of electron       8.0000000 magnetization       0.0323772
 augmentation part       -0.4574485 magnetization       0.0326017

 Broyden mixing:
  rms(total) = 0.13742E+00    rms(broyden)= 0.13742E+00
  rms(prec ) = 0.17708E+00
  weight for this iteration     100.00

 eigenvalues of (default mixing * dielectric matrix)
  average eigenvalue GAMMA=   1.4425
  0.7335  2.1516

 Free energy of the ion-electron system (eV)
  ---------------------------------------------------
  alpha Z        PSCENC =         3.30899841
  Ewald energy   TEWEN  =      -227.30768138
  -Hartree energ DENC   =       -14.28438858
  -exchange      EXHF   =         0.00000000
  -V(xc)+E(xc)   XCENC  =       -17.01058534
  PAW double counting   =       708.02513120     -673.63511323
  entropy T*S    EENTRO =         0.00000000
  eigenvalues    EBANDS =         4.28463038
  atomic energy  EATOM  =       205.15160006
  Solvation  Ediel_sol  =         0.00000000
  ---------------------------------------------------
  free energy    TOTEN  =       -11.46740848 eV

  energy without entropy =      -11.46740848  energy(sigma->0) =      -11.46740848


--------------------------------------------------------------------------------------------------------




--------------------------------------- Iteration      1(   8)  ---------------------------------------


    POTLOK:  cpu time    0.0110: real time    0.0128
    SETDIJ:  cpu time    0.1910: real time    0.1910
    EDDIAG:  cpu time    0.2773: real time    0.2773
  RMM-DIIS:  cpu time    0.1400: real time    0.1400
    ORTHCH:  cpu time    0.0101: real time    0.0101
 BZINTS: Fermi energy:    6.102634;    8.000000 electrons
         Band energy: 0.472606E+01;  BLOECHL correction:    0.000000
       DOS:  cpu time    0.0036: real time    0.0036
    CHARGE:  cpu time    0.0180: real time    0.0169
    MIXING:  cpu time    0.0003: real time    0.0003
    --------------------------------------------
      LOOP:  cpu time    0.6513: real time    0.6519

 eigenvalue-minimisations  :  2383
 total energy-change (2. order) :-0.2290536E-01  (-0.1048486E-02)
 number of electron       8.0000000 magnetization      -0.0075205
 augmentation part       -0.4565899 magnetization      -0.0071102

 Broyden mixing:
  rms(total) = 0.33468E-01    rms(broyden)= 0.33468E-01
  rms(prec ) = 0.42253E-01
  weight for this iteration     100.00

 eigenvalues of (default mixing * dielectric matrix)
  average eigenvalue GAMMA=   1.2876
  2.4572  0.7864  0.6192

 Free energy of the ion-electron system (eV)
  ---------------------------------------------------
  alpha Z        PSCENC =         3.30899841
  Ewald energy   TEWEN  =      -227.30768138
  -Hartree energ DENC   =       -14.80235851
  -exchange      EXHF   =         0.00000000
  -V(xc)+E(xc)   XCENC  =       -16.92990792
  PAW double counting   =       839.74776077     -805.38478567
  entropy T*S    EENTRO =         0.00000000
  eigenvalues    EBANDS =         4.72606039
  atomic energy  EATOM  =       205.15160006
  Solvation  Ediel_sol  =         0.00000000
  ---------------------------------------------------
  free energy    TOTEN  =       -11.49031384 eV

  energy without entropy =      -11.49031384  energy(sigma->0) =      -11.49031384


--------------------------------------------------------------------------------------------------------




--------------------------------------- Iteration      1(   9)  ---------------------------------------


    POTLOK:  cpu time    0.0117: real time    0.0127
    SETDIJ:  cpu time    0.1916: real time    0.1916
    EDDIAG:  cpu time    0.2794: real time    0.2794
  RMM-DIIS:  cpu time    0.1434: real time    0.1434
    ORTHCH:  cpu time    0.0101: real time    0.0101
 BZINTS: Fermi energy:    6.113731;    8.000000 electrons
         Band energy: 0.471967E+01;  BLOECHL correction:    0.000000
       DOS:  cpu time    0.0034: real time    0.0034
    CHARGE:  cpu time    0.0169: real time    0.0166
    MIXING:  cpu time    0.0004: real time    0.0004
    --------------------------------------------
      LOOP:  cpu time    0.6570: real time    0.6576

 eigenvalue-minimisations  :  2587
 total energy-change (2. order) :-0.2940824E-04  (-0.7647825E-04)
 number of electron       8.0000000 magnetization       0.0002375
 augmentation part       -0.4570296 magnetization       0.0003594

 Broyden mixing:
  rms(total) = 0.10691E-01    rms(broyden)= 0.10691E-01
  rms(prec ) = 0.20939E-01
  weight for this iteration     100.00

 eigenvalues of (default mixing * dielectric matrix)
  average eigenvalue GAMMA=   1.2313
  2.3957  1.0996  0.7780  0.6519

 Free energy of the ion-electron system (eV)
  ---------------------------------------------------
  alpha Z        PSCENC =         3.30899841
  Ewald energy   TEWEN  =      -227.30768138
  -Hartree energ DENC   =       -14.80326641
  -exchange      EXHF   =         0.00000000
  -V(xc)+E(xc)   XCENC  =       -16.92569635
  PAW double counting   =       846.61215361     -812.24611623
  entropy T*S    EENTRO =         0.00000000
  eigenvalues    EBANDS =         4.71966504
  atomic energy  EATOM  =       205.15160006
  Solvation  Ediel_sol  =         0.00000000
  ---------------------------------------------------
  free energy    TOTEN  =       -11.49034325 eV

  energy without entropy =      -11.49034325  energy(sigma->0) =      -11.49034325


--------------------------------------------------------------------------------------------------------




--------------------------------------- Iteration      1(  10)  ---------------------------------------


    POTLOK:  cpu time    0.0116: real time    0.0119
    SETDIJ:  cpu time    0.1917: real time    0.1917
    EDDIAG:  cpu time    0.2716: real time    0.2716
  RMM-DIIS:  cpu time    0.1426: real time    0.1426
    ORTHCH:  cpu time    0.0102: real time    0.0102
 BZINTS: Fermi energy:    6.118026;    8.000000 electrons
         Band energy: 0.468645E+01;  BLOECHL correction:    0.000000
       DOS:  cpu time    0.0035: real time    0.0035
    CHARGE:  cpu time    0.0169: real time    0.0166
    MIXING:  cpu time    0.0004: real time    0.0004
    --------------------------------------------
      LOOP:  cpu time    0.6486: real time    0.6484

 eigenvalue-minimisations  :  2499
 total energy-change (2. order) :-0.1309264E-03  (-0.2262087E-04)
 number of electron       8.0000000 magnetization       0.0006784
 augmentation part       -0.4574821 magnetization       0.0006630

 Broyden mixing:
  rms(total) = 0.53946E-02    rms(broyden)= 0.53946E-02
  rms(prec ) = 0.76229E-02
  weight for this iteration     100.00

 eigenvalues of (default mixing * dielectric matrix)
  average eigenvalue GAMMA=   1.3529
  2.2702  1.8901  1.1810  0.7783  0.6451

 Free energy of the ion-electron system (eV)
  ---------------------------------------------------
  alpha Z        PSCENC =         3.30899841
  Ewald energy   TEWEN  =      -227.30768138
  -Hartree energ DENC   =       -14.78037510
  -exchange      EXHF   =         0.00000000
  -V(xc)+E(xc)   XCENC  =       -16.92271090
  PAW double counting   =       847.35196632     -812.97871872
  entropy T*S    EENTRO =         0.00000000
  eigenvalues    EBANDS =         4.68644714
  atomic energy  EATOM  =       205.15160006
  Solvation  Ediel_sol  =         0.00000000
  ---------------------------------------------------
  free energy    TOTEN  =       -11.49047418 eV

  energy without entropy =      -11.49047418  energy(sigma->0) =      -11.49047418


--------------------------------------------------------------------------------------------------------




--------------------------------------- Iteration      1(  11)  ---------------------------------------


    POTLOK:  cpu time    0.0111: real time    0.0123
    SETDIJ:  cpu time    0.1916: real time    0.1916
    EDDIAG:  cpu time    0.2837: real time    0.2836
  RMM-DIIS:  cpu time    0.1457: real time    0.1457
    ORTHCH:  cpu time    0.0101: real time    0.0101
 BZINTS: Fermi energy:    6.119936;    8.000000 electrons
         Band energy: 0.469592E+01;  BLOECHL correction:    0.000000
       DOS:  cpu time    0.0035: real time    0.0035
    CHARGE:  cpu time    0.0168: real time    0.0164
    MIXING:  cpu time    0.0005: real time    0.0005
    --------------------------------------------
      LOOP:  cpu time    0.6630: real time    0.6637

 eigenvalue-minimisations  :  2527
 total energy-change (2. order) :-0.3570844E-04  (-0.9978885E-05)
 number of electron       8.0000000 magnetization       0.0000536
 augmentation part       -0.4575556 magnetization       0.0001175

 Broyden mixing:
  rms(total) = 0.38402E-02    rms(broyden)= 0.38402E-02
  rms(prec ) = 0.41439E-02
  weight for this iteration     100.00

 eigenvalues of (default mixing * dielectric matrix)
  average eigenvalue GAMMA=   1.4037
  2.4168  2.4168  1.5432  0.7803  0.6326  0.6326

 Free energy of the ion-electron system (eV)
  ---------------------------------------------------
  alpha Z        PSCENC =         3.30899841
  Ewald energy   TEWEN  =      -227.30768138
  -Hartree energ DENC   =       -14.79403404
  -exchange      EXHF   =         0.00000000
  -V(xc)+E(xc)   XCENC  =       -16.91930830
  PAW double counting   =       845.83629369     -811.46229747
  entropy T*S    EENTRO =         0.00000000
  eigenvalues    EBANDS =         4.69591914
  atomic energy  EATOM  =       205.15160006
  Solvation  Ediel_sol  =         0.00000000
  ---------------------------------------------------
  free energy    TOTEN  =       -11.49050989 eV

  energy without entropy =      -11.49050989  energy(sigma->0) =      -11.49050989


--------------------------------------------------------------------------------------------------------




--------------------------------------- Iteration      1(  12)  ---------------------------------------


    POTLOK:  cpu time    0.0120: real time    0.0120
    SETDIJ:  cpu time    0.1914: real time    0.1914
    EDDIAG:  cpu time    0.2791: real time    0.2791
  RMM-DIIS:  cpu time    0.1378: real time    0.1378
    ORTHCH:  cpu time    0.0100: real time    0.0100
 BZINTS: Fermi energy:    6.121479;    8.000000 electrons
         Band energy: 0.469838E+01;  BLOECHL correction:   -0.000000
       DOS:  cpu time    0.0034: real time    0.0034
    --------------------------------------------
      LOOP:  cpu time    0.6337: real time    0.6336

 eigenvalue-minimisations  :  2299
 total energy-change (2. order) :-0.6188505E-05  (-0.1757027E-05)
 number of electron       8.0000000 magnetization       0.0000536
 augmentation part       -0.4575556 magnetization       0.0001175

 Free energy of the ion-electron system (eV)
  ---------------------------------------------------
  alpha Z        PSCENC =         3.30899841
  Ewald energy   TEWEN  =      -227.30768138
  -Hartree energ DENC   =       -14.79696565
  -exchange      EXHF   =         0.00000000
  -V(xc)+E(xc)   XCENC  =       -16.91889780
  PAW double counting   =       843.14385508     -808.76980383
  entropy T*S    EENTRO =         0.00000000
  eigenvalues    EBANDS =         4.69837903
  atomic energy  EATOM  =       205.15160006
  Solvation  Ediel_sol  =         0.00000000
  ---------------------------------------------------
  free energy    TOTEN  =       -11.49051608 eV

  energy without entropy =      -11.49051608  energy(sigma->0) =      -11.49051608


--------------------------------------------------------------------------------------------------------




 average (electrostatic) potential at core
  the test charge radii are     0.9892
  (the norm of the test charge is              1.0000)
       1 -83.2176       2 -83.2176
 
 
 
 E-fermi :   6.1215     XC(G=0):  -9.4922     alpha+bet :-11.7881


 spin component 1

 k-point     1 :       0.0000    0.0000    0.0000
  band No.  band energies     occupation 
      1      -6.2521      1.00000
      2       5.6278      1.00000
      3       5.6278      1.00000
      4       5.6278      1.00000
      5       8.1381      0.00000
      6       8.1381      0.00000
      7       8.1381      0.00000
      8       8.7688      0.00000
      9      13.2724      0.00000
     10      13.3068      0.00000
     11      13.3068      0.00000
     12      16.6693      0.00000

 k-point     2 :       0.1000    0.0000    0.0000
  band No.  band energies     occupation 
      1      -6.1225      1.00000
      2       4.4726      1.00000
      3       5.4299      1.00000
      4       5.4299      1.00000
      5       8.1074      0.00000
      6       8.4284      0.00000
      7       8.4284      0.00000
      8       9.7303      0.00000
      9      12.9374      0.00000
     10      12.9374      0.00000
     11      13.8185      0.00000
     12      16.2282      0.00000

 k-point     3 :       0.2000    0.0000   -0.0000
  band No.  band energies     occupation 
      1      -5.7398      1.00000
      2       2.6169      1.00000
      3       5.0515      1.00000
      4       5.0515      1.00000
      5       7.7294      0.00000
      6       8.9318      0.00000
      7       8.9318      0.00000
      8      11.4879      0.00000
      9      12.6112      0.00000
     10      12.6112      0.00000
     11      14.5032      0.00000
     12      16.3205      0.00000

 k-point     4 :       0.3000    0.0000    0.0000
  band No.  band energies     occupation 
      1      -5.1304      1.00000
      2       0.8439      1.00000
      3       4.7194      1.00000
      4       4.7194      1.00000
      5       7.3606      0.00000
      6       9.0999      0.00000
      7       9.0999      0.00000
      8      13.0535      0.00000
      9      13.1440      0.00000
     10      13.1440      0.00000
     11      14.2759      0.00000
     12      18.2648      0.00000

 k-point     5 :       0.4000    0.0000   -0.0000
  band No.  band energies     occupation 
      1      -4.3905      1.00000
      2      -0.6198      1.00000
      3       4.5092      1.00000
      4       4.5092      1.00000
      5       7.1189      0.00000
      6       8.9827      0.00000
      7       8.9827      0.00000
      8      13.2359      0.00000
      9      14.5206      0.00000
     10      14.5206      0.00000
     11      15.4623      0.00000
     12      18.6786      0.00000

 k-point     6 :       0.5000    0.0000    0.0000
  band No.  band energies     occupation 
      1      -3.9430      1.00000
      2      -1.3119      1.00000
      3       4.4383      1.00000
      4       4.4383      1.00000
      5       7.0362      0.00000
      6       8.9072      0.00000
      7       8.9072      0.00000
      8      13.1198      0.00000
      9      16.0959      0.00000
     10      16.0959      0.00000
     11      16.7137      0.00000
     12      16.8096      0.00000

 k-point     7 :       0.1000    0.1000    0.0000
  band No.  band energies     occupation 
      1      -6.0790      1.00000
      2       4.6721      1.00000
      3       5.0529      1.00000
      4       5.0529      1.00000
      5       7.7470      0.00000
      6       8.9238      0.00000
      7       8.9238      0.00000
      8       9.6187      0.00000
      9      12.2948      0.00000
     10      13.4984      0.00000
     11      14.0035      0.00000
     12      16.9731      0.00000

 k-point     8 :       0.2000    0.1000    0.0000
  band No.  band energies     occupation 
      1      -5.7795      1.00000
      2       3.1692      1.00000
      3       4.6208      1.00000
      4       4.7832      1.00000
      5       7.7987      0.00000
      6       8.9397      0.00000
      7       9.5714      0.00000
      8      10.4870      0.00000
      9      12.2768      0.00000
     10      13.4747      0.00000
     11      14.9202      0.00000
     12      16.5602      0.00000

 k-point     9 :       0.3000    0.1000   -0.0000
  band No.  band energies     occupation 
      1      -5.2413      1.00000
      2       1.4217      1.00000
      3       4.3047      1.00000
      4       4.3490      1.00000
      5       7.9114      0.00000
      6       8.9302      0.00000
      7       9.8490      0.00000
      8      10.8419      0.00000
      9      13.7253      0.00000
     10      13.8508      0.00000
     11      14.9334      0.00000
     12      17.7039      0.00000

 k-point    10 :       0.4000    0.1000    0.0000
  band No.  band energies     occupation 
      1      -4.5242      1.00000
      2      -0.1384      1.00000
      3       3.9393      1.00000
      4       4.1592      1.00000
      5       7.7571      0.00000
      6       8.8941      0.00000
      7       9.6704      0.00000
      8      11.8970      0.00000
      9      14.3669      0.00000
     10      15.0717      0.00000
     11      15.6511      0.00000
     12      18.4244      0.00000

 k-point    11 :       0.5000    0.1000   -0.0000
  band No.  band energies     occupation 
      1      -3.8892      1.00000
      2      -1.1668      1.00000
      3       3.6511      1.00000
      4       4.1926      1.00000
      5       7.6667      0.00000
      6       8.8629      0.00000
      7       9.4045      0.00000
      8      13.2547      0.00000
      9      14.3609      0.00000
     10      16.0302      0.00000
     11      16.8689      0.00000
     12      17.0358      0.00000

 k-point    12 :      -0.4000    0.1000   -0.0000
  band No.  band energies     occupation 
      1      -4.0550      1.00000
      2      -0.9201      1.00000
      3       3.5239      1.00000
      4       4.3915      1.00000
      5       7.7261      0.00000
      6       8.9951      0.00000
      7       9.2499      0.00000
      8      13.4820      0.00000
      9      14.1368      0.00000
     10      14.7538      0.00000
     11      16.5980      0.00000
     12      17.6467      0.00000

 k-point    13 :      -0.3000    0.1000    0.0000
  band No.  band energies     occupation 
      1      -4.7773      1.00000
      2       0.3513      1.00000
      3       3.5838      1.00000
      4       4.7241      1.00000
      5       7.9306      0.00000
      6       9.1803      0.00000
      7       9.2476      0.00000
      8      12.4849      0.00000
      9      12.6159      0.00000
     10      14.7488      0.00000
     11      15.7919      0.00000
     12      18.1870      0.00000

 k-point    14 :      -0.2000    0.1000   -0.0000
  band No.  band energies     occupation 
      1      -5.4467      1.00000
      2       1.9873      1.00000
      3       3.8584      1.00000
      4       5.1277      1.00000
      5       8.2444      0.00000
      6       8.9386      0.00000
      7       9.2608      0.00000
      8      11.4412      0.00000
      9      11.9088      0.00000
     10      14.1277      0.00000
     11      15.1481      0.00000
     12      16.9959      0.00000

 k-point    15 :      -0.1000    0.1000    0.0000
  band No.  band energies     occupation 
      1      -5.9081      1.00000
      2       3.5879      1.00000
      3       4.4673      1.00000
      4       5.4528      1.00000
      5       8.4933      0.00000
      6       8.5106      0.00000
      7       8.6647      0.00000
      8      10.6636      0.00000
      9      12.1716      0.00000
     10      13.1921      0.00000
     11      14.5750      0.00000
     12      16.5061      0.00000

 k-point    16 :       0.2000    0.2000    0.0000
  band No.  band energies     occupation 
      1      -5.5636      1.00000
      2       2.9914      1.00000
      3       4.1477      1.00000
      4       4.1477      1.00000
      5       7.0111      0.00000
      6       9.3970      0.00000
      7      10.4470      0.00000
      8      10.4470      0.00000
      9      12.5453      0.00000
     10      14.0726      0.00000
     11      15.7266      0.00000
     12      17.8554      0.00000

 k-point    17 :       0.3000    0.2000    0.0000
  band No.  band energies     occupation 
      1      -5.1024      1.00000
      2       1.7577      1.00000
      3       3.6356      1.00000
      4       3.8024      1.00000
      5       7.1075      0.00000
      6       8.9736      0.00000
      7      10.6880      0.00000
      8      11.0321      0.00000
      9      14.0258      0.00000
     10      14.5304      0.00000
     11      16.4546      0.00000
     12      17.9459      0.00000

 k-point    18 :       0.4000    0.2000   -0.0000
  band No.  band energies     occupation 
      1      -4.4336      1.00000
      2       0.3344      1.00000
      3       3.0052      1.00000
      4       3.6445      1.00000
      5       7.3157      0.00000
      6       9.6102      0.00000
      7      10.4514      0.00000
      8      10.9849      0.00000
      9      15.6542      0.00000
     10      15.8664      0.00000
     11      16.1443      0.00000
     12      18.2870      0.00000

 k-point    19 :       0.5000    0.2000    0.0000
  band No.  band energies     occupation 
      1      -3.7094      1.00000
      2      -0.8392      1.00000
      3       2.4971      1.00000
      4       3.6887      1.00000
      5       7.3767      0.00000
      6      10.2168      0.00000
      7      10.6571      0.00000
      8      11.1589      0.00000
      9      15.2120      0.00000
     10      16.0096      0.00000
     11      17.4703      0.00000
     12      17.4912      0.00000

 k-point    20 :      -0.4000    0.2000   -0.0000
  band No.  band energies     occupation 
      1      -3.5577      1.00000
      2      -1.0458      1.00000
      3       2.2004      1.00000
      4       3.9257      1.00000
      5       7.5914      0.00000
      6      10.1170      0.00000
      7      10.3555      0.00000
      8      13.0618      0.00000
      9      13.8322      0.00000
     10      13.9728      0.00000
     11      16.9989      0.00000
     12      19.5385      0.00000

 k-point    21 :      -0.3000    0.2000   -0.0000
  band No.  band energies     occupation 
      1      -4.2056      1.00000
      2      -0.0675      1.00000
      3       2.1805      1.00000
      4       4.3207      1.00000
      5       7.9889      0.00000
      6      10.0854      0.00000
      7      10.1266      0.00000
      8      12.1842      0.00000
      9      12.3715      0.00000
     10      15.0104      0.00000
     11      17.3220      0.00000
     12      18.4708      0.00000

 k-point    22 :      -0.2000    0.2000    0.0000
  band No.  band energies     occupation 
      1      -4.9166      1.00000
      2       1.1598      1.00000
      3       2.6321      1.00000
      4       4.7885      1.00000
      5       8.4238      0.00000
      6       9.5522      0.00000
      7       9.8376      0.00000
      8      11.2146      0.00000
      9      11.6758      0.00000
     10      16.1057      0.00000
     11      16.2425      0.00000
     12      17.3298      0.00000

 k-point    23 :       0.3000    0.3000    0.0000
  band No.  band energies     occupation 
      1      -4.7183      1.00000
      2       1.2158      1.00000
      3       3.4126      1.00000
      4       3.4126      1.00000
      5       6.4054      0.00000
      6       7.9416      0.00000
      7      12.1816      0.00000
      8      12.1816      0.00000
      9      14.5317      0.00000
     10      15.0273      0.00000
     11      17.7838      0.00000
     12      18.9322      0.00000

 k-point    24 :       0.4000    0.3000    0.0000
  band No.  band energies     occupation 
      1      -4.1115      1.00000
      2       0.2209      1.00000
      3       2.7830      1.00000
      4       3.2096      1.00000
      5       6.5928     -0.00000
      6       7.7764      0.00000
      7      12.4606      0.00000
      8      12.5984      0.00000
      9      16.0194      0.00000
     10      16.1669      0.00000
     11      17.5622      0.00000
     12      18.2954      0.00000

 k-point    25 :       0.5000    0.3000   -0.0000
  band No.  band energies     occupation 
      1      -3.3685      1.00000
      2      -0.7746      1.00000
      3       1.9530      1.00000
      4       3.2165      1.00000
      5       6.7666      0.00000
      6       8.9120      0.00000
      7      12.2671      0.00000
      8      12.3495      0.00000
      9      15.9290      0.00000
     10      16.1409      0.00000
     11      17.7946      0.00000
     12      18.2645      0.00000

 k-point    26 :      -0.4000    0.3000    0.0000
  band No.  band energies     occupation 
      1      -2.9529      1.00000
      2      -1.2458      1.00000
      3       1.4009      1.00000
      4       3.4307      1.00000
      5       6.9981      0.00000
      6      10.7052      0.00000
      7      11.9514      0.00000
      8      12.1042      0.00000
      9      13.9883      0.00000
     10      14.0583      0.00000
     11      19.0900      0.00000
     12      19.9221      0.00000

 k-point    27 :      -0.3000    0.3000   -0.0000
  band No.  band energies     occupation 
      1      -3.4862      1.00000
      2      -0.6617      1.00000
      3       1.3746      1.00000
      4       3.8245      1.00000
      5       7.4424      0.00000
      6      11.2878      0.00000
      7      11.5603      0.00000
      8      12.3080      0.00000
      9      12.6472      0.00000
     10      13.0504      0.00000
     11      19.0242      0.00000
     12      19.5742      0.00000

 k-point    28 :       0.4000    0.4000    0.0000
  band No.  band energies     occupation 
      1      -3.5670      1.00000
      2      -0.5279      1.00000
      3       2.9517      1.00000
      4       2.9517      1.00000
      5       6.1213      0.00000
      6       6.8444      0.00000
      7      14.0120      0.00000
      8      14.0120      0.00000
      9      16.3582      0.00000
     10      16.6065      0.00000
     11      18.0743      0.00000
     12      18.0743      0.00000

 k-point    29 :       0.5000    0.4000    0.0000
  band No.  band energies     occupation 
      1      -2.8454      1.00000
      2      -1.3595      1.00000
      3       2.3616      1.00000
      4       2.9036      1.00000
      5       6.3541     -0.00000
      6       7.1127      0.00000
      7      14.2553      0.00000
      8      14.3320      0.00000
      9      16.2878      0.00000
     10      16.3818      0.00000
     11      17.8222      0.00000
     12      18.2245      0.00000

 k-point    30 :      -0.4000    0.4000   -0.0000
  band No.  band energies     occupation 
      1      -2.3738      1.00000
      2      -1.7755      1.00000
      3       1.5771      1.00000
      4       3.0697      1.00000
      5       6.5658      0.00000
      6       8.6854      0.00000
      7      13.6014      0.00000
      8      14.1582      0.00000
      9      14.1739      0.00000
     10      14.6079      0.00000
     11      19.6767      0.00000
     12      19.8832      0.00000

 k-point    31 :       0.5000    0.5000    0.0000
  band No.  band energies     occupation 
      1      -2.1497      1.00000
      2      -2.1497      1.00000
      3       2.7955      1.00000
      4       2.7955      1.00000
      5       6.2477      0.00000
      6       6.2477      0.00000
      7      15.5545      0.00000
      8      15.5545      0.00000
      9      16.5094      0.00000
     10      16.5094      0.00000
     11      18.0585      0.00000
     12      18.0642      0.00000

 k-point    32 :       0.3000    0.2000    0.1000
  band No.  band energies     occupation 
      1      -5.3999      1.00000
      2       2.2517      1.00000
      3       3.5504      1.00000
      4       4.6593      1.00000
      5       7.9008      0.00000
      6       9.2522      0.00000
      7      10.1311      0.00000
      8      10.2142      0.00000
      9      12.7454      0.00000
     10      14.3416      0.00000
     11      15.8668      0.00000
     12      17.0503      0.00000

 k-point    33 :       0.4000    0.2000    0.1000
  band No.  band energies     occupation 
      1      -4.7944      1.00000
      2       0.8552      1.00000
      3       2.9618      1.00000
      4       4.2865      1.00000
      5       8.2420      0.00000
      6       9.1491      0.00000
      7      10.2351      0.00000
      8      10.6658      0.00000
      9      13.3926      0.00000
     10      15.8118      0.00000
     11      16.1599      0.00000
     12      17.8653      0.00000

 k-point    34 :       0.5000    0.2000    0.1000
  band No.  band energies     occupation 
      1      -4.0546      1.00000
      2      -0.4955      1.00000
      3       2.7299      1.00000
      4       3.9392      1.00000
      5       8.2854      0.00000
      6       8.8259      0.00000
      7      10.5977      0.00000
      8      11.5678      0.00000
      9      14.6684      0.00000
     10      15.0278      0.00000
     11      16.8754      0.00000
     12      18.1129      0.00000

 k-point    35 :      -0.4000    0.2000    0.1000
  band No.  band energies     occupation 
      1      -3.5997      1.00000
      2      -1.1672      1.00000
      3       2.6697      1.00000
      4       3.8028      1.00000
      5       8.3082      0.00000
      6       8.6450      0.00000
      7      10.5579      0.00000
      8      13.2921      0.00000
      9      13.3352      0.00000
     10      15.5981      0.00000
     11      17.0128      0.00000
[...]
      8      12.3078      0.00000
      9      12.6477      0.00000
     10      13.0506      0.00000
     11      19.0232      0.00000
     12      19.5743      0.00000

 k-point    28 :       0.4000    0.4000    0.0000
  band No.  band energies     occupation 
      1      -3.5671      1.00000
      2      -0.5281      1.00000
      3       2.9519      1.00000
      4       2.9519      1.00000
      5       6.1214      0.00000
      6       6.8446      0.00000
      7      14.0120      0.00000
      8      14.0120      0.00000
      9      16.3589      0.00000
     10      16.6061      0.00000
     11      18.0742      0.00000
     12      18.0742      0.00000

 k-point    29 :       0.5000    0.4000    0.0000
  band No.  band energies     occupation 
      1      -2.8454      1.00000
      2      -1.3596      1.00000
      3       2.3618      1.00000
      4       2.9038      1.00000
      5       6.3542     -0.00000
      6       7.1128      0.00000
      7      14.2555      0.00000
      8      14.3319      0.00000
      9      16.2875      0.00000
     10      16.3819      0.00000
     11      17.8227      0.00000
     12      18.2239      0.00000

 k-point    30 :      -0.4000    0.4000   -0.0000
  band No.  band energies     occupation 
      1      -2.3739      1.00000
      2      -1.7756      1.00000
      3       1.5774      1.00000
      4       3.0699      1.00000
      5       6.5659      0.00000
      6       8.6854      0.00000
      7      13.6018      0.00000
      8      14.1578      0.00000
      9      14.1738      0.00000
     10      14.6082      0.00000
     11      19.6744      0.00000
     12      19.8800      0.00000

 k-point    31 :       0.5000    0.5000    0.0000
  band No.  band energies     occupation 
      1      -2.1498      1.00000
      2      -2.1498      1.00000
      3       2.7957      1.00000
      4       2.7957      1.00000
      5       6.2478      0.00000
      6       6.2478      0.00000
      7      15.5547      0.00000
      8      15.5547      0.00000
      9      16.5092      0.00000
     10      16.5092      0.00000
     11      18.0594      0.00000
     12      18.0606      0.00000

 k-point    32 :       0.3000    0.2000    0.1000
  band No.  band energies     occupation 
      1      -5.3999      1.00000
      2       2.2515      1.00000
      3       3.5504      1.00000
      4       4.6592      1.00000
      5       7.9010      0.00000
      6       9.2524      0.00000
      7      10.1314      0.00000
      8      10.2143      0.00000
      9      12.7458      0.00000
     10      14.3419      0.00000
     11      15.8657      0.00000
     12      17.0498      0.00000

 k-point    33 :       0.4000    0.2000    0.1000
  band No.  band energies     occupation 
      1      -4.7944      1.00000
      2       0.8552      1.00000
      3       2.9619      1.00000
      4       4.2865      1.00000
      5       8.2421      0.00000
      6       9.1494      0.00000
      7      10.2353      0.00000
      8      10.6659      0.00000
      9      13.3929      0.00000
     10      15.8111      0.00000
     11      16.1600      0.00000
     12      17.8646      0.00000

 k-point    34 :       0.5000    0.2000    0.1000
  band No.  band energies     occupation 
      1      -4.0547      1.00000
      2      -0.4955      1.00000
      3       2.7299      1.00000
      4       3.9393      1.00000
      5       8.2855      0.00000
      6       8.8262      0.00000
      7      10.5980      0.00000
      8      11.5678      0.00000
      9      14.6684      0.00000
     10      15.0274      0.00000
     11      16.8754      0.00000
     12      18.1127      0.00000

 k-point    35 :      -0.4000    0.2000    0.1000
  band No.  band energies     occupation 
      1      -3.5998      1.00000
      2      -1.1672      1.00000
      3       2.6697      1.00000
      4       3.8028      1.00000
      5       8.3083      0.00000
      6       8.6453      0.00000
      7      10.5582      0.00000
      8      13.2918      0.00000
      9      13.3351      0.00000
     10      15.5979      0.00000
     11      17.0127      0.00000
     12      17.4616      0.00000

 k-point    36 :       0.4000    0.3000    0.1000
  band No.  band energies     occupation 
      1      -4.5700      1.00000
      2       0.8645      1.00000
      3       2.8289      1.00000
      4       3.5520      1.00000
      5       7.3247      0.00000
      6       8.5856      0.00000
      7      10.7322      0.00000
      8      12.0697      0.00000
      9      14.4178      0.00000
     10      16.2271      0.00000
     11      16.9667      0.00000
     12      18.2381      0.00000

 k-point    37 :       0.5000    0.3000    0.1000
  band No.  band energies     occupation 
      1      -3.8568      1.00000
      2      -0.2260      1.00000
      3       2.2099      1.00000
      4       3.2243      1.00000
      5       7.7002      0.00000
      6       9.2861      0.00000
      7      10.3499      0.00000
      8      12.4563      0.00000
      9      15.4851      0.00000
     10      15.4968      0.00000
     11      17.9272      0.00000
     12      18.3601      0.00000

 k-point    38 :      -0.4000    0.3000    0.1000
  band No.  band energies     occupation 
      1      -3.2127      1.00000
      2      -1.0804      1.00000
      3       1.8021      1.00000
      4       3.1690      1.00000
      5       7.8793      0.00000
      6       9.8976      0.00000
      7      11.0265      0.00000
      8      12.3825      0.00000
      9      13.4387      0.00000
     10      16.3445      0.00000
     11      17.4375      0.00000
     12      18.4506      0.00000

 k-point    39 :      -0.3000    0.3000    0.1000
  band No.  band energies     occupation 
      1      -3.4123      1.00000
      2      -0.8235      1.00000
      3       1.6524      1.00000
      4       3.4074      1.00000
      5       8.2206      0.00000
      6       9.6438      0.00000
      7      11.4585      0.00000
      8      12.2518      0.00000
      9      13.1073      0.00000
     10      14.6628      0.00000
     11      18.1744      0.00000
     12      19.5115      0.00000

 k-point    40 :      -0.2000    0.3000    0.1000
  band No.  band energies     occupation 
      1      -4.1408      1.00000
      2       0.1168      1.00000
      3       1.9518      1.00000
      4       3.8454      1.00000
      5       8.7164      0.00000
      6       9.2005      0.00000
      7      10.2307      0.00000
      8      11.7847      0.00000
      9      13.4525      0.00000
     10      15.1950      0.00000
     11      18.1930      0.00000
     12      18.6299      0.00000

 k-point    41 :       0.5000    0.4000    0.1000
  band No.  band energies     occupation 
      1      -3.4498      1.00000
      2      -0.6125      1.00000
      3       2.4219      1.00000
      4       2.7497      1.00000
      5       7.0287     -0.00000
      6       7.6088      0.00000
      7      12.2659      0.00000
      8      13.9982      0.00000
      9      15.9188      0.00000
     10      16.2576      0.00000
     11      18.0323      0.00000
     12      18.5229      0.00000

 k-point    42 :      -0.4000    0.4000    0.1000
  band No.  band energies     occupation 
      1      -2.7187      1.00000
      2      -1.3789      1.00000
      3       1.7198      1.00000
      4       2.6581      1.00000
      5       7.3752      0.00000
      6       8.8147      0.00000
      7      11.8624      0.00000
      8      13.6248      0.00000
      9      14.4225      0.00000
     10      16.4980      0.00000
     11      17.8259      0.00000
     12      19.8327      0.00000

 k-point    43 :      -0.3000    0.4000    0.1000
  band No.  band energies     occupation 
      1      -2.7239      1.00000
      2      -1.3524      1.00000
      3       1.3046      1.00000
      4       2.9262      1.00000
      5       7.7020      0.00000
      6      10.6353      0.00000
      7      11.4692      0.00000
      8      11.7862      0.00000
      9      13.9054      0.00000
     10      14.9862      0.00000
     11      19.3072      0.00000
     12      20.3342      0.00000

 k-point    44 :      -0.4000    0.5000    0.1000
  band No.  band energies     occupation 
      1      -2.0970      1.00000
      2      -2.0970      1.00000
      3       2.3811      1.00000
      4       2.3811      1.00000
      5       7.1029      0.00000
      6       7.1029      0.00000
      7      13.9815      0.00000
      8      13.9815      0.00000
      9      16.0749      0.00000
     10      16.0749      0.00000
     11      18.2845      0.00000
     12      18.2845      0.00000

 k-point    45 :      -0.4000    0.4000    0.2000
  band No.  band energies     occupation 
      1      -3.1319      1.00000
      2      -0.9069      1.00000
      3       1.6604      1.00000
      4       2.6458      1.00000
      5       8.9318      0.00000
      6       9.3020      0.00000
      7       9.9540      0.00000
      8      13.2814      0.00000
      9      13.9612      0.00000
     10      15.6857      0.00000
     11      18.7499      0.00000
     12      19.8293      0.00000

 k-point    46 :      -0.3000    0.4000    0.2000
  band No.  band energies     occupation 
      1      -2.6257      1.00000
      2      -1.4109      1.00000
      3       1.5032      1.00000
      4       2.3953      1.00000
      5       9.2056      0.00000
      6       9.5162      0.00000
      7      10.9171      0.00000
      8      11.3505      0.00000
      9      14.4016      0.00000
     10      16.6622      0.00000
     11      17.6854      0.00000
     12      19.7910      0.00000

 k-point    47 :      -0.3000    0.5000    0.2000
  band No.  band energies     occupation 
      1      -2.0040      1.00000
      2      -2.0040      1.00000
      3       1.8653      1.00000
      4       1.8653      1.00000
      5       8.9642      0.00000
      6       8.9642      0.00000
      7      11.4377      0.00000
      8      11.4377      0.00000
      9      16.0611      0.00000
     10      16.0611      0.00000
     11      18.4504      0.00000
     12      18.4504      0.00000


--------------------------------------------------------------------------------------------------------


 soft charge-density along one line, spin component           1
         0         1         2         3         4         5         6         7         8         9
 total charge-density along one line
 
 soft charge-density along one line, spin component           2
         0         1         2         3         4         5         6         7         8         9
 total charge-density along one line
 
 pseudopotential strength for first ion, spin component:           1
 18.420  25.698  -0.000  -0.000  -0.000  -0.000  -0.000  -0.000
 25.698  35.856  -0.000  -0.000  -0.000  -0.000  -0.000  -0.000
 -0.000  -0.000   4.179   0.000   0.000   7.785   0.000   0.000
 -0.000  -0.000   0.000   4.179   0.000   0.000   7.785   0.000
 -0.000  -0.000   0.000   0.000   4.179   0.000   0.000   7.785
 -0.000  -0.000   7.785   0.000   0.000  14.515   0.000   0.000
 -0.000  -0.000   0.000   7.785   0.000   0.000  14.515   0.000
 -0.000  -0.000   0.000   0.000   7.785   0.000   0.000  14.515
 pseudopotential strength for first ion, spin component:           2
 18.420  25.699  -0.000  -0.000  -0.000  -0.000  -0.000  -0.000
 25.699  35.857  -0.000  -0.000  -0.000  -0.000  -0.000  -0.000
 -0.000  -0.000   4.179   0.000   0.000   7.785   0.000   0.000
 -0.000  -0.000   0.000   4.179   0.000   0.000   7.785   0.000
 -0.000  -0.000   0.000   0.000   4.179   0.000   0.000   7.785
 -0.000  -0.000   7.785   0.000   0.000  14.515   0.000   0.000
 -0.000  -0.000   0.000   7.785   0.000   0.000  14.515   0.000
 -0.000  -0.000   0.000   0.000   7.785   0.000   0.000  14.515
 total augmentation occupancy for first ion, spin component:           1
  5.804  -2.210   0.000   0.000   0.000   0.000   0.000   0.000
 -2.210   0.953   0.000   0.000   0.000  -0.000   0.000  -0.000
  0.000   0.000   2.878  -0.000   0.000  -0.639   0.000  -0.000
  0.000  -0.000  -0.000   2.878  -0.000   0.000  -0.639   0.000
  0.000   0.000   0.000  -0.000   2.878  -0.000   0.000  -0.639
  0.000  -0.000  -0.639   0.000  -0.000   0.151  -0.000   0.000
  0.000   0.000   0.000  -0.639   0.000  -0.000   0.151  -0.000
  0.000  -0.000  -0.000   0.000  -0.639   0.000  -0.000   0.151
 total augmentation occupancy for first ion, spin component:           2
  0.008  -0.004   0.000   0.000   0.000  -0.000  -0.000   0.000
 -0.004   0.002  -0.000  -0.000  -0.000   0.000   0.000   0.000
  0.000  -0.000   0.001  -0.000   0.000  -0.000   0.000  -0.000
  0.000  -0.000  -0.000   0.001  -0.000   0.000  -0.000   0.000
  0.000  -0.000   0.000  -0.000   0.001  -0.000   0.000  -0.000
 -0.000   0.000  -0.000   0.000  -0.000   0.000  -0.000   0.000
 -0.000   0.000   0.000  -0.000   0.000  -0.000   0.000  -0.000
  0.000   0.000  -0.000   0.000  -0.000   0.000  -0.000   0.000


------------------------ aborting loop because EDIFF is reached ----------------------------------------


 


 total charge     
 
# of ion       s       p       d       tot
------------------------------------------
    1        0.752   0.927   0.000   1.680
    2        0.752   0.927   0.000   1.680
--------------------------------------------------
tot          1.504   1.855   0.000   3.359
 


 magnetization (x)
 
# of ion       s       p       d       tot
------------------------------------------
    1       -0.000  -0.000   0.000  -0.000
    2       -0.000  -0.000   0.000  -0.000
--------------------------------------------------
tot         -0.000  -0.000   0.000  -0.000
 
    CHARGE:  cpu time    0.0185: real time    0.0181
    FORLOC:  cpu time    0.0003: real time    0.0004
    FORNL :  cpu time    0.0103: real time    0.0104
    STRESS:  cpu time    0.0398: real time    0.0404
    FORCOR:  cpu time    0.0103: real time    0.0105
    FORHAR:  cpu time    0.0016: real time    0.0021
    MIXING:  cpu time    0.0005: real time    0.0005
    OFIELD:  cpu time    0.0001: real time    0.0003

  FORCE on cell =-STRESS in cart. coord.  units (eV):
  Direction    XX          YY          ZZ          XY          YZ          ZX
  --------------------------------------------------------------------------------------
  Alpha Z     3.30900     3.30900     3.30900
  Ewald     -75.76926   -75.76926   -75.76926     0.00000    -0.00000    -0.00000
  Hartree     4.93309     4.93309     4.93309     0.00000     0.00000     0.00000
  E(xc)     -25.45322   -25.45322   -25.45322     0.00000     0.00000     0.00000
  Local     -29.25190   -29.25190   -29.25190     0.00000     0.00000     0.00000
  n-local    78.32901    79.65548    73.96039     2.22863    -1.26586     0.54881
  augment   -11.51045   -11.51045   -11.51045    -0.00000    -0.00000    -0.00000
  Kinetic    58.27637    55.54612    54.53913     3.54465    -0.62739     1.00381
  Fock        0.00000     0.00000     0.00000     0.00000     0.00000     0.00000
  -------------------------------------------------------------------------------------
  Total      -0.30724    -0.30724    -0.30724    -0.00000    -0.00000     0.00000
  in kB     -12.09681   -12.09681   -12.09681    -0.00000    -0.00000     0.00000
  external pressure =      -12.10 kB  Pullay stress =        0.00 kB


 VOLUME and BASIS-vectors are now :
 -----------------------------------------------------------------------------
  energy-cutoff  :      680.00
  volume of cell :       40.69
      direct lattice vectors                 reciprocal lattice vectors
     0.000000000  2.730000000  2.730000000    -0.183150183  0.183150183  0.183150183
     2.730000000  0.000000000  2.730000000     0.183150183 -0.183150183  0.183150183
     2.730000000  2.730000000  0.000000000     0.183150183  0.183150183 -0.183150183

  length of vectors
     3.860803025  3.860803025  3.860803025     0.317225423  0.317225423  0.317225423


 FORCES acting on ions
    electron-ion (+dipol)            ewald-force                    non-local-force                 convergence-correction
 -----------------------------------------------------------------------------------------------
   0.564E-08 0.564E-08 0.486E-08   -.289E-14 -.403E-15 -.487E-14   0.710E-16 0.432E-16 0.374E-16   -.160E-09 -.160E-09 -.160E-09
   -.564E-08 -.564E-08 -.486E-08   0.298E-14 0.331E-15 0.483E-14   -.417E-16 -.486E-16 -.386E-16   0.160E-09 0.160E-09 0.160E-09
 -----------------------------------------------------------------------------------------------
   0.110E-12 0.337E-13 -.581E-14   0.845E-16 -.717E-16 -.346E-16   0.293E-16 -.543E-17 -.124E-17   -.957E-15 0.101E-14 0.984E-15
 
 
 POSITION                                       TOTAL-FORCE (eV/Angst)
 -----------------------------------------------------------------------------------
      0.00000      0.00000      0.00000        -0.000000     -0.000000     -0.000000
      1.36500      1.36500      1.36500         0.000000      0.000000      0.000000
 -----------------------------------------------------------------------------------
    total drift:                                0.000000      0.000000     -0.000000


--------------------------------------------------------------------------------------------------------



  FREE ENERGIE OF THE ION-ELECTRON SYSTEM (eV)
  ---------------------------------------------------
  free  energy   TOTEN  =       -11.49051608 eV

  energy  without entropy=      -11.49051608  energy(sigma->0) =      -11.49051608
 


--------------------------------------------------------------------------------------------------------


    POTLOK:  cpu time    0.2023: real time    0.2023


--------------------------------------------------------------------------------------------------------


 stress matrix after NEB project (eV)
     -0.30724     -0.00000      0.00000
     -0.00000     -0.30724     -0.00000
      0.00000     -0.00000     -0.30724
  FORCES: max atom, RMS     0.000000    0.000000
  FORCE total and by dimension    0.000000    0.000000
  Stress total and by dimension    0.532156    0.307240
     LOOP+:  cpu time    8.7772: real time    8.8112
    4ORBIT:  cpu time    0.0000: real time    0.0000
 


 total charge     
 
# of ion       s       p       d       tot
------------------------------------------
    1        0.752   0.927   0.000   1.680
    2        0.752   0.927   0.000   1.680
--------------------------------------------------
tot          1.504   1.855   0.000   3.359
 


 magnetization (x)
 
# of ion       s       p       d       tot
------------------------------------------
    1       -0.000  -0.000   0.000  -0.000
    2       -0.000  -0.000   0.000  -0.000
--------------------------------------------------
tot         -0.000  -0.000   0.000  -0.000
 
 BZINTS: Fermi energy:    6.121479;    8.000000 electrons
         Band energy: 0.469838E+01;  BLOECHL correction:   -0.000000

 total amount of memory used by VASP MPI-rank0    31126. kBytes
=======================================================================

   base      :      30000. kBytes
   nonl-proj :        145. kBytes
   fftplans  :        237. kBytes
   grid      :        486. kBytes
   one-center:          6. kBytes
   wavefun   :        252. kBytes
 
  
  
 General timing and accounting informations for this job:
 ========================================================
  
                  Total CPU time used (sec):       13.002
                            User time (sec):       11.794
                          System time (sec):        1.208
                         Elapsed time (sec):       14.360
  
                   Maximum memory used (kb):      245944.
                   Average memory used (kb):           0.
  
                          Minor page faults:        20583
                          Major page faults:            0
                 Voluntary context switches:         7918
