<?xml version="1.0" encoding="ISO-8859-1"?>
<modeling>
 <generator>
  <i name="program" type="string">vasp </i>
  <i name="version" type="string">6.1.2  </i>
  <i name="subversion" type="string">22Jul20 (build Dec 10 2020 10:33:42) complex                          parallel </i>
  <i name="platform" type="string">LinuxIFC </i>
  <i name="date" type="string">2022 08 31 </i>
  <i name="time" type="string">14:59:34 </i>
 </generator>
 <incar>
  <i type="string" name="PREC"> Accurate</i>
  <i type="string" name="ALGO"> Fast</i>
  <i type="int" name="ISPIN">     2</i>
  <i type="int" name="NELM">   200</i>
  <i name="EDIFF">      0.00001000</i>
  <i type="int" name="NSW">     0</i>
  <i name="ENCUT">    680.00000000</i>
  <i name="ENAUG">   1360.00000000</i>
  <v name="MAGMOM">      0.60000000      0.60000000</v>
  <i type="logical" name="LREAL"> F  </i>
  <i type="int" name="ISMEAR">    -5</i>
  <i name="SIGMA">      0.20000000</i>
  <i name="KSPACING">      0.22000000</i>
  <i type="logical" name="LWAVE"> F  </i>
  <i type="logical" name="LCHARG"> T  </i>
  <i type="logical" name="LVTOT"> T  </i>
  <i type="logical" name="LELF"> F  </i>
  <i type="logical" name="LASPH"> T  </i>
  <i type="int" name="NPAR">     4</i>
  <i type="logical" name="LAECHG"> T  </i>
  <i type="string" name="ALGO"> Fast</i>
  <i type="int" name="NELM">   200</i>
  <i type="string" name="GGA"> Ps</i>
  <i name="EDIFF">      0.00001000</i>
  <i type="logical" name="LASPH"> T  </i>
  <i type="logical" name="LMIXTAU"> T  </i>
  <i type="int" name="ISPIN">     2</i>
 </incar>
 <structure name="primitive_cell" >
  <crystal>
   <varray name="basis" >
    <v>       0.00000000       2.73000000       2.73000000 </v>
    <v>       2.73000000       0.00000000       2.73000000 </v>
    <v>       2.73000000       2.73000000       0.00000000 </v>
   </varray>
   <i name="volume">     40.69283400 </i>
   <varray name="rec_basis" >
    <v>      -0.18315018       0.18315018       0.18315018 </v>
    <v>       0.18315018      -0.18315018       0.18315018 </v>
    <v>       0.18315018       0.18315018      -0.18315018 </v>
   </varray>
  </crystal>
  <varray name="positions" >
   <v>       0.00000000       0.00000000       0.00000000 </v>
   <v>       0.25000000       0.25000000       0.25000000 </v>
  </varray>
 </structure>
 <varray name="primitive_index" >
  <v type="int" >        1 </v>
  <v type="int" >        2 </v>
 </varray>
 <kpoints>
  <generation param="Gamma">
   <v type="int" name="divisions">      10       10       10 </v>
   <v name="usershift">      0.00000000       0.00000000       0.00000000 </v>
   <v name="genvec1">      0.10000000      -0.00000000       0.00000000 </v>
   <v name="genvec2">     -0.00000000       0.10000000      -0.00000000 </v>
   <v name="genvec3">      0.00000000       0.00000000       0.10000000 </v>
   <v name="shift">      0.00000000       0.00000000       0.00000000 </v>
  </generation>
  <varray name="kpointlist" >
   <v>       0.00000000       0.00000000       0.00000000 </v>
   <v>       0.10000000       0.00000000       0.00000000 </v>
   <v>       0.20000000       0.00000000      -0.00000000 </v>
   <v>       0.30000000       0.00000000       0.00000000 </v>
   <v>       0.40000000       0.00000000      -0.00000000 </v>
   <v>       0.50000000       0.00000000       0.00000000 </v>
   <v>       0.10000000       0.10000000       0.00000000 </v>
   <v>       0.20000000       0.10000000       0.00000000 </v>
   <v>       0.30000000       0.10000000      -0.00000000 </v>
   <v>       0.40000000       0.10000000       0.00000000 </v>
   <v>       0.50000000       0.10000000      -0.00000000 </v>
   <v>      -0.40000000       0.10000000      -0.00000000 </v>
   <v>      -0.30000000       0.10000000       0.00000000 </v>
   <v>      -0.20000000       0.10000000      -0.00000000 </v>
   <v>      -0.10000000       0.10000000       0.00000000 </v>
   <v>       0.20000000       0.20000000       0.00000000 </v>
   <v>       0.30000000       0.20000000       0.00000000 </v>
   <v>       0.40000000       0.20000000      -0.00000000 </v>
   <v>       0.50000000       0.20000000       0.00000000 </v>
   <v>      -0.40000000       0.20000000      -0.00000000 </v>
   <v>      -0.30000000       0.20000000      -0.00000000 </v>
   <v>      -0.20000000       0.20000000       0.00000000 </v>
   <v>       0.30000000       0.30000000       0.00000000 </v>
   <v>       0.40000000       0.30000000       0.00000000 </v>
   <v>       0.50000000       0.30000000      -0.00000000 </v>
   <v>      -0.40000000       0.30000000       0.00000000 </v>
   <v>      -0.30000000       0.30000000      -0.00000000 </v>
   <v>       0.40000000       0.40000000       0.00000000 </v>
   <v>       0.50000000       0.40000000       0.00000000 </v>
   <v>      -0.40000000       0.40000000      -0.00000000 </v>
   <v>       0.50000000       0.50000000       0.00000000 </v>
   <v>       0.30000000       0.20000000       0.10000000 </v>
   <v>       0.40000000       0.20000000       0.10000000 </v>
   <v>       0.50000000       0.20000000       0.10000000 </v>
   <v>      -0.40000000       0.20000000       0.10000000 </v>
   <v>       0.40000000       0.30000000       0.10000000 </v>
   <v>       0.50000000       0.30000000       0.10000000 </v>
   <v>      -0.40000000       0.30000000       0.10000000 </v>
   <v>      -0.30000000       0.30000000       0.10000000 </v>
   <v>      -0.20000000       0.30000000       0.10000000 </v>
   <v>       0.50000000       0.40000000       0.10000000 </v>
   <v>      -0.40000000       0.40000000       0.10000000 </v>
   <v>      -0.30000000       0.40000000       0.10000000 </v>
   <v>      -0.40000000       0.50000000       0.10000000 </v>
   <v>      -0.40000000       0.40000000       0.20000000 </v>
   <v>      -0.30000000       0.40000000       0.20000000 </v>
   <v>      -0.30000000       0.50000000       0.20000000 </v>
  </varray>
  <varray name="weights" >
   <v>       0.00100000 </v>
   <v>       0.00800000 </v>
   <v>       0.00800000 </v>
   <v>       0.00800000 </v>
   <v>       0.00800000 </v>
   <v>       0.00400000 </v>
   <v>       0.00600000 </v>
   <v>       0.02400000 </v>
   <v>       0.02400000 </v>
   <v>       0.02400000 </v>
   <v>       0.02400000 </v>
   <v>       0.02400000 </v>
   <v>       0.02400000 </v>
   <v>       0.02400000 </v>
   <v>       0.01200000 </v>
   <v>       0.00600000 </v>
   <v>       0.02400000 </v>
   <v>       0.02400000 </v>
   <v>       0.02400000 </v>
   <v>       0.02400000 </v>
   <v>       0.02400000 </v>
   <v>       0.01200000 </v>
   <v>       0.00600000 </v>
   <v>       0.02400000 </v>
   <v>       0.02400000 </v>
   <v>       0.02400000 </v>
   <v>       0.01200000 </v>
   <v>       0.00600000 </v>
   <v>       0.02400000 </v>
   <v>       0.01200000 </v>
   <v>       0.00300000 </v>
   <v>       0.02400000 </v>
   <v>       0.04800000 </v>
   <v>       0.04800000 </v>
   <v>       0.02400000 </v>
   <v>       0.02400000 </v>
   <v>       0.04800000 </v>
   <v>       0.04800000 </v>
   <v>       0.04800000 </v>
   <v>       0.02400000 </v>
   <v>       0.02400000 </v>
   <v>       0.04800000 </v>
   <v>       0.02400000 </v>
   <v>       0.01200000 </v>
   <v>       0.02400000 </v>
   <v>       0.02400000 </v>
   <v>       0.01200000 </v>
  </varray>
  <varray name="tetrahedronlist"  type="int" >
   <v type="int" >       24        1        2        2        7 </v>
   <v type="int" >       48        2        7        8       15 </v>
   <v type="int" >       48        2        3        8       15 </v>
   <v type="int" >       24        2        2        7       15 </v>
   <v type="int" >       48        3        8        9       14 </v>
   <v type="int" >       48        3        4        9       14 </v>
   <v type="int" >       48        3        8       14       15 </v>
   <v type="int" >       48        4        9       10       13 </v>
   <v type="int" >       48        4        5       10       13 </v>
   <v type="int" >       48        4        9       13       14 </v>
   <v type="int" >       48        5       10       11       12 </v>
   <v type="int" >       48        5        6       11       12 </v>
   <v type="int" >       48        5       10       12       13 </v>
   <v type="int" >       48        6       11       11       12 </v>
   <v type="int" >       24        7        8        8       16 </v>
   <v type="int" >       24        7        8        8       15 </v>
   <v type="int" >       48        8       16       17       32 </v>
   <v type="int" >       48        8        9       17       32 </v>
   <v type="int" >       48        8        9       14       32 </v>
   <v type="int" >       24        8        8       16       32 </v>
   <v type="int" >       24        8        8       15       32 </v>
   <v type="int" >       48        8       14       15       32 </v>
   <v type="int" >       48        9       17       18       33 </v>
   <v type="int" >       48        9       10       18       33 </v>
   <v type="int" >       48        9       10       13       33 </v>
   <v type="int" >       48        9       17       32       33 </v>
   <v type="int" >       48        9       14       32       33 </v>
   <v type="int" >       48        9       13       14       33 </v>
   <v type="int" >       48       10       18       19       34 </v>
   <v type="int" >       48       10       11       19       34 </v>
   <v type="int" >       48       10       11       12       34 </v>
   <v type="int" >       48       10       18       33       34 </v>
   <v type="int" >       48       10       13       33       34 </v>
   <v type="int" >       48       10       12       13       34 </v>
   <v type="int" >       48       11       19       20       35 </v>
   <v type="int" >       48       11       12       20       35 </v>
   <v type="int" >       48       11       11       12       35 </v>
   <v type="int" >       48       11       19       34       35 </v>
   <v type="int" >       48       11       12       34       35 </v>
   <v type="int" >       48       12       20       21       34 </v>
   <v type="int" >       48       12       13       21       34 </v>
   <v type="int" >       48       12       20       34       35 </v>
   <v type="int" >       48       13       21       22       33 </v>
   <v type="int" >       48       13       14       22       33 </v>
   <v type="int" >       48       13       21       33       34 </v>
   <v type="int" >       24       14       14       22       32 </v>
   <v type="int" >       24       14       14       15       32 </v>
   <v type="int" >       48       14       22       32       33 </v>
   <v type="int" >       24       16       17       17       23 </v>
   <v type="int" >       24       16       17       17       32 </v>
   <v type="int" >       48       17       23       24       36 </v>
   <v type="int" >       48       17       18       24       36 </v>
   <v type="int" >       48       17       18       33       36 </v>
   <v type="int" >       24       17       17       23       36 </v>
   <v type="int" >       24       17       17       32       36 </v>
   <v type="int" >       48       17       32       33       36 </v>
   <v type="int" >       48       18       24       25       37 </v>
   <v type="int" >       48       18       19       25       37 </v>
   <v type="int" >       48       18       19       34       37 </v>
   <v type="int" >       48       18       24       36       37 </v>
   <v type="int" >       48       18       33       36       37 </v>
   <v type="int" >       48       18       33       34       37 </v>
   <v type="int" >       48       19       25       26       38 </v>
   <v type="int" >       48       19       20       26       38 </v>
   <v type="int" >       48       19       20       35       38 </v>
   <v type="int" >       48       19       25       37       38 </v>
   <v type="int" >       48       19       34       37       38 </v>
   <v type="int" >       48       19       34       35       38 </v>
   <v type="int" >       48       20       26       27       39 </v>
   <v type="int" >       48       20       21       27       39 </v>
   <v type="int" >       48       20       21       34       39 </v>
   <v type="int" >       48       20       26       38       39 </v>
   <v type="int" >       48       20       35       38       39 </v>
   <v type="int" >       48       20       34       35       39 </v>
   <v type="int" >       24       21       21       27       40 </v>
   <v type="int" >       24       21       21       22       40 </v>
   <v type="int" >       48       21       22       33       40 </v>
   <v type="int" >       48       21       27       39       40 </v>
   <v type="int" >       48       21       34       39       40 </v>
   <v type="int" >       48       21       33       34       40 </v>
   <v type="int" >       24       22       33       33       40 </v>
   <v type="int" >       24       22       32       33       33 </v>
   <v type="int" >       24       23       24       24       28 </v>
   <v type="int" >       24       23       24       24       36 </v>
   <v type="int" >       48       24       28       29       41 </v>
   <v type="int" >       48       24       25       29       41 </v>
   <v type="int" >       48       24       25       37       41 </v>
   <v type="int" >       24       24       24       28       41 </v>
   <v type="int" >       24       24       24       36       41 </v>
   <v type="int" >       48       24       36       37       41 </v>
   <v type="int" >       48       25       29       30       42 </v>
   <v type="int" >       48       25       26       30       42 </v>
   <v type="int" >       48       25       26       38       42 </v>
   <v type="int" >       48       25       29       41       42 </v>
   <v type="int" >       48       25       37       41       42 </v>
   <v type="int" >       48       25       37       38       42 </v>
   <v type="int" >       24       26       26       30       43 </v>
   <v type="int" >       24       26       26       27       43 </v>
   <v type="int" >       48       26       27       39       43 </v>
   <v type="int" >       48       26       30       42       43 </v>
   <v type="int" >       48       26       38       42       43 </v>
   <v type="int" >       48       26       38       39       43 </v>
   <v type="int" >       24       27       39       39       43 </v>
   <v type="int" >       24       27       39       39       40 </v>
   <v type="int" >       24       28       29       29       31 </v>
   <v type="int" >       24       28       29       29       41 </v>
   <v type="int" >       48       29       29       31       44 </v>
   <v type="int" >       24       29       29       30       44 </v>
   <v type="int" >       48       29       30       42       44 </v>
   <v type="int" >       24       29       29       41       44 </v>
   <v type="int" >       48       29       41       42       44 </v>
   <v type="int" >       24       30       42       42       44 </v>
   <v type="int" >       24       30       42       42       43 </v>
   <v type="int" >       24       32       33       33       36 </v>
   <v type="int" >       48       33       36       37       40 </v>
   <v type="int" >       48       33       34       37       40 </v>
   <v type="int" >       24       33       33       36       40 </v>
   <v type="int" >       48       34       37       38       39 </v>
   <v type="int" >       48       34       35       38       39 </v>
   <v type="int" >       48       34       37       39       40 </v>
   <v type="int" >       48       35       38       38       39 </v>
   <v type="int" >       24       36       37       37       41 </v>
   <v type="int" >       24       36       37       37       40 </v>
   <v type="int" >       48       37       41       42       45 </v>
   <v type="int" >       48       37       38       42       45 </v>
   <v type="int" >       48       37       38       39       45 </v>
   <v type="int" >       24       37       37       41       45 </v>
   <v type="int" >       24       37       37       40       45 </v>
   <v type="int" >       48       37       39       40       45 </v>
   <v type="int" >       48       38       42       43       46 </v>
   <v type="int" >       48       38       39       43       46 </v>
   <v type="int" >       48       38       38       39       46 </v>
   <v type="int" >       48       38       42       45       46 </v>
   <v type="int" >       48       38       39       45       46 </v>
   <v type="int" >       24       39       39       43       45 </v>
   <v type="int" >       24       39       39       40       45 </v>
   <v type="int" >       48       39       43       45       46 </v>
   <v type="int" >       24       41       42       42       44 </v>
   <v type="int" >       24       41       42       42       45 </v>
   <v type="int" >       48       42       42       44       47 </v>
   <v type="int" >       24       42       42       43       47 </v>
   <v type="int" >       48       42       43       46       47 </v>
   <v type="int" >       24       42       42       45       47 </v>
   <v type="int" >       48       42       45       46       47 </v>
   <v type="int" >       24       43       46       46       47 </v>
   <v type="int" >       24       43       45       46       46 </v>
   <v type="int" >       24       45       46       46       47 </v>
   <v type="int" >       24       46       46       47       47 </v>
  </varray>
  <i name="volumeweight">      0.00016667 </i>
 </kpoints>
 <parameters>
  <separator name="general" >
   <i type="string" name="SYSTEM">unknown system</i>
   <i type="logical" name="LCOMPAT"> F  </i>
  </separator>
  <separator name="electronic" >
   <i type="string" name="PREC">accura</i>
   <i name="ENMAX">    680.00000000</i>
   <i name="ENAUG">   1360.00000000</i>
   <i name="EDIFF">      0.00001000</i>
   <i type="int" name="IALGO">    68</i>
   <i type="int" name="IWAVPR">    10</i>
   <i type="int" name="NBANDS">    12</i>
   <i type="int" name="NBANDSLOW">    -1</i>
   <i type="int" name="NBANDSHIGH">    -1</i>
   <i name="NELECT">      8.00000000</i>
   <i type="int" name="TURBO">     0</i>
   <i type="int" name="IRESTART">     0</i>
   <i type="int" name="NREBOOT">     0</i>
   <i type="int" name="NMIN">     0</i>
   <i name="EREF">      0.00000000</i>
   <separator name="electronic smearing" >
    <i type="int" name="ISMEAR">    -5</i>
    <i name="SIGMA">      0.20000000</i>
    <i name="KSPACING">      0.22000000</i>
    <i type="logical" name="KGAMMA"> T  </i>
    <i type="logical" name="KBLOWUP"> T  </i>
   </separator>
   <separator name="electronic projectors" >
    <i type="logical" name="LREAL"> F  </i>
    <v name="ROPT">      0.00000000</v>
    <i type="int" name="LMAXPAW">  -100</i>
    <i type="int" name="LMAXMIX">     2</i>
    <i type="logical" name="NLSPLINE"> F  </i>
   </separator>
   <separator name="electronic startup" >
    <i type="int" name="ISTART">     0</i>
    <i type="int" name="ICHARG">     2</i>
    <i type="int" name="INIWAV">     1</i>
   </separator>
   <separator name="electronic spin" >
    <i type="int" name="ISPIN">     2</i>
    <i type="logical" name="LNONCOLLINEAR"> F  </i>
    <v name="MAGMOM">      0.60000000      0.60000000</v>
    <i name="NUPDOWN">     -1.00000000</i>
    <i type="logical" name="LSORBIT"> F  </i>
    <v name="SAXIS">      0.00000000      0.00000000      1.00000000</v>
    <i type="logical" name="LSPIRAL"> F  </i>
    <v name="QSPIRAL">      0.00000000      0.00000000      0.00000000</v>
    <i type="logical" name="LZEROZ"> F  </i>
   </separator>
   <separator name="electronic exchange-correlation" >
    <i type="logical" name="LASPH"> T  </i>
    <i type="logical" name="LMETAGGA"> F  </i>
   </separator>
   <separator name="electronic convergence" >
    <i type="int" name="NELM">   200</i>
    <i type="int" name="NELMDL">    -5</i>
    <i type="int" name="NELMIN">     2</i>
    <i name="ENINI">    680.00000000</i>
    <separator name="electronic convergence detail" >
     <i type="logical" name="LDIAG"> T  </i>
     <i type="logical" name="LSUBROT"> F  </i>
     <i name="WEIMIN">      0.00000000</i>
     <i name="EBREAK">      0.00000021</i>
     <i name="DEPER">      0.30000000</i>
     <i type="int" name="NRMM">     4</i>
     <i name="TIME">      0.40000000</i>
    </separator>
   </separator>
   <separator name="electronic mixer" >
    <i name="AMIX">      0.40000000</i>
    <i name="BMIX">      1.00000000</i>
    <i name="AMIN">      0.10000000</i>
    <i name="AMIX_MAG">      1.60000000</i>
    <i name="BMIX_MAG">      1.00000000</i>
    <separator name="electronic mixer details" >
     <i type="int" name="IMIX">     4</i>
     <i type="logical" name="MIXFIRST"> F  </i>
     <i type="int" name="MAXMIX">   -45</i>
     <i name="WC">    100.00000000</i>
     <i type="int" name="INIMIX">     1</i>
     <i type="int" name="MIXPRE">     1</i>
     <i type="int" name="MREMOVE">     5</i>
    </separator>
   </separator>
   <separator name="electronic dipolcorrection" >
    <i type="logical" name="LDIPOL"> F  </i>
    <i type="logical" name="LMONO"> F  </i>
    <i type="int" name="IDIPOL">     0</i>
    <i name="EPSILON">      1.00000000</i>
    <v name="DIPOL">   -100.00000000   -100.00000000   -100.00000000</v>
    <i name="EFIELD">      0.00000000</i>
   </separator>
  </separator>
  <separator name="grids" >
   <i type="int" name="NGX">    36</i>
   <i type="int" name="NGY">    36</i>
   <i type="int" name="NGZ">    36</i>
   <i type="int" name="NGXF">    72</i>
   <i type="int" name="NGYF">    72</i>
   <i type="int" name="NGZF">    72</i>
   <i type="logical" name="ADDGRID"> F  </i>
  </separator>
  <separator name="ionic" >
   <i type="int" name="NSW">     0</i>
   <i type="int" name="IBRION">    -1</i>
   <i type="int" name="MDALGO">     0</i>
   <i type="int" name="ISIF">     2</i>
   <i name="PSTRESS">      0.00000000</i>
   <i name="EDIFFG">      0.00010000</i>
   <i type="int" name="NFREE">     0</i>
   <i name="POTIM">      0.50000000</i>
   <i name="SMASS">     -3.00000000</i>
   <i name="SCALEE">      1.00000000</i>
  </separator>
  <separator name="ionic md" >
   <i name="TEBEG">      0.00010000</i>
   <i name="TEEND">      0.00010000</i>
   <i type="int" name="NBLOCK">     1</i>
   <i type="int" name="KBLOCK">     1</i>
   <i type="int" name="NPACO">   256</i>
   <i name="APACO">     16.00000000</i>
  </separator>
  <separator name="symmetry" >
   <i type="int" name="ISYM">     2</i>
   <i name="SYMPREC">      0.00001000</i>
  </separator>
  <separator name="dos" >
   <i type="int" name="LORBIT">    11</i>
   <v name="RWIGS">     -1.00000000</v>
   <i type="int" name="NEDOS">   301</i>
   <i name="EMIN">     10.00000000</i>
   <i name="EMAX">    -10.00000000</i>
   <i name="EFERMI">      0.00000000</i>
  </separator>
  <separator name="writing" >
   <i type="int" name="NWRITE">     2</i>
   <i type="logical" name="LWAVE"> F  </i>
   <i type="logical" name="LDOWNSAMPLE"> F  </i>
   <i type="logical" name="LCHARG"> T  </i>
   <i type="logical" name="LPARD"> F  </i>
   <i type="logical" name="LVTOT"> T  </i>
   <i type="logical" name="LVHAR"> F  </i>
   <i type="logical" name="LELF"> F  </i>
   <i type="logical" name="LOPTICS"> F  </i>
   <v name="STM">      0.00000000      0.00000000      0.00000000      0.00000000      0.00000000      0.00000000      0.00000000</v>
  </separator>
  <separator name="performance" >
   <i type="int" name="NPAR">     4</i>
   <i type="int" name="NSIM">     4</i>
   <i type="int" name="NBLK">    -1</i>
   <i type="logical" name="LPLANE"> T  </i>
   <i type="logical" name="LSCALAPACK"> T  </i>
   <i type="logical" name="LSCAAWARE"> F  </i>
   <i type="logical" name="LSCALU"> F  </i>
   <i type="logical" name="LASYNC"> F  </i>
   <i type="logical" name="LORBITALREAL"> F  </i>
  </separator>
  <separator name="miscellaneous" >
   <i type="int" name="IDIOT">     3</i>
   <i type="int" name="PHON_NSTRUCT">    -1</i>
   <i type="logical" name="LMUSIC"> F  </i>
   <v name="POMASS">     28.08500000</v>
   <v name="DARWINR">      0.00000000</v>
   <v name="DARWINV">      1.00000000</v>
   <i type="logical" name="LCORR"> T  </i>
  </separator>
  <i type="logical" name="GGA_COMPAT"> T  </i>
  <i type="logical" name="LBERRY"> F  </i>
  <i type="int" name="ICORELEVEL">     0</i>
  <i type="logical" name="LDAU"> F  </i>
  <i type="int" name="I_CONSTRAINED_M">     0</i>
  <separator name="electronic exchange-correlation" >
   <i type="string" name="GGA">PS</i>
   <i type="int" name="VOSKOWN">     0</i>
   <i type="logical" name="LHFCALC"> F  </i>
   <i type="string" name="PRECFOCK"></i>
   <i type="logical" name="LSYMGRAD"> F  </i>
   <i type="logical" name="LHFONE"> F  </i>
   <i type="logical" name="LRHFCALC"> F  </i>
   <i type="logical" name="LTHOMAS"> F  </i>
   <i type="logical" name="LMODELHF"> F  </i>
   <i type="logical" name="LFOCKACE"> F  </i>
   <i name="ENCUT4O">     -1.00000000</i>
   <i type="int" name="EXXOEP">     0</i>
   <i type="int" name="FOURORBIT">     0</i>
   <i name="AEXX">      0.00000000</i>
   <i name="HFALPHA">      0.00000000</i>
   <i name="MCALPHA">      0.00000000</i>
   <i name="ALDAX">      1.00000000</i>
   <i name="AGGAX">      1.00000000</i>
   <i name="ALDAC">      1.00000000</i>
   <i name="AGGAC">      1.00000000</i>
   <i type="int" name="NKREDX">     1</i>
   <i type="int" name="NKREDY">     1</i>
   <i type="int" name="NKREDZ">     1</i>
   <i type="logical" name="SHIFTRED"> F  </i>
   <i type="logical" name="ODDONLY"> F  </i>
   <i type="logical" name="EVENONLY"> F  </i>
   <i type="int" name="LMAXFOCK">     0</i>
   <i type="int" name="NMAXFOCKAE">     0</i>
   <i type="logical" name="LFOCKAEDFT"> F  </i>
   <i name="HFSCREEN">      0.00000000</i>
   <i name="HFSCREENC">      0.00000000</i>
   <i type="int" name="NBANDSGWLOW">     0</i>
  </separator>
  <separator name="vdW DFT" >
   <i type="logical" name="LUSE_VDW"> F  </i>
   <i name="Zab_VDW">     -0.84910000</i>
   <i name="PARAM1">      0.12340000</i>
   <i name="PARAM2">      1.00000000</i>
   <i name="PARAM3">      0.00000000</i>
  </separator>
  <separator name="model GW" >
   <i type="int" name="MODEL_GW">     0</i>
   <i name="MODEL_EPS0">     12.20785020</i>
   <i name="MODEL_ALPHA">      1.00000000</i>
  </separator>
  <separator name="linear response parameters" >
   <i type="logical" name="LEPSILON"> F  </i>
   <i type="logical" name="LRPA"> F  </i>
   <i type="logical" name="LNABLA"> F  </i>
   <i type="logical" name="LVEL"> F  </i>
   <i type="int" name="KINTER">     0</i>
   <i name="CSHIFT">      0.10000000</i>
   <i name="OMEGAMAX">     -1.00000000</i>
   <i name="DEG_THRESHOLD">      0.00200000</i>
   <i name="RTIME">     -0.10000000</i>
   <i name="WPLASMAI">      0.00000000</i>
   <v name="DFIELD">      0.00000000      0.00000000      0.00000000</v>
   <v name="WPLASMA">      0.00000000      0.00000000      0.00000000      0.00000000      0.00000000      0.00000000      0.00000000      0.00000000      0.00000000</v>
  </separator>
  <separator name="orbital magnetization" >
   <i type="logical" name="NUCIND"> F  </i>
   <v name="MAGPOS">      0.00000000      0.00000000      0.00000000</v>
   <i type="logical" name="LNICSALL"> T  </i>
   <i type="logical" name="ORBITALMAG"> F  </i>
   <i type="logical" name="LMAGBLOCH"> F  </i>
   <i type="logical" name="LCHIMAG"> F  </i>
   <i type="logical" name="LGAUGE"> T  </i>
   <i type="int" name="MAGATOM">     0</i>
   <v name="MAGDIPOL">      0.00000000      0.00000000      0.00000000</v>
   <v name="AVECCONST">      0.00000000      0.00000000      0.00000000</v>
  </separator>
  <separator name="response functions" >
   <i type="logical" name="LFINITE_TEMPERATURE"> F  </i>
   <i type="logical" name="LADDER"> F  </i>
   <i type="logical" name="LRPAFORCE"> F  </i>
   <i type="logical" name="LFXC"> F  </i>
   <i type="logical" name="LHARTREE"> T  </i>
   <i type="int" name="IBSE">     0</i>
   <v type="int" name="KPOINT">    -1     0     0     0</v>
   <i type="logical" name="LTCTC"> F  </i>
   <i type="logical" name="LTCTE"> F  </i>
   <i type="logical" name="LTETE"> F  </i>
   <i type="logical" name="LTRIPLET"> F  </i>
   <i type="logical" name="LFXCEPS"> F  </i>
   <i type="logical" name="LFXHEG"> F  </i>
   <i type="int" name="NATURALO">     2</i>
   <i type="logical" name="LHOLEGF"> F  </i>
   <i type="logical" name="L2ORDER"> F  </i>
   <i type="logical" name="LDMP1"> F  </i>
   <i type="logical" name="LMP2LT"> F  </i>
   <i type="logical" name="LSMP2LT"> F  </i>
   <i type="logical" name="LGWLF"> F  </i>
   <i name="ENCUTGW">     -2.00000000</i>
   <i name="ENCUTGWSOFT">     -2.00000000</i>
   <i name="ENCUTLF">     -1.00000000</i>
   <i type="logical" name="LESF_SPLINES"> F  </i>
   <i type="int" name="LMAXMP2">    -1</i>
   <i name="SCISSOR">      0.00000000</i>
   <i type="int" name="NOMEGA">     0</i>
   <i type="int" name="NOMEGAR">     0</i>
   <i type="int" name="NBANDSGW">    -1</i>
   <i type="int" name="NBANDSO">    -1</i>
   <i type="int" name="NBANDSV">    -1</i>
   <i type="int" name="NELM">   200</i>
   <i type="int" name="NELMHF">     1</i>
   <i type="int" name="DIM">     3</i>
   <i type="int" name="IESPILON">     4</i>
   <i type="int" name="ANTIRES">     0</i>
   <i name="OMEGAMAX">    -30.00000000</i>
   <i name="OMEGAMIN">    -30.00000000</i>
   <i name="OMEGATL">   -200.00000000</i>
   <i type="int" name="OMEGAGRID">     0</i>
   <i name="CSHIFT">     -0.10000000</i>
   <i type="logical" name="LSELFENERGY"> F  </i>
   <i type="logical" name="LSPECTRAL"> F  </i>
   <i type="logical" name="LSPECTRALGW"> F  </i>
   <i type="logical" name="LSINGLES"> F  </i>
   <i type="logical" name="LFERMIGW"> F  </i>
   <i type="logical" name="ODDONLYGW"> F  </i>
   <i type="logical" name="EVENONLYGW"> F  </i>
   <i type="int" name="NKREDLFX">     1</i>
   <i type="int" name="NKREDLFY">     1</i>
   <i type="int" name="NKREDLFZ">     1</i>
   <i type="int" name="MAXMEM">  2800</i>
   <i type="int" name="TELESCOPE">     0</i>
   <i type="int" name="NTAUPAR">    -1</i>
   <i type="int" name="NOMEGAPAR">    -1</i>
   <i name="LAMBDA">      1.00000000</i>
  </separator>
  <separator name="External order field" >
   <i name="OFIELD_KAPPA">      0.00000000</i>
   <v name="OFIELD_K">      0.00000000      0.00000000      0.00000000</v>
   <i name="OFIELD_Q6_NEAR">      0.00000000</i>
   <i name="OFIELD_Q6_FAR">      0.00000000</i>
   <i name="OFIELD_A">      0.00000000</i>
  </separator>
  <separator name="solvation model" >
   <i type="logical" name="LSOL"> F  </i>
  </separator>
 </parameters>
 <atominfo>
  <atoms>       2 </atoms>
  <types>       1 </types>
  <array name="atoms" >
   <dimension dim="1">ion</dimension>
   <field type="string">element</field>
   <field type="int">atomtype</field>
   <set>
    <rc><c>Si</c><c>   1</c></rc>
    <rc><c>Si</c><c>   1</c></rc>
   </set>
  </array>
  <array name="atomtypes" >
   <dimension dim="1">type</dimension>
   <field type="int">atomspertype</field>
   <field type="string">element</field>
   <field>mass</field>
   <field>valence</field>
   <field type="string">pseudopotential</field>
   <set>
    <rc><c>   2</c><c>Si</c><c>     28.08500000</c><c>      4.00000000</c><c>  PAW_PBE Si 05Jan2001                  </c></rc>
   </set>
  </array>
 </atominfo>
 <structure name="initialpos" >
  <crystal>
   <varray name="basis" >
    <v>       0.00000000       2.73000000       2.73000000 </v>
    <v>       2.73000000       0.00000000       2.73000000 </v>
    <v>       2.73000000       2.73000000       0.00000000 </v>
   </varray>
   <i name="volume">     40.69283400 </i>
   <varray name="rec_basis" >
    <v>      -0.18315018       0.18315018       0.18315018 </v>
    <v>       0.18315018      -0.18315018       0.18315018 </v>
    <v>       0.18315018       0.18315018      -0.18315018 </v>
   </varray>
  </crystal>
  <varray name="positions" >
   <v>       0.00000000       0.00000000       0.00000000 </v>
   <v>       0.25000000       0.25000000       0.25000000 </v>
  </varray>
 </structure>
 <calculation>
  <scstep>
   <time name="dav">    0.58    0.58</time>
   <time name="total">    0.80    0.81</time>
   <energy>
    <i name="alphaZ">      3.30899841 </i>
    <i name="ewald">   -227.30768138 </i>
    <i name="hartreedc">    -11.25054504 </i>
    <i name="XCdc">    -17.44029463 </i>
    <i name="pawpsdc">    174.89845602 </i>
    <i name="pawaedc">   -140.31916047 </i>
    <i name="eentropy">      0.00000000 </i>
    <i name="bandstr">     21.69786872 </i>
    <i name="atom">    205.15160006 </i>
    <i name="e_fr_energy">      8.73924169 </i>
    <i name="e_wo_entrp">      8.73924169 </i>
    <i name="e_0_energy">      8.73924169 </i>
   </energy>
  </scstep>
  <scstep>
   <time name="dav">    0.58    0.58</time>
   <time name="total">    0.58    0.58</time>
   <energy>
    <i name="e_fr_energy">    -10.80119766 </i>
    <i name="e_wo_entrp">    -10.80119766 </i>
    <i name="e_0_energy">    -10.80119766 </i>
   </energy>
  </scstep>
  <scstep>
   <time name="dav">    0.59    0.60</time>
   <time name="total">    0.60    0.60</time>
   <energy>
    <i name="e_fr_energy">    -11.51093621 </i>
    <i name="e_wo_entrp">    -11.51093621 </i>
    <i name="e_0_energy">    -11.51093621 </i>
   </energy>
  </scstep>
  <scstep>
   <time name="dav">    0.57    0.57</time>
   <time name="total">    0.57    0.57</time>
   <energy>
    <i name="e_fr_energy">    -11.51638402 </i>
    <i name="e_wo_entrp">    -11.51638402 </i>
    <i name="e_0_energy">    -11.51638402 </i>
   </energy>
  </scstep>
  <scstep>
   <time name="dav">    0.60    0.60</time>
   <time name="total">    0.62    0.63</time>
   <energy>
    <i name="e_fr_energy">    -11.51643587 </i>
    <i name="e_wo_entrp">    -11.51643587 </i>
    <i name="e_0_energy">    -11.51643587 </i>
   </energy>
  </scstep>
  <scstep>
   <time name="diag">    0.28    0.28</time>
   <time name="diis">    0.13    0.13</time>
   <time name="orth">    0.01    0.01</time>
   <time name="total">    0.65    0.65</time>
   <energy>
    <i name="e_fr_energy">    -11.54371896 </i>
    <i name="e_wo_entrp">    -11.54371896 </i>
    <i name="e_0_energy">    -11.54371896 </i>
   </energy>
  </scstep>
  <scstep>
   <time name="diag">    0.28    0.28</time>
   <time name="diis">    0.13    0.13</time>
   <time name="orth">    0.01    0.01</time>
   <time name="total">    0.64    0.64</time>
   <energy>
    <i name="e_fr_energy">    -11.46740848 </i>
    <i name="e_wo_entrp">    -11.46740848 </i>
    <i name="e_0_energy">    -11.46740848 </i>
   </energy>
  </scstep>
  <scstep>
   <time name="diag">    0.28    0.28</time>
   <time name="diis">    0.14    0.14</time>
   <time name="orth">    0.01    0.01</time>
   <time name="total">    0.65    0.65</time>
   <energy>
    <i name="e_fr_energy">    -11.49031384 </i>
    <i name="e_wo_entrp">    -11.49031384 </i>
    <i name="e_0_energy">    -11.49031384 </i>
   </energy>
  </scstep>
  <scstep>
   <time name="diag">    0.28    0.28</time>
   <time name="diis">    0.14    0.14</time>
   <time name="orth">    0.01    0.01</time>
   <time name="total">    0.66    0.66</time>
   <energy>
    <i name="e_fr_energy">    -11.49034325 </i>
    <i name="e_wo_entrp">    -11.49034325 </i>
    <i name="e_0_energy">    -11.49034325 </i>
   </energy>
  </scstep>
  <scstep>
   <time name="diag">    0.27    0.27</time>
   <time name="diis">    0.14    0.14</time>
   <time name="orth">    0.01    0.01</time>
   <time name="total">    0.65    0.65</time>
   <energy>
    <i name="e_fr_energy">    -11.49047418 </i>
    <i name="e_wo_entrp">    -11.49047418 </i>
    <i name="e_0_energy">    -11.49047418 </i>
   </energy>
  </scstep>
  <scstep>
   <time name="diag">    0.28    0.28</time>
   <time name="diis">    0.15    0.15</time>
   <time name="orth">    0.01    0.01</time>
   <time name="total">    0.66    0.66</time>
   <energy>
    <i name="e_fr_energy">    -11.49050989 </i>
    <i name="e_wo_entrp">    -11.49050989 </i>
    <i name="e_0_energy">    -11.49050989 </i>
   </energy>
  </scstep>
  <scstep>
   <time name="diag">    0.28    0.28</time>
   <time name="diis">    0.14    0.14</time>
   <time name="orth">    0.01    0.01</time>
   <time name="total">    0.63    0.63</time>
   <energy>
    <i name="alphaZ">      3.30899841 </i>
    <i name="ewald">   -227.30768138 </i>
    <i name="hartreedc">    -14.79696565 </i>
    <i name="XCdc">    -16.91889780 </i>
    <i name="pawpsdc">    843.14385508 </i>
    <i name="pawaedc">   -808.76980383 </i>
    <i name="eentropy">      0.00000000 </i>
    <i name="bandstr">      4.69837903 </i>
    <i name="atom">    205.15160006 </i>
    <i name="e_fr_energy">    -11.49051608 </i>
    <i name="e_wo_entrp">    -11.49051608 </i>
    <i name="e_0_energy">    -11.49051608 </i>
   </energy>
  </scstep>
  <structure>
   <crystal>
    <varray name="basis" >
     <v>       0.00000000       2.73000000       2.73000000 </v>
     <v>       2.73000000       0.00000000       2.73000000 </v>
     <v>       2.73000000       2.73000000       0.00000000 </v>
    </varray>
    <i name="volume">     40.69283400 </i>
    <varray name="rec_basis" >
     <v>      -0.18315018       0.18315018       0.18315018 </v>
     <v>       0.18315018      -0.18315018       0.18315018 </v>
     <v>       0.18315018       0.18315018      -0.18315018 </v>
    </varray>
   </crystal>
   <varray name="positions" >
    <v>       0.00000000       0.00000000       0.00000000 </v>
    <v>       0.25000000       0.25000000       0.25000000 </v>
   </varray>
  </structure>
  <varray name="forces" >
   <v>      -0.00000000      -0.00000000      -0.00000000 </v>
   <v>       0.00000000       0.00000000       0.00000000 </v>
  </varray>
  <varray name="stress" >
   <v>     -12.09681346      -0.00000000       0.00000000 </v>
   <v>      -0.00000000     -12.09681346      -0.00000000 </v>
   <v>       0.00000000      -0.00000000     -12.09681346 </v>
  </varray>
  <energy>
   <i name="e_fr_energy">    -11.49051608 </i>
   <i name="e_wo_entrp">    -11.49051608 </i>
   <i name="e_0_energy">    -11.49051608 </i>
  </energy>
  <time name="totalsc">    8.78    8.81</time>
  <eigenvalues>
   <array>
    <dimension dim="1">band</dimension>
    <dimension dim="2">kpoint</dimension>
    <dimension dim="3">spin</dimension>
    <field>eigene</field>
    <field>occ</field>
    <set>
     <set comment="spin 1">
      <set comment="kpoint 1">
       <r>   -6.2521    1.0000 </r>
       <r>    5.6278    1.0000 </r>
       <r>    5.6278    1.0000 </r>
       <r>    5.6278    1.0000 </r>
       <r>    8.1381    0.0000 </r>
       <r>    8.1381    0.0000 </r>
       <r>    8.1381    0.0000 </r>
       <r>    8.7688    0.0000 </r>
       <r>   13.2724    0.0000 </r>
       <r>   13.3068    0.0000 </r>
       <r>   13.3068    0.0000 </r>
       <r>   16.6693    0.0000 </r>
      </set>
      <set comment="kpoint 2">
       <r>   -6.1225    1.0000 </r>
       <r>    4.4726    1.0000 </r>
       <r>    5.4299    1.0000 </r>
       <r>    5.4299    1.0000 </r>
       <r>    8.1074    0.0000 </r>
       <r>    8.4284    0.0000 </r>
       <r>    8.4284    0.0000 </r>
       <r>    9.7303    0.0000 </r>
       <r>   12.9374    0.0000 </r>
       <r>   12.9374    0.0000 </r>
       <r>   13.8185    0.0000 </r>
       <r>   16.2282    0.0000 </r>
      </set>
      <set comment="kpoint 3">
       <r>   -5.7398    1.0000 </r>
       <r>    2.6169    1.0000 </r>
       <r>    5.0515    1.0000 </r>
       <r>    5.0515    1.0000 </r>
       <r>    7.7294    0.0000 </r>
       <r>    8.9318    0.0000 </r>
       <r>    8.9318    0.0000 </r>
       <r>   11.4879    0.0000 </r>
       <r>   12.6112    0.0000 </r>
       <r>   12.6112    0.0000 </r>
       <r>   14.5032    0.0000 </r>
       <r>   16.3205    0.0000 </r>
      </set>
      <set comment="kpoint 4">
       <r>   -5.1304    1.0000 </r>
       <r>    0.8439    1.0000 </r>
       <r>    4.7194    1.0000 </r>
       <r>    4.7194    1.0000 </r>
       <r>    7.3606    0.0000 </r>
       <r>    9.0999    0.0000 </r>
       <r>    9.0999    0.0000 </r>
       <r>   13.0535    0.0000 </r>
       <r>   13.1440    0.0000 </r>
       <r>   13.1440    0.0000 </r>
       <r>   14.2759    0.0000 </r>
       <r>   18.2648    0.0000 </r>
      </set>
      <set comment="kpoint 5">
       <r>   -4.3905    1.0000 </r>
       <r>   -0.6198    1.0000 </r>
       <r>    4.5092    1.0000 </r>
       <r>    4.5092    1.0000 </r>
       <r>    7.1189    0.0000 </r>
       <r>    8.9827    0.0000 </r>
       <r>    8.9827    0.0000 </r>
       <r>   13.2359    0.0000 </r>
       <r>   14.5206    0.0000 </r>
       <r>   14.5206    0.0000 </r>
       <r>   15.4623    0.0000 </r>
       <r>   18.6786    0.0000 </r>
      </set>
      <set comment="kpoint 6">
       <r>   -3.9430    1.0000 </r>
       <r>   -1.3119    1.0000 </r>
       <r>    4.4383    1.0000 </r>
       <r>    4.4383    1.0000 </r>
       <r>    7.0362    0.0000 </r>
       <r>    8.9072    0.0000 </r>
       <r>    8.9072    0.0000 </r>
       <r>   13.1198    0.0000 </r>
       <r>   16.0959    0.0000 </r>
       <r>   16.0959    0.0000 </r>
       <r>   16.7137    0.0000 </r>
       <r>   16.8096    0.0000 </r>
      </set>
      <set comment="kpoint 7">
       <r>   -6.0790    1.0000 </r>
       <r>    4.6721    1.0000 </r>
       <r>    5.0529    1.0000 </r>
       <r>    5.0529    1.0000 </r>
       <r>    7.7470    0.0000 </r>
       <r>    8.9238    0.0000 </r>
       <r>    8.9238    0.0000 </r>
       <r>    9.6187    0.0000 </r>
       <r>   12.2948    0.0000 </r>
       <r>   13.4984    0.0000 </r>
       <r>   14.0035    0.0000 </r>
       <r>   16.9731    0.0000 </r>
      </set>
      <set comment="kpoint 8">
       <r>   -5.7795    1.0000 </r>
       <r>    3.1692    1.0000 </r>
       <r>    4.6208    1.0000 </r>
       <r>    4.7832    1.0000 </r>
       <r>    7.7987    0.0000 </r>
       <r>    8.9397    0.0000 </r>
       <r>    9.5714    0.0000 </r>
       <r>   10.4870    0.0000 </r>
       <r>   12.2768    0.0000 </r>
       <r>   13.4747    0.0000 </r>
       <r>   14.9202    0.0000 </r>
       <r>   16.5602    0.0000 </r>
      </set>
      <set comment="kpoint 9">
       <r>   -5.2413    1.0000 </r>
       <r>    1.4217    1.0000 </r>
       <r>    4.3047    1.0000 </r>
       <r>    4.3490    1.0000 </r>
       <r>    7.9114    0.0000 </r>
       <r>    8.9302    0.0000 </r>
       <r>    9.8490    0.0000 </r>
       <r>   10.8419    0.0000 </r>
       <r>   13.7253    0.0000 </r>
       <r>   13.8508    0.0000 </r>
       <r>   14.9334    0.0000 </r>
       <r>   17.7039    0.0000 </r>
      </set>
      <set comment="kpoint 10">
       <r>   -4.5242    1.0000 </r>
       <r>   -0.1384    1.0000 </r>
       <r>    3.9393    1.0000 </r>
       <r>    4.1592    1.0000 </r>
       <r>    7.7571    0.0000 </r>
       <r>    8.8941    0.0000 </r>
       <r>    9.6704    0.0000 </r>
       <r>   11.8970    0.0000 </r>
       <r>   14.3669    0.0000 </r>
       <r>   15.0717    0.0000 </r>
       <r>   15.6511    0.0000 </r>
       <r>   18.4244    0.0000 </r>
      </set>
      <set comment="kpoint 11">
       <r>   -3.8892    1.0000 </r>
       <r>   -1.1668    1.0000 </r>
       <r>    3.6511    1.0000 </r>
       <r>    4.1926    1.0000 </r>
       <r>    7.6667    0.0000 </r>
       <r>    8.8629    0.0000 </r>
       <r>    9.4045    0.0000 </r>
       <r>   13.2547    0.0000 </r>
       <r>   14.3609    0.0000 </r>
       <r>   16.0302    0.0000 </r>
       <r>   16.8689    0.0000 </r>
       <r>   17.0358    0.0000 </r>
      </set>
      <set comment="kpoint 12">
       <r>   -4.0550    1.0000 </r>
       <r>   -0.9201    1.0000 </r>
       <r>    3.5239    1.0000 </r>
       <r>    4.3915    1.0000 </r>
       <r>    7.7261    0.0000 </r>
       <r>    8.9951    0.0000 </r>
       <r>    9.2499    0.0000 </r>
       <r>   13.4820    0.0000 </r>
       <r>   14.1368    0.0000 </r>
       <r>   14.7538    0.0000 </r>
       <r>   16.5980    0.0000 </r>
       <r>   17.6467    0.0000 </r>
      </set>
      <set comment="kpoint 13">
       <r>   -4.7773    1.0000 </r>
       <r>    0.3513    1.0000 </r>
       <r>    3.5838    1.0000 </r>
       <r>    4.7241    1.0000 </r>
       <r>    7.9306    0.0000 </r>
       <r>    9.1803    0.0000 </r>
       <r>    9.2476    0.0000 </r>
       <r>   12.4849    0.0000 </r>
       <r>   12.6159    0.0000 </r>
       <r>   14.7488    0.0000 </r>
       <r>   15.7919    0.0000 </r>
       <r>   18.1870    0.0000 </r>
      </set>
      <set comment="kpoint 14">
       <r>   -5.4467    1.0000 </r>
       <r>    1.9873    1.0000 </r>
       <r>    3.8584    1.0000 </r>
       <r>    5.1277    1.0000 </r>
       <r>    8.2444    0.0000 </r>
       <r>    8.9386    0.0000 </r>
       <r>    9.2608    0.0000 </r>
       <r>   11.4412    0.0000 </r>
       <r>   11.9088    0.0000 </r>
       <r>   14.1277    0.0000 </r>
       <r>   15.1481    0.0000 </r>
       <r>   16.9959    0.0000 </r>
      </set>
      <set comment="kpoint 15">
       <r>   -5.9081    1.0000 </r>
       <r>    3.5879    1.0000 </r>
       <r>    4.4673    1.0000 </r>
       <r>    5.4528    1.0000 </r>
       <r>    8.4933    0.0000 </r>
       <r>    8.5106    0.0000 </r>
       <r>    8.6647    0.0000 </r>
       <r>   10.6636    0.0000 </r>
       <r>   12.1716    0.0000 </r>
       <r>   13.1921    0.0000 </r>
       <r>   14.5750    0.0000 </r>
       <r>   16.5061    0.0000 </r>
      </set>
      <set comment="kpoint 16">
       <r>   -5.5636    1.0000 </r>
       <r>    2.9914    1.0000 </r>
       <r>    4.1477    1.0000 </r>
       <r>    4.1477    1.0000 </r>
       <r>    7.0111    0.0000 </r>
       <r>    9.3970    0.0000 </r>
       <r>   10.4470    0.0000 </r>
       <r>   10.4470    0.0000 </r>
       <r>   12.5453    0.0000 </r>
       <r>   14.0726    0.0000 </r>
       <r>   15.7266    0.0000 </r>
       <r>   17.8554    0.0000 </r>
      </set>
      <set comment="kpoint 17">
       <r>   -5.1024    1.0000 </r>
       <r>    1.7577    1.0000 </r>
       <r>    3.6356    1.0000 </r>
       <r>    3.8024    1.0000 </r>
       <r>    7.1075    0.0000 </r>
       <r>    8.9736    0.0000 </r>
       <r>   10.6880    0.0000 </r>
       <r>   11.0321    0.0000 </r>
       <r>   14.0258    0.0000 </r>
       <r>   14.5304    0.0000 </r>
       <r>   16.4546    0.0000 </r>
       <r>   17.9459    0.0000 </r>
      </set>
      <set comment="kpoint 18">
       <r>   -4.4336    1.0000 </r>
       <r>    0.3344    1.0000 </r>
       <r>    3.0052    1.0000 </r>
       <r>    3.6445    1.0000 </r>
       <r>    7.3157    0.0000 </r>
       <r>    9.6102    0.0000 </r>
       <r>   10.4514    0.0000 </r>
       <r>   10.9849    0.0000 </r>
       <r>   15.6542    0.0000 </r>
       <r>   15.8664    0.0000 </r>
       <r>   16.1443    0.0000 </r>
       <r>   18.2870    0.0000 </r>
      </set>
      <set comment="kpoint 19">
       <r>   -3.7094    1.0000 </r>
       <r>   -0.8392    1.0000 </r>
       <r>    2.4971    1.0000 </r>
       <r>    3.6887    1.0000 </r>
       <r>    7.3767    0.0000 </r>
       <r>   10.2168    0.0000 </r>
       <r>   10.6571    0.0000 </r>
       <r>   11.1589    0.0000 </r>
       <r>   15.2120    0.0000 </r>
       <r>   16.0096    0.0000 </r>
       <r>   17.4703    0.0000 </r>
       <r>   17.4912    0.0000 </r>
      </set>
      <set comment="kpoint 20">
       <r>   -3.5577    1.0000 </r>
       <r>   -1.0458    1.0000 </r>
       <r>    2.2004    1.0000 </r>
       <r>    3.9257    1.0000 </r>
       <r>    7.5914    0.0000 </r>
       <r>   10.1170    0.0000 </r>
       <r>   10.3555    0.0000 </r>
       <r>   13.0618    0.0000 </r>
       <r>   13.8322    0.0000 </r>
       <r>   13.9728    0.0000 </r>
       <r>   16.9989    0.0000 </r>
       <r>   19.5385    0.0000 </r>
      </set>
      <set comment="kpoint 21">
       <r>   -4.2056    1.0000 </r>
       <r>   -0.0675    1.0000 </r>
       <r>    2.1805    1.0000 </r>
       <r>    4.3207    1.0000 </r>
       <r>    7.9889    0.0000 </r>
       <r>   10.0854    0.0000 </r>
       <r>   10.1266    0.0000 </r>
       <r>   12.1842    0.0000 </r>
       <r>   12.3715    0.0000 </r>
       <r>   15.0104    0.0000 </r>
       <r>   17.3220    0.0000 </r>
       <r>   18.4708    0.0000 </r>
      </set>
      <set comment="kpoint 22">
       <r>   -4.9166    1.0000 </r>
       <r>    1.1598    1.0000 </r>
       <r>    2.6321    1.0000 </r>
       <r>    4.7885    1.0000 </r>
       <r>    8.4238    0.0000 </r>
       <r>    9.5522    0.0000 </r>
       <r>    9.8376    0.0000 </r>
       <r>   11.2146    0.0000 </r>
       <r>   11.6758    0.0000 </r>
       <r>   16.1057    0.0000 </r>
       <r>   16.2425    0.0000 </r>
       <r>   17.3298    0.0000 </r>
      </set>
      <set comment="kpoint 23">
       <r>   -4.7183    1.0000 </r>
       <r>    1.2158    1.0000 </r>
       <r>    3.4126    1.0000 </r>
       <r>    3.4126    1.0000 </r>
       <r>    6.4054    0.0000 </r>
       <r>    7.9416    0.0000 </r>
       <r>   12.1816    0.0000 </r>
       <r>   12.1816    0.0000 </r>
       <r>   14.5317    0.0000 </r>
       <r>   15.0273    0.0000 </r>
       <r>   17.7838    0.0000 </r>
       <r>   18.9322    0.0000 </r>
      </set>
      <set comment="kpoint 24">
       <r>   -4.1115    1.0000 </r>
       <r>    0.2209    1.0000 </r>
       <r>    2.7830    1.0000 </r>
       <r>    3.2096    1.0000 </r>
       <r>    6.5928   -0.0000 </r>
       <r>    7.7764    0.0000 </r>
       <r>   12.4606    0.0000 </r>
       <r>   12.5984    0.0000 </r>
       <r>   16.0194    0.0000 </r>
       <r>   16.1669    0.0000 </r>
       <r>   17.5622    0.0000 </r>
       <r>   18.2954    0.0000 </r>
      </set>
      <set comment="kpoint 25">
       <r>   -3.3685    1.0000 </r>
       <r>   -0.7746    1.0000 </r>
       <r>    1.9530    1.0000 </r>
       <r>    3.2165    1.0000 </r>
       <r>    6.7666    0.0000 </r>
       <r>    8.9120    0.0000 </r>
       <r>   12.2671    0.0000 </r>
       <r>   12.3495    0.0000 </r>
       <r>   15.9290    0.0000 </r>
       <r>   16.1409    0.0000 </r>
       <r>   17.7946    0.0000 </r>
       <r>   18.2645    0.0000 </r>
      </set>
      <set comment="kpoint 26">
       <r>   -2.9529    1.0000 </r>
       <r>   -1.2458    1.0000 </r>
       <r>    1.4009    1.0000 </r>
       <r>    3.4307    1.0000 </r>
       <r>    6.9981    0.0000 </r>
       <r>   10.7052    0.0000 </r>
       <r>   11.9514    0.0000 </r>
       <r>   12.1042    0.0000 </r>
       <r>   13.9883    0.0000 </r>
       <r>   14.0583    0.0000 </r>
       <r>   19.0900    0.0000 </r>
       <r>   19.9221    0.0000 </r>
      </set>
      <set comment="kpoint 27">
       <r>   -3.4862    1.0000 </r>
       <r>   -0.6617    1.0000 </r>
       <r>    1.3746    1.0000 </r>
       <r>    3.8245    1.0000 </r>
       <r>    7.4424    0.0000 </r>
       <r>   11.2878    0.0000 </r>
       <r>   11.5603    0.0000 </r>
       <r>   12.3080    0.0000 </r>
       <r>   12.6472    0.0000 </r>
       <r>   13.0504    0.0000 </r>
       <r>   19.0242    0.0000 </r>
       <r>   19.5742    0.0000 </r>
      </set>
      <set comment="kpoint 28">
       <r>   -3.5670    1.0000 </r>
       <r>   -0.5279    1.0000 </r>
       <r>    2.9517    1.0000 </r>
       <r>    2.9517    1.0000 </r>
       <r>    6.1213    0.0000 </r>
       <r>    6.8444    0.0000 </r>
       <r>   14.0120    0.0000 </r>
       <r>   14.0120    0.0000 </r>
       <r>   16.3582    0.0000 </r>
       <r>   16.6065    0.0000 </r>
       <r>   18.0743    0.0000 </r>
       <r>   18.0743    0.0000 </r>
      </set>
      <set comment="kpoint 29">
       <r>   -2.8454    1.0000 </r>
       <r>   -1.3595    1.0000 </r>
       <r>    2.3616    1.0000 </r>
       <r>    2.9036    1.0000 </r>
       <r>    6.3541   -0.0000 </r>
       <r>    7.1127    0.0000 </r>
       <r>   14.2553    0.0000 </r>
       <r>   14.3320    0.0000 </r>
       <r>   16.2878    0.0000 </r>
       <r>   16.3818    0.0000 </r>
       <r>   17.8222    0.0000 </r>
       <r>   18.2245    0.0000 </r>
      </set>
      <set comment="kpoint 30">
       <r>   -2.3738    1.0000 </r>
       <r>   -1.7755    1.0000 </r>
       <r>    1.5771    1.0000 </r>
       <r>    3.0697    1.0000 </r>
       <r>    6.5658    0.0000 </r>
       <r>    8.6854    0.0000 </r>
       <r>   13.6014    0.0000 </r>
       <r>   14.1582    0.0000 </r>
       <r>   14.1739    0.0000 </r>
       <r>   14.6079    0.0000 </r>
       <r>   19.6767    0.0000 </r>
       <r>   19.8832    0.0000 </r>
      </set>
      <set comment="kpoint 31">
       <r>   -2.1497    1.0000 </r>
       <r>   -2.1497    1.0000 </r>
       <r>    2.7955    1.0000 </r>
       <r>    2.7955    1.0000 </r>
       <r>    6.2477    0.0000 </r>
       <r>    6.2477    0.0000 </r>
       <r>   15.5545    0.0000 </r>
       <r>   15.5545    0.0000 </r>
       <r>   16.5094    0.0000 </r>
       <r>   16.5094    0.0000 </r>
       <r>   18.0585    0.0000 </r>
       <r>   18.0642    0.0000 </r>
      </set>
      <set comment="kpoint 32">
       <r>   -5.3999    1.0000 </r>
       <r>    2.2517    1.0000 </r>
       <r>    3.5504    1.0000 </r>
       <r>    4.6593    1.0000 </r>
       <r>    7.9008    0.0000 </r>
       <r>    9.2522    0.0000 </r>
       <r>   10.1311    0.0000 </r>
       <r>   10.2142    0.0000 </r>
       <r>   12.7454    0.0000 </r>
       <r>   14.3416    0.0000 </r>
       <r>   15.8668    0.0000 </r>
       <r>   17.0503    0.0000 </r>
      </set>
      <set comment="kpoint 33">
       <r>   -4.7944    1.0000 </r>
       <r>    0.8552    1.0000 </r>
       <r>    2.9618    1.0000 </r>
       <r>    4.2865    1.0000 </r>
       <r>    8.2420    0.0000 </r>
       <r>    9.1491    0.0000 </r>
       <r>   10.2351    0.0000 </r>
       <r>   10.6658    0.0000 </r>
       <r>   13.3926    0.0000 </r>
       <r>   15.8118    0.0000 </r>
       <r>   16.1599    0.0000 </r>
       <r>   17.8653    0.0000 </r>
      </set>
      <set comment="kpoint 34">
       <r>   -4.0546    1.0000 </r>
       <r>   -0.4955    1.0000 </r>
       <r>    2.7299    1.0000 </r>
       <r>    3.9392    1.0000 </r>
       <r>    8.2854    0.0000 </r>
       <r>    8.8259    0.0000 </r>
       <r>   10.5977    0.0000 </r>
       <r>   11.5678    0.0000 </r>
       <r>   14.6684    0.0000 </r>
       <r>   15.0278    0.0000 </r>
       <r>   16.8754    0.0000 </r>
       <r>   18.1129    0.0000 </r>
      </set>
      <set comment="kpoint 35">
       <r>   -3.5997    1.0000 </r>
       <r>   -1.1672    1.0000 </r>
       <r>    2.6697    1.0000 </r>
       <r>    3.8028    1.0000 </r>
       <r>    8.3082    0.0000 </r>
       <r>    8.6450    0.0000 </r>
       <r>   10.5579    0.0000 </r>
       <r>   13.2921    0.0000 </r>
       <r>   13.3352    0.0000 </r>
       <r>   15.5981    0.0000 </r>
       <r>   17.0128    0.0000 </r>
       <r>   17.4616    0.0000 </r>
      </set>
      <set comment="kpoint 36">
       <r>   -4.5700    1.0000 </r>
       <r>    0.8646    1.0000 </r>
       <r>    2.8287    1.0000 </r>
       <r>    3.5519    1.0000 </r>
       <r>    7.3246    0.0000 </r>
       <r>    8.5854    0.0000 </r>
       <r>   10.7321    0.0000 </r>
       <r>   12.0697    0.0000 </r>
       <r>   14.4175    0.0000 </r>
       <r>   16.2270    0.0000 </r>
       <r>   16.9675    0.0000 </r>
       <r>   18.2386    0.0000 </r>
      </set>
      <set comment="kpoint 37">
       <r>   -3.8567    1.0000 </r>
       <r>   -0.2259    1.0000 </r>
       <r>    2.2097    1.0000 </r>
       <r>    3.2242    1.0000 </r>
       <r>    7.7001    0.0000 </r>
       <r>    9.2861    0.0000 </r>
       <r>   10.3497    0.0000 </r>
       <r>   12.4562    0.0000 </r>
       <r>   15.4851    0.0000 </r>
       <r>   15.4968    0.0000 </r>
       <r>   17.9276    0.0000 </r>
       <r>   18.3601    0.0000 </r>
      </set>
      <set comment="kpoint 38">
       <r>   -3.2127    1.0000 </r>
       <r>   -1.0804    1.0000 </r>
       <r>    1.8019    1.0000 </r>
       <r>    3.1688    1.0000 </r>
       <r>    7.8792    0.0000 </r>
       <r>    9.8976    0.0000 </r>
       <r>   11.0264    0.0000 </r>
       <r>   12.3823    0.0000 </r>
       <r>   13.4387    0.0000 </r>
       <r>   16.3445    0.0000 </r>
       <r>   17.4374    0.0000 </r>
       <r>   18.4511    0.0000 </r>
      </set>
      <set comment="kpoint 39">
       <r>   -3.4122    1.0000 </r>
       <r>   -0.8234    1.0000 </r>
       <r>    1.6523    1.0000 </r>
       <r>    3.4073    1.0000 </r>
       <r>    8.2205    0.0000 </r>
       <r>    9.6438    0.0000 </r>
       <r>   11.4584    0.0000 </r>
       <r>   12.2519    0.0000 </r>
       <r>   13.1072    0.0000 </r>
       <r>   14.6627    0.0000 </r>
       <r>   18.1748    0.0000 </r>
       <r>   19.5118    0.0000 </r>
      </set>
      <set comment="kpoint 40">
       <r>   -4.1407    1.0000 </r>
       <r>    0.1169    1.0000 </r>
       <r>    1.9517    1.0000 </r>
       <r>    3.8454    1.0000 </r>
       <r>    8.7162    0.0000 </r>
       <r>    9.2004    0.0000 </r>
       <r>   10.2305    0.0000 </r>
       <r>   11.7848    0.0000 </r>
       <r>   13.4521    0.0000 </r>
       <r>   15.1952    0.0000 </r>
       <r>   18.1944    0.0000 </r>
       <r>   18.6310    0.0000 </r>
      </set>
      <set comment="kpoint 41">
       <r>   -3.4498    1.0000 </r>
       <r>   -0.6123    1.0000 </r>
       <r>    2.4217    1.0000 </r>
       <r>    2.7495    1.0000 </r>
       <r>    7.0286   -0.0000 </r>
       <r>    7.6087    0.0000 </r>
       <r>   12.2657    0.0000 </r>
       <r>   13.9982    0.0000 </r>
       <r>   15.9190    0.0000 </r>
       <r>   16.2574    0.0000 </r>
       <r>   18.0321    0.0000 </r>
       <r>   18.5232    0.0000 </r>
      </set>
      <set comment="kpoint 42">
       <r>   -2.7186    1.0000 </r>
       <r>   -1.3788    1.0000 </r>
       <r>    1.7196    1.0000 </r>
       <r>    2.6579    1.0000 </r>
       <r>    7.3751    0.0000 </r>
       <r>    8.8147    0.0000 </r>
       <r>   11.8623    0.0000 </r>
       <r>   13.6246    0.0000 </r>
       <r>   14.4227    0.0000 </r>
       <r>   16.4980    0.0000 </r>
       <r>   17.8258    0.0000 </r>
       <r>   19.8322    0.0000 </r>
      </set>
      <set comment="kpoint 43">
       <r>   -2.7238    1.0000 </r>
       <r>   -1.3523    1.0000 </r>
       <r>    1.3043    1.0000 </r>
       <r>    2.9260    1.0000 </r>
       <r>    7.7019    0.0000 </r>
       <r>   10.6356    0.0000 </r>
       <r>   11.4688    0.0000 </r>
       <r>   11.7861    0.0000 </r>
       <r>   13.9055    0.0000 </r>
       <r>   14.9860    0.0000 </r>
       <r>   19.3074    0.0000 </r>
       <r>   20.3397    0.0000 </r>
      </set>
      <set comment="kpoint 44">
       <r>   -2.0970    1.0000 </r>
       <r>   -2.0970    1.0000 </r>
       <r>    2.3809    1.0000 </r>
       <r>    2.3809    1.0000 </r>
       <r>    7.1028    0.0000 </r>
       <r>    7.1028    0.0000 </r>
       <r>   13.9814    0.0000 </r>
       <r>   13.9814    0.0000 </r>
       <r>   16.0750    0.0000 </r>
       <r>   16.0750    0.0000 </r>
       <r>   18.2844    0.0000 </r>
       <r>   18.2844    0.0000 </r>
      </set>
      <set comment="kpoint 45">
       <r>   -3.1318    1.0000 </r>
       <r>   -0.9067    1.0000 </r>
       <r>    1.6601    1.0000 </r>
       <r>    2.6456    1.0000 </r>
       <r>    8.9318    0.0000 </r>
       <r>    9.3021    0.0000 </r>
       <r>    9.9536    0.0000 </r>
       <r>   13.2814    0.0000 </r>
       <r>   13.9613    0.0000 </r>
       <r>   15.6855    0.0000 </r>
       <r>   18.7499    0.0000 </r>
       <r>   19.8185    0.0000 </r>
      </set>
      <set comment="kpoint 46">
       <r>   -2.6256    1.0000 </r>
       <r>   -1.4108    1.0000 </r>
       <r>    1.5030    1.0000 </r>
       <r>    2.3951    1.0000 </r>
       <r>    9.2058    0.0000 </r>
       <r>    9.5160    0.0000 </r>
       <r>   10.9172    0.0000 </r>
       <r>   11.3501    0.0000 </r>
       <r>   14.4017    0.0000 </r>
       <r>   16.6622    0.0000 </r>
       <r>   17.6852    0.0000 </r>
       <r>   19.7953    0.0000 </r>
      </set>
      <set comment="kpoint 47">
       <r>   -2.0039    1.0000 </r>
       <r>   -2.0039    1.0000 </r>
       <r>    1.8651    1.0000 </r>
       <r>    1.8651    1.0000 </r>
       <r>    8.9642    0.0000 </r>
       <r>    8.9642    0.0000 </r>
       <r>   11.4376    0.0000 </r>
       <r>   11.4376    0.0000 </r>
       <r>   16.0612    0.0000 </r>
       <r>   16.0612    0.0000 </r>
       <r>   18.4502    0.0000 </r>
       <r>   18.4502    0.0000 </r>
      </set>
     </set>
     <set comment="spin 2">
      <set comment="kpoint 1">
       <r>   -6.2521    1.0000 </r>
       <r>    5.6274    1.0000 </r>
       <r>    5.6274    1.0000 </r>
       <r>    5.6274    1.0000 </r>
       <r>    8.1387    0.0000 </r>
       <r>    8.1387    0.0000 </r>
       <r>    8.1387    0.0000 </r>
       <r>    8.7683    0.0000 </r>
       <r>   13.2706    0.0000 </r>
       <r>   13.3075    0.0000 </r>
       <r>   13.3075    0.0000 </r>
       <r>   16.6703    0.0000 </r>
      </set>
      <set comment="kpoint 2">
       <r>   -6.1225    1.0000 </r>
       <r>    4.4725    1.0000 </r>
       <r>    5.4297    1.0000 </r>
       <r>    5.4297    1.0000 </r>
       <r>    8.1076    0.0000 </r>
       <r>    8.4289    0.0000 </r>
       <r>    8.4289    0.0000 </r>
       <r>    9.7299    0.0000 </r>
       <r>   12.9382    0.0000 </r>
       <r>   12.9382    0.0000 </r>
       <r>   13.8169    0.0000 </r>
       <r>   16.2285    0.0000 </r>
      </set>
      <set comment="kpoint 3">
       <r>   -5.7398    1.0000 </r>
       <r>    2.6169    1.0000 </r>
       <r>    5.0513    1.0000 </r>
       <r>    5.0513    1.0000 </r>
       <r>    7.7294    0.0000 </r>
       <r>    8.9322    0.0000 </r>
       <r>    8.9322    0.0000 </r>
       <r>   11.4873    0.0000 </r>
       <r>   12.6120    0.0000 </r>
       <r>   12.6120    0.0000 </r>
       <r>   14.5022    0.0000 </r>
       <r>   16.3197    0.0000 </r>
      </set>
      <set comment="kpoint 4">
       <r>   -5.1304    1.0000 </r>
       <r>    0.8439    1.0000 </r>
       <r>    4.7193    1.0000 </r>
       <r>    4.7193    1.0000 </r>
       <r>    7.3605    0.0000 </r>
       <r>    9.1005    0.0000 </r>
       <r>    9.1005    0.0000 </r>
       <r>   13.0527    0.0000 </r>
       <r>   13.1446    0.0000 </r>
       <r>   13.1446    0.0000 </r>
       <r>   14.2750    0.0000 </r>
       <r>   18.2636    0.0000 </r>
      </set>
      <set comment="kpoint 5">
       <r>   -4.3905    1.0000 </r>
       <r>   -0.6197    1.0000 </r>
       <r>    4.5091    1.0000 </r>
       <r>    4.5091    1.0000 </r>
       <r>    7.1187    0.0000 </r>
       <r>    8.9834    0.0000 </r>
       <r>    8.9834    0.0000 </r>
       <r>   13.2349    0.0000 </r>
       <r>   14.5211    0.0000 </r>
       <r>   14.5211    0.0000 </r>
       <r>   15.4613    0.0000 </r>
       <r>   18.6785    0.0000 </r>
      </set>
      <set comment="kpoint 6">
       <r>   -3.9430    1.0000 </r>
       <r>   -1.3118    1.0000 </r>
       <r>    4.4382    1.0000 </r>
       <r>    4.4382    1.0000 </r>
       <r>    7.0360    0.0000 </r>
       <r>    8.9079    0.0000 </r>
       <r>    8.9079    0.0000 </r>
       <r>   13.1188    0.0000 </r>
       <r>   16.0962    0.0000 </r>
       <r>   16.0962    0.0000 </r>
       <r>   16.7143    0.0000 </r>
       <r>   16.8101    0.0000 </r>
      </set>
      <set comment="kpoint 7">
       <r>   -6.0790    1.0000 </r>
       <r>    4.6718    1.0000 </r>
       <r>    5.0528    1.0000 </r>
       <r>    5.0528    1.0000 </r>
       <r>    7.7474    0.0000 </r>
       <r>    8.9242    0.0000 </r>
       <r>    8.9242    0.0000 </r>
       <r>    9.6183    0.0000 </r>
       <r>   12.2956    0.0000 </r>
       <r>   13.4992    0.0000 </r>
       <r>   14.0019    0.0000 </r>
       <r>   16.9741    0.0000 </r>
      </set>
      <set comment="kpoint 8">
       <r>   -5.7795    1.0000 </r>
       <r>    3.1690    1.0000 </r>
       <r>    4.6207    1.0000 </r>
       <r>    4.7830    1.0000 </r>
       <r>    7.7989    0.0000 </r>
       <r>    8.9399    0.0000 </r>
       <r>    9.5717    0.0000 </r>
       <r>   10.4869    0.0000 </r>
       <r>   12.2772    0.0000 </r>
       <r>   13.4755    0.0000 </r>
       <r>   14.9188    0.0000 </r>
       <r>   16.5600    0.0000 </r>
      </set>
      <set comment="kpoint 9">
       <r>   -5.2412    1.0000 </r>
       <r>    1.4216    1.0000 </r>
       <r>    4.3047    1.0000 </r>
       <r>    4.3489    1.0000 </r>
       <r>    7.9113    0.0000 </r>
       <r>    8.9306    0.0000 </r>
       <r>    9.8494    0.0000 </r>
       <r>   10.8421    0.0000 </r>
       <r>   13.7252    0.0000 </r>
       <r>   13.8515    0.0000 </r>
       <r>   14.9326    0.0000 </r>
       <r>   17.7028    0.0000 </r>
      </set>
      <set comment="kpoint 10">
       <r>   -4.5242    1.0000 </r>
       <r>   -0.1384    1.0000 </r>
       <r>    3.9392    1.0000 </r>
       <r>    4.1592    1.0000 </r>
       <r>    7.7570    0.0000 </r>
       <r>    8.8946    0.0000 </r>
       <r>    9.6709    0.0000 </r>
       <r>   11.8970    0.0000 </r>
       <r>   14.3663    0.0000 </r>
       <r>   15.0722    0.0000 </r>
       <r>   15.6505    0.0000 </r>
       <r>   18.4409    0.0000 </r>
      </set>
      <set comment="kpoint 11">
       <r>   -3.8893    1.0000 </r>
       <r>   -1.1667    1.0000 </r>
       <r>    3.6510    1.0000 </r>
       <r>    4.1926    1.0000 </r>
       <r>    7.6667    0.0000 </r>
       <r>    8.8633    0.0000 </r>
       <r>    9.4051    0.0000 </r>
       <r>   13.2543    0.0000 </r>
       <r>   14.3605    0.0000 </r>
       <r>   16.0305    0.0000 </r>
       <r>   16.8683    0.0000 </r>
       <r>   17.0361    0.0000 </r>
      </set>
      <set comment="kpoint 12">
       <r>   -4.0551    1.0000 </r>
       <r>   -0.9200    1.0000 </r>
       <r>    3.5239    1.0000 </r>
       <r>    4.3914    1.0000 </r>
       <r>    7.7261    0.0000 </r>
       <r>    8.9955    0.0000 </r>
       <r>    9.2506    0.0000 </r>
       <r>   13.4812    0.0000 </r>
       <r>   14.1373    0.0000 </r>
       <r>   14.7533    0.0000 </r>
       <r>   16.5983    0.0000 </r>
       <r>   17.6464    0.0000 </r>
      </set>
      <set comment="kpoint 13">
       <r>   -4.7773    1.0000 </r>
       <r>    0.3513    1.0000 </r>
       <r>    3.5838    1.0000 </r>
       <r>    4.7239    1.0000 </r>
       <r>    7.9306    0.0000 </r>
       <r>    9.1809    0.0000 </r>
       <r>    9.2479    0.0000 </r>
       <r>   12.4845    0.0000 </r>
       <r>   12.6166    0.0000 </r>
       <r>   14.7482    0.0000 </r>
       <r>   15.7919    0.0000 </r>
       <r>   18.1866    0.0000 </r>
      </set>
      <set comment="kpoint 14">
       <r>   -5.4466    1.0000 </r>
       <r>    1.9873    1.0000 </r>
       <r>    3.8584    1.0000 </r>
       <r>    5.1274    1.0000 </r>
       <r>    8.2444    0.0000 </r>
       <r>    8.9392    0.0000 </r>
       <r>    9.2610    0.0000 </r>
       <r>   11.4409    0.0000 </r>
       <r>   11.9096    0.0000 </r>
       <r>   14.1279    0.0000 </r>
       <r>   15.1474    0.0000 </r>
       <r>   16.9950    0.0000 </r>
      </set>
      <set comment="kpoint 15">
       <r>   -5.9080    1.0000 </r>
       <r>    3.5877    1.0000 </r>
       <r>    4.4673    1.0000 </r>
       <r>    5.4525    1.0000 </r>
       <r>    8.4939    0.0000 </r>
       <r>    8.5109    0.0000 </r>
       <r>    8.6647    0.0000 </r>
       <r>   10.6633    0.0000 </r>
       <r>   12.1724    0.0000 </r>
       <r>   13.1928    0.0000 </r>
       <r>   14.5736    0.0000 </r>
       <r>   16.5060    0.0000 </r>
      </set>
      <set comment="kpoint 16">
       <r>   -5.5636    1.0000 </r>
       <r>    2.9911    1.0000 </r>
       <r>    4.1478    1.0000 </r>
       <r>    4.1478    1.0000 </r>
       <r>    7.0113    0.0000 </r>
       <r>    9.3972    0.0000 </r>
       <r>   10.4472    0.0000 </r>
       <r>   10.4472    0.0000 </r>
       <r>   12.5453    0.0000 </r>
       <r>   14.0734    0.0000 </r>
       <r>   15.7252    0.0000 </r>
       <r>   17.8564    0.0000 </r>
      </set>
      <set comment="kpoint 17">
       <r>   -5.1024    1.0000 </r>
       <r>    1.7575    1.0000 </r>
       <r>    3.6356    1.0000 </r>
       <r>    3.8025    1.0000 </r>
       <r>    7.1076    0.0000 </r>
       <r>    8.9738    0.0000 </r>
       <r>   10.6881    0.0000 </r>
       <r>   11.0323    0.0000 </r>
       <r>   14.0257    0.0000 </r>
       <r>   14.5311    0.0000 </r>
       <r>   16.4537    0.0000 </r>
       <r>   17.9451    0.0000 </r>
      </set>
      <set comment="kpoint 18">
       <r>   -4.4337    1.0000 </r>
       <r>    0.3344    1.0000 </r>
       <r>    3.0053    1.0000 </r>
       <r>    3.6446    1.0000 </r>
       <r>    7.3159    0.0000 </r>
       <r>    9.6104    0.0000 </r>
       <r>   10.4514    0.0000 </r>
       <r>   10.9853    0.0000 </r>
       <r>   15.6547    0.0000 </r>
       <r>   15.8663    0.0000 </r>
       <r>   16.1435    0.0000 </r>
       <r>   18.2881    0.0000 </r>
      </set>
      <set comment="kpoint 19">
       <r>   -3.7094    1.0000 </r>
       <r>   -0.8392    1.0000 </r>
       <r>    2.4972    1.0000 </r>
       <r>    3.6888    1.0000 </r>
       <r>    7.3769    0.0000 </r>
       <r>   10.2166    0.0000 </r>
       <r>   10.6576    0.0000 </r>
       <r>   11.1590    0.0000 </r>
       <r>   15.2114    0.0000 </r>
       <r>   16.0099    0.0000 </r>
       <r>   17.4707    0.0000 </r>
       <r>   17.4886    0.0000 </r>
      </set>
      <set comment="kpoint 20">
       <r>   -3.5578    1.0000 </r>
       <r>   -1.0458    1.0000 </r>
       <r>    2.2005    1.0000 </r>
       <r>    3.9258    1.0000 </r>
       <r>    7.5916    0.0000 </r>
       <r>   10.1167    0.0000 </r>
       <r>   10.3561    0.0000 </r>
       <r>   13.0617    0.0000 </r>
       <r>   13.8318    0.0000 </r>
       <r>   13.9733    0.0000 </r>
       <r>   16.9986    0.0000 </r>
       <r>   19.5629    0.0000 </r>
      </set>
      <set comment="kpoint 21">
       <r>   -4.2056    1.0000 </r>
       <r>   -0.0675    1.0000 </r>
       <r>    2.1806    1.0000 </r>
       <r>    4.3207    1.0000 </r>
       <r>    7.9891    0.0000 </r>
       <r>   10.0860    0.0000 </r>
       <r>   10.1262    0.0000 </r>
       <r>   12.1839    0.0000 </r>
       <r>   12.3721    0.0000 </r>
       <r>   15.0101    0.0000 </r>
       <r>   17.3217    0.0000 </r>
       <r>   18.4708    0.0000 </r>
      </set>
      <set comment="kpoint 22">
       <r>   -4.9166    1.0000 </r>
       <r>    1.1597    1.0000 </r>
       <r>    2.6323    1.0000 </r>
       <r>    4.7883    1.0000 </r>
       <r>    8.4241    0.0000 </r>
       <r>    9.5528    0.0000 </r>
       <r>    9.8371    0.0000 </r>
       <r>   11.2145    0.0000 </r>
       <r>   11.6765    0.0000 </r>
       <r>   16.1050    0.0000 </r>
       <r>   16.2425    0.0000 </r>
       <r>   17.3291    0.0000 </r>
      </set>
      <set comment="kpoint 23">
       <r>   -4.7183    1.0000 </r>
       <r>    1.2156    1.0000 </r>
       <r>    3.4127    1.0000 </r>
       <r>    3.4127    1.0000 </r>
       <r>    6.4055    0.0000 </r>
       <r>    7.9418    0.0000 </r>
       <r>   12.1817    0.0000 </r>
       <r>   12.1817    0.0000 </r>
       <r>   14.5314    0.0000 </r>
       <r>   15.0280    0.0000 </r>
       <r>   17.7823    0.0000 </r>
       <r>   18.9327    0.0000 </r>
      </set>
      <set comment="kpoint 24">
       <r>   -4.1115    1.0000 </r>
       <r>    0.2207    1.0000 </r>
       <r>    2.7832    1.0000 </r>
       <r>    3.2098    1.0000 </r>
       <r>    6.5929   -0.0000 </r>
       <r>    7.7766    0.0000 </r>
       <r>   12.4606    0.0000 </r>
       <r>   12.5985    0.0000 </r>
       <r>   16.0199    0.0000 </r>
       <r>   16.1667    0.0000 </r>
       <r>   17.5615    0.0000 </r>
       <r>   18.2955    0.0000 </r>
      </set>
      <set comment="kpoint 25">
       <r>   -3.3685    1.0000 </r>
       <r>   -0.7747    1.0000 </r>
       <r>    1.9532    1.0000 </r>
       <r>    3.2167    1.0000 </r>
       <r>    6.7667    0.0000 </r>
       <r>    8.9120    0.0000 </r>
       <r>   12.2670    0.0000 </r>
       <r>   12.3499    0.0000 </r>
       <r>   15.9286    0.0000 </r>
       <r>   16.1412    0.0000 </r>
       <r>   17.7950    0.0000 </r>
       <r>   18.2641    0.0000 </r>
      </set>
      <set comment="kpoint 26">
       <r>   -2.9530    1.0000 </r>
       <r>   -1.2458    1.0000 </r>
       <r>    1.4011    1.0000 </r>
       <r>    3.4308    1.0000 </r>
       <r>    6.9983    0.0000 </r>
       <r>   10.7050    0.0000 </r>
       <r>   11.9518    0.0000 </r>
       <r>   12.1041    0.0000 </r>
       <r>   13.9880    0.0000 </r>
       <r>   14.0587    0.0000 </r>
       <r>   19.0895    0.0000 </r>
       <r>   20.0517    0.0000 </r>
      </set>
      <set comment="kpoint 27">
       <r>   -3.4862    1.0000 </r>
       <r>   -0.6618    1.0000 </r>
       <r>    1.3748    1.0000 </r>
       <r>    3.8246    1.0000 </r>
       <r>    7.4427    0.0000 </r>
       <r>   11.2883    0.0000 </r>
       <r>   11.5596    0.0000 </r>
       <r>   12.3078    0.0000 </r>
       <r>   12.6477    0.0000 </r>
       <r>   13.0506    0.0000 </r>
       <r>   19.0232    0.0000 </r>
       <r>   19.5743    0.0000 </r>
      </set>
      <set comment="kpoint 28">
       <r>   -3.5671    1.0000 </r>
       <r>   -0.5281    1.0000 </r>
       <r>    2.9519    1.0000 </r>
       <r>    2.9519    1.0000 </r>
       <r>    6.1214    0.0000 </r>
       <r>    6.8446    0.0000 </r>
       <r>   14.0120    0.0000 </r>
       <r>   14.0120    0.0000 </r>
       <r>   16.3589    0.0000 </r>
       <r>   16.6061    0.0000 </r>
       <r>   18.0742    0.0000 </r>
       <r>   18.0742    0.0000 </r>
      </set>
      <set comment="kpoint 29">
       <r>   -2.8454    1.0000 </r>
       <r>   -1.3596    1.0000 </r>
       <r>    2.3618    1.0000 </r>
       <r>    2.9038    1.0000 </r>
       <r>    6.3542   -0.0000 </r>
       <r>    7.1128    0.0000 </r>
       <r>   14.2555    0.0000 </r>
       <r>   14.3319    0.0000 </r>
       <r>   16.2875    0.0000 </r>
       <r>   16.3819    0.0000 </r>
       <r>   17.8227    0.0000 </r>
       <r>   18.2239    0.0000 </r>
      </set>
      <set comment="kpoint 30">
       <r>   -2.3739    1.0000 </r>
       <r>   -1.7756    1.0000 </r>
       <r>    1.5774    1.0000 </r>
       <r>    3.0699    1.0000 </r>
       <r>    6.5659    0.0000 </r>
       <r>    8.6854    0.0000 </r>
       <r>   13.6018    0.0000 </r>
       <r>   14.1578    0.0000 </r>
       <r>   14.1738    0.0000 </r>
       <r>   14.6082    0.0000 </r>
       <r>   19.6744    0.0000 </r>
       <r>   19.8800    0.0000 </r>
      </set>
      <set comment="kpoint 31">
       <r>   -2.1498    1.0000 </r>
       <r>   -2.1498    1.0000 </r>
       <r>    2.7957    1.0000 </r>
       <r>    2.7957    1.0000 </r>
       <r>    6.2478    0.0000 </r>
       <r>    6.2478    0.0000 </r>
       <r>   15.5547    0.0000 </r>
       <r>   15.5547    0.0000 </r>
       <r>   16.5092    0.0000 </r>
       <r>   16.5092    0.0000 </r>
       <r>   18.0594    0.0000 </r>
       <r>   18.0606    0.0000 </r>
      </set>
      <set comment="kpoint 32">
       <r>   -5.3999    1.0000 </r>
       <r>    2.2515    1.0000 </r>
       <r>    3.5504    1.0000 </r>
       <r>    4.6592    1.0000 </r>
       <r>    7.9010    0.0000 </r>
       <r>    9.2524    0.0000 </r>
       <r>   10.1314    0.0000 </r>
       <r>   10.2143    0.0000 </r>
       <r>   12.7458    0.0000 </r>
       <r>   14.3419    0.0000 </r>
       <r>   15.8657    0.0000 </r>
       <r>   17.0498    0.0000 </r>
      </set>
      <set comment="kpoint 33">
       <r>   -4.7944    1.0000 </r>
       <r>    0.8552    1.0000 </r>
       <r>    2.9619    1.0000 </r>
       <r>    4.2865    1.0000 </r>
       <r>    8.2421    0.0000 </r>
       <r>    9.1494    0.0000 </r>
       <r>   10.2353    0.0000 </r>
       <r>   10.6659    0.0000 </r>
       <r>   13.3929    0.0000 </r>
       <r>   15.8111    0.0000 </r>
       <r>   16.1600    0.0000 </r>
       <r>   17.8646    0.0000 </r>
      </set>
      <set comment="kpoint 34">
       <r>   -4.0547    1.0000 </r>
       <r>   -0.4955    1.0000 </r>
       <r>    2.7299    1.0000 </r>
       <r>    3.9393    1.0000 </r>
       <r>    8.2855    0.0000 </r>
       <r>    8.8262    0.0000 </r>
       <r>   10.5980    0.0000 </r>
       <r>   11.5678    0.0000 </r>
       <r>   14.6684    0.0000 </r>
       <r>   15.0274    0.0000 </r>
       <r>   16.8754    0.0000 </r>
       <r>   18.1127    0.0000 </r>
      </set>
      <set comment="kpoint 35">
       <r>   -3.5998    1.0000 </r>
       <r>   -1.1672    1.0000 </r>
       <r>    2.6697    1.0000 </r>
       <r>    3.8028    1.0000 </r>
       <r>    8.3083    0.0000 </r>
       <r>    8.6453    0.0000 </r>
       <r>   10.5582    0.0000 </r>
       <r>   13.2918    0.0000 </r>
       <r>   13.3351    0.0000 </r>
       <r>   15.5979    0.0000 </r>
       <r>   17.0127    0.0000 </r>
       <r>   17.4616    0.0000 </r>
      </set>
      <set comment="kpoint 36">
       <r>   -4.5700    1.0000 </r>
       <r>    0.8645    1.0000 </r>
       <r>    2.8289    1.0000 </r>
       <r>    3.5520    1.0000 </r>
       <r>    7.3247    0.0000 </r>
       <r>    8.5856    0.0000 </r>
       <r>   10.7322    0.0000 </r>
       <r>   12.0697    0.0000 </r>
       <r>   14.4178    0.0000 </r>
       <r>   16.2271    0.0000 </r>
       <r>   16.9667    0.0000 </r>
       <r>   18.2381    0.0000 </r>
      </set>
      <set comment="kpoint 37">
       <r>   -3.8568    1.0000 </r>
       <r>   -0.2260    1.0000 </r>
       <r>    2.2099    1.0000 </r>
       <r>    3.2243    1.0000 </r>
       <r>    7.7002    0.0000 </r>
       <r>    9.2861    0.0000 </r>
       <r>   10.3499    0.0000 </r>
       <r>   12.4563    0.0000 </r>
       <r>   15.4851    0.0000 </r>
       <r>   15.4968    0.0000 </r>
       <r>   17.9272    0.0000 </r>
       <r>   18.3601    0.0000 </r>
      </set>
      <set comment="kpoint 38">
       <r>   -3.2127    1.0000 </r>
       <r>   -1.0804    1.0000 </r>
       <r>    1.8021    1.0000 </r>
       <r>    3.1690    1.0000 </r>
       <r>    7.8793    0.0000 </r>
       <r>    9.8976    0.0000 </r>
       <r>   11.0265    0.0000 </r>
       <r>   12.3825    0.0000 </r>
       <r>   13.4387    0.0000 </r>
       <r>   16.3445    0.0000 </r>
       <r>   17.4375    0.0000 </r>
       <r>   18.4506    0.0000 </r>
      </set>
      <set comment="kpoint 39">
       <r>   -3.4123    1.0000 </r>
       <r>   -0.8235    1.0000 </r>
       <r>    1.6524    1.0000 </r>
       <r>    3.4074    1.0000 </r>
       <r>    8.2206    0.0000 </r>
       <r>    9.6438    0.0000 </r>
       <r>   11.4585    0.0000 </r>
       <r>   12.2518    0.0000 </r>
       <r>   13.1073    0.0000 </r>
       <r>   14.6628    0.0000 </r>
       <r>   18.1744    0.0000 </r>
       <r>   19.5115    0.0000 </r>
      </set>
      <set comment="kpoint 40">
       <r>   -4.1408    1.0000 </r>
       <r>    0.1168    1.0000 </r>
       <r>    1.9518    1.0000 </r>
       <r>    3.8454    1.0000 </r>
       <r>    8.7164    0.0000 </r>
       <r>    9.2005    0.0000 </r>
       <r>   10.2307    0.0000 </r>
[...]
        <r>  0.0126  0.0414  0.0182  0.0413  0.0000  0.0000  0.0000  0.0000  0.0000 </r>
       </set>
      </set>
      <set comment="kpoint 41">
       <set comment="band 1">
        <r>  0.2016  0.0006  0.0273  0.0011  0.0000  0.0000  0.0000  0.0000  0.0000 </r>
        <r>  0.2016  0.0006  0.0273  0.0011  0.0000  0.0000  0.0000  0.0000  0.0000 </r>
       </set>
       <set comment="band 2">
        <r>  0.1869  0.0009  0.0532  0.0074  0.0000  0.0000  0.0000  0.0000  0.0000 </r>
        <r>  0.1869  0.0009  0.0532  0.0074  0.0000  0.0000  0.0000  0.0000  0.0000 </r>
       </set>
       <set comment="band 3">
        <r>  0.0068  0.0703  0.0113  0.0895  0.0000  0.0000  0.0000  0.0000  0.0000 </r>
        <r>  0.0068  0.0703  0.0113  0.0895  0.0000  0.0000  0.0000  0.0000  0.0000 </r>
       </set>
       <set comment="band 4">
        <r>  0.0000  0.0948  0.0172  0.0694  0.0000  0.0000  0.0000  0.0000  0.0000 </r>
        <r>  0.0000  0.0948  0.0172  0.0694  0.0000  0.0000  0.0000  0.0000  0.0000 </r>
       </set>
       <set comment="band 5">
        <r>  0.0420  0.0195  0.0364  0.0164  0.0000  0.0000  0.0000  0.0000  0.0000 </r>
        <r>  0.0420  0.0195  0.0364  0.0164  0.0000  0.0000  0.0000  0.0000  0.0000 </r>
       </set>
       <set comment="band 6">
        <r>  0.0414  0.0168  0.0233  0.0088  0.0000  0.0000  0.0000  0.0000  0.0000 </r>
        <r>  0.0414  0.0168  0.0233  0.0088  0.0000  0.0000  0.0000  0.0000  0.0000 </r>
       </set>
       <set comment="band 7">
        <r>  0.0262  0.0660  0.0207  0.0400  0.0000  0.0000  0.0000  0.0000  0.0000 </r>
        <r>  0.0262  0.0660  0.0207  0.0400  0.0000  0.0000  0.0000  0.0000  0.0000 </r>
       </set>
       <set comment="band 8">
        <r>  0.0015  0.0599  0.0037  0.1045  0.0000  0.0000  0.0000  0.0000  0.0000 </r>
        <r>  0.0015  0.0599  0.0037  0.1045  0.0000  0.0000  0.0000  0.0000  0.0000 </r>
       </set>
       <set comment="band 9">
        <r>  0.0072  0.0368  0.0512  0.0134  0.0000  0.0000  0.0000  0.0000  0.0000 </r>
        <r>  0.0072  0.0368  0.0512  0.0134  0.0000  0.0000  0.0000  0.0000  0.0000 </r>
       </set>
       <set comment="band 10">
        <r>  0.0398  0.0037  0.0715  0.0001  0.0000  0.0000  0.0000  0.0000  0.0000 </r>
        <r>  0.0398  0.0037  0.0713  0.0001  0.0000  0.0000  0.0000  0.0000  0.0000 </r>
       </set>
       <set comment="band 11">
        <r>  0.0075  0.0536  0.0295  0.0713  0.0000  0.0000  0.0000  0.0000  0.0000 </r>
        <r>  0.0075  0.0536  0.0296  0.0713  0.0000  0.0000  0.0000  0.0000  0.0000 </r>
       </set>
       <set comment="band 12">
        <r>  0.0347  0.0013  0.0453  0.0041  0.0000  0.0000  0.0000  0.0000  0.0000 </r>
        <r>  0.0347  0.0012  0.0472  0.0042  0.0000  0.0000  0.0000  0.0000  0.0000 </r>
       </set>
      </set>
      <set comment="kpoint 42">
       <set comment="band 1">
        <r>  0.2053  0.0009  0.0286  0.0045  0.0000  0.0000  0.0000  0.0000  0.0000 </r>
        <r>  0.2053  0.0009  0.0286  0.0045  0.0000  0.0000  0.0000  0.0000  0.0000 </r>
       </set>
       <set comment="band 2">
        <r>  0.1915  0.0022  0.0395  0.0109  0.0000  0.0000  0.0000  0.0000  0.0000 </r>
        <r>  0.1915  0.0022  0.0395  0.0109  0.0000  0.0000  0.0000  0.0000  0.0000 </r>
       </set>
       <set comment="band 3">
        <r>  0.0035  0.0633  0.0328  0.0611  0.0000  0.0000  0.0000  0.0000  0.0000 </r>
        <r>  0.0035  0.0633  0.0328  0.0611  0.0000  0.0000  0.0000  0.0000  0.0000 </r>
       </set>
       <set comment="band 4">
        <r>  0.0022  0.0857  0.0138  0.0783  0.0000  0.0000  0.0000  0.0000  0.0000 </r>
        <r>  0.0022  0.0857  0.0138  0.0783  0.0000  0.0000  0.0000  0.0000  0.0000 </r>
       </set>
       <set comment="band 5">
        <r>  0.0425  0.0227  0.0298  0.0104  0.0000  0.0000  0.0000  0.0000  0.0000 </r>
        <r>  0.0425  0.0227  0.0298  0.0104  0.0000  0.0000  0.0000  0.0000  0.0000 </r>
       </set>
       <set comment="band 6">
        <r>  0.0295  0.0385  0.0175  0.0243  0.0000  0.0000  0.0000  0.0000  0.0000 </r>
        <r>  0.0295  0.0385  0.0175  0.0243  0.0000  0.0000  0.0000  0.0000  0.0000 </r>
       </set>
       <set comment="band 7">
        <r>  0.0306  0.0515  0.0286  0.0355  0.0000  0.0000  0.0000  0.0000  0.0000 </r>
        <r>  0.0306  0.0515  0.0286  0.0355  0.0000  0.0000  0.0000  0.0000  0.0000 </r>
       </set>
       <set comment="band 8">
        <r>  0.0208  0.0652  0.0293  0.0436  0.0000  0.0000  0.0000  0.0000  0.0000 </r>
        <r>  0.0208  0.0652  0.0293  0.0436  0.0000  0.0000  0.0000  0.0000  0.0000 </r>
       </set>
       <set comment="band 9">
        <r>  0.0093  0.0203  0.0424  0.0465  0.0000  0.0000  0.0000  0.0000  0.0000 </r>
        <r>  0.0093  0.0203  0.0424  0.0465  0.0000  0.0000  0.0000  0.0000  0.0000 </r>
       </set>
       <set comment="band 10">
        <r>  0.0060  0.0252  0.0241  0.0593  0.0000  0.0000  0.0000  0.0000  0.0000 </r>
        <r>  0.0060  0.0252  0.0241  0.0593  0.0000  0.0000  0.0000  0.0000  0.0000 </r>
       </set>
       <set comment="band 11">
        <r>  0.0234  0.0083  0.0745  0.0216  0.0000  0.0000  0.0000  0.0000  0.0000 </r>
        <r>  0.0234  0.0083  0.0745  0.0216  0.0000  0.0000  0.0000  0.0000  0.0000 </r>
       </set>
       <set comment="band 12">
        <r>  0.0017  0.0191  0.0812  0.0443  0.0000  0.0000  0.0000  0.0000  0.0000 </r>
        <r>  0.0027  0.0188  0.0725  0.0481  0.0000  0.0000  0.0000  0.0000  0.0000 </r>
       </set>
      </set>
      <set comment="kpoint 43">
       <set comment="band 1">
        <r>  0.2131  0.0029  0.0153  0.0122  0.0000  0.0000  0.0000  0.0000  0.0000 </r>
        <r>  0.2131  0.0029  0.0153  0.0122  0.0000  0.0000  0.0000  0.0000  0.0000 </r>
       </set>
       <set comment="band 2">
        <r>  0.1847  0.0041  0.0386  0.0131  0.0000  0.0000  0.0000  0.0000  0.0000 </r>
        <r>  0.1847  0.0041  0.0386  0.0131  0.0000  0.0000  0.0000  0.0000  0.0000 </r>
       </set>
       <set comment="band 3">
        <r>  0.0015  0.0546  0.0530  0.0438  0.0000  0.0000  0.0000  0.0000  0.0000 </r>
        <r>  0.0015  0.0546  0.0530  0.0438  0.0000  0.0000  0.0000  0.0000  0.0000 </r>
       </set>
       <set comment="band 4">
        <r>  0.0032  0.0864  0.0128  0.0810  0.0000  0.0000  0.0000  0.0000  0.0000 </r>
        <r>  0.0032  0.0864  0.0128  0.0810  0.0000  0.0000  0.0000  0.0000  0.0000 </r>
       </set>
       <set comment="band 5">
        <r>  0.0430  0.0266  0.0315  0.0075  0.0000  0.0000  0.0000  0.0000  0.0000 </r>
        <r>  0.0430  0.0266  0.0315  0.0075  0.0000  0.0000  0.0000  0.0000  0.0000 </r>
       </set>
       <set comment="band 6">
        <r>  0.0052  0.0750  0.0010  0.0094  0.0000  0.0000  0.0000  0.0000  0.0000 </r>
        <r>  0.0052  0.0750  0.0010  0.0094  0.0000  0.0000  0.0000  0.0000  0.0000 </r>
       </set>
       <set comment="band 7">
        <r>  0.0375  0.0126  0.0492  0.0687  0.0000  0.0000  0.0000  0.0000  0.0000 </r>
        <r>  0.0375  0.0126  0.0492  0.0687  0.0000  0.0000  0.0000  0.0000  0.0000 </r>
       </set>
       <set comment="band 8">
        <r>  0.0372  0.0471  0.0276  0.0214  0.0000  0.0000  0.0000  0.0000  0.0000 </r>
        <r>  0.0372  0.0471  0.0276  0.0214  0.0000  0.0000  0.0000  0.0000  0.0000 </r>
       </set>
       <set comment="band 9">
        <r>  0.0118  0.0370  0.0733  0.0289  0.0000  0.0000  0.0000  0.0000  0.0000 </r>
        <r>  0.0118  0.0370  0.0733  0.0289  0.0000  0.0000  0.0000  0.0000  0.0000 </r>
       </set>
       <set comment="band 10">
        <r>  0.0223  0.0127  0.0071  0.0680  0.0000  0.0000  0.0000  0.0000  0.0000 </r>
        <r>  0.0223  0.0127  0.0071  0.0679  0.0000  0.0000  0.0000  0.0000  0.0000 </r>
       </set>
       <set comment="band 11">
        <r>  0.0056  0.0256  0.1051  0.0063  0.0000  0.0000  0.0000  0.0000  0.0000 </r>
        <r>  0.0056  0.0257  0.1056  0.0061  0.0000  0.0000  0.0000  0.0000  0.0000 </r>
       </set>
       <set comment="band 12">
        <r>  0.0106  0.0053  0.0168  0.0069  0.0000  0.0000  0.0000  0.0000  0.0000 </r>
        <r>  0.0091  0.0028  0.0029  0.0394  0.0000  0.0000  0.0000  0.0000  0.0000 </r>
       </set>
      </set>
      <set comment="kpoint 44">
       <set comment="band 1">
        <r>  0.0326  0.0000  0.0744  0.0053  0.0000  0.0000  0.0000  0.0000  0.0000 </r>
        <r>  0.3607  0.0001  0.0067  0.0005  0.0000  0.0000  0.0000  0.0000  0.0000 </r>
       </set>
       <set comment="band 2">
        <r>  0.3607  0.0001  0.0067  0.0005  0.0000  0.0000  0.0000  0.0000  0.0000 </r>
        <r>  0.0326  0.0000  0.0744  0.0053  0.0000  0.0000  0.0000  0.0000  0.0000 </r>
       </set>
       <set comment="band 3">
        <r>  0.0030  0.0886  0.0108  0.0745  0.0000  0.0000  0.0000  0.0000  0.0000 </r>
        <r>  0.0025  0.0754  0.0127  0.0875  0.0000  0.0000  0.0000  0.0000  0.0000 </r>
       </set>
       <set comment="band 4">
        <r>  0.0025  0.0754  0.0127  0.0875  0.0000  0.0000  0.0000  0.0000  0.0000 </r>
        <r>  0.0030  0.0886  0.0108  0.0745  0.0000  0.0000  0.0000  0.0000  0.0000 </r>
       </set>
       <set comment="band 5">
        <r>  0.0107  0.0048  0.0476  0.0218  0.0000  0.0000  0.0000  0.0000  0.0000 </r>
        <r>  0.0755  0.0336  0.0068  0.0031  0.0000  0.0000  0.0000  0.0000  0.0000 </r>
       </set>
       <set comment="band 6">
        <r>  0.0755  0.0336  0.0068  0.0031  0.0000  0.0000  0.0000  0.0000  0.0000 </r>
        <r>  0.0107  0.0048  0.0476  0.0218  0.0000  0.0000  0.0000  0.0000  0.0000 </r>
       </set>
       <set comment="band 7">
        <r>  0.0032  0.0134  0.0453  0.0744  0.0000  0.0000  0.0000  0.0000  0.0000 </r>
        <r>  0.0312  0.1295  0.0047  0.0077  0.0000  0.0000  0.0000  0.0000  0.0000 </r>
       </set>
       <set comment="band 8">
        <r>  0.0312  0.1295  0.0047  0.0077  0.0000  0.0000  0.0000  0.0000  0.0000 </r>
        <r>  0.0032  0.0134  0.0453  0.0744  0.0000  0.0000  0.0000  0.0000  0.0000 </r>
       </set>
       <set comment="band 9">
        <r>  0.0010  0.0297  0.0162  0.0634  0.0000  0.0000  0.0000  0.0000  0.0000 </r>
        <r>  0.0008  0.0242  0.0199  0.0778  0.0000  0.0000  0.0000  0.0000  0.0000 </r>
       </set>
       <set comment="band 10">
        <r>  0.0008  0.0242  0.0199  0.0779  0.0000  0.0000  0.0000  0.0000  0.0000 </r>
        <r>  0.0010  0.0297  0.0162  0.0634  0.0000  0.0000  0.0000  0.0000  0.0000 </r>
       </set>
       <set comment="band 11">
        <r>  0.0034  0.0000  0.1500  0.0183  0.0000  0.0000  0.0000  0.0000  0.0000 </r>
        <r>  0.0442  0.0001  0.0116  0.0014  0.0000  0.0000  0.0000  0.0000  0.0000 </r>
       </set>
       <set comment="band 12">
        <r>  0.0442  0.0001  0.0116  0.0014  0.0000  0.0000  0.0000  0.0000  0.0000 </r>
        <r>  0.0034  0.0000  0.1501  0.0183  0.0000  0.0000  0.0000  0.0000  0.0000 </r>
       </set>
      </set>
      <set comment="kpoint 45">
       <set comment="band 1">
        <r>  0.2074  0.0020  0.0218  0.0054  0.0000  0.0000  0.0000  0.0000  0.0000 </r>
        <r>  0.2074  0.0020  0.0218  0.0054  0.0000  0.0000  0.0000  0.0000  0.0000 </r>
       </set>
       <set comment="band 2">
        <r>  0.1873  0.0031  0.0311  0.0248  0.0000  0.0000  0.0000  0.0000  0.0000 </r>
        <r>  0.1873  0.0031  0.0311  0.0248  0.0000  0.0000  0.0000  0.0000  0.0000 </r>
       </set>
       <set comment="band 3">
        <r>  0.0072  0.0566  0.0265  0.0709  0.0000  0.0000  0.0000  0.0000  0.0000 </r>
        <r>  0.0072  0.0566  0.0265  0.0709  0.0000  0.0000  0.0000  0.0000  0.0000 </r>
       </set>
       <set comment="band 4">
        <r>  0.0017  0.0825  0.0504  0.0382  0.0000  0.0000  0.0000  0.0000  0.0000 </r>
        <r>  0.0017  0.0825  0.0504  0.0382  0.0000  0.0000  0.0000  0.0000  0.0000 </r>
       </set>
       <set comment="band 5">
        <r>  0.0273  0.0422  0.0275  0.0272  0.0000  0.0000  0.0000  0.0000  0.0000 </r>
        <r>  0.0273  0.0422  0.0275  0.0272  0.0000  0.0000  0.0000  0.0000  0.0000 </r>
       </set>
       <set comment="band 6">
        <r>  0.0082  0.0674  0.0042  0.0024  0.0000  0.0000  0.0000  0.0000  0.0000 </r>
        <r>  0.0082  0.0674  0.0042  0.0024  0.0000  0.0000  0.0000  0.0000  0.0000 </r>
       </set>
       <set comment="band 7">
        <r>  0.0675  0.0122  0.0340  0.0508  0.0000  0.0000  0.0000  0.0000  0.0000 </r>
        <r>  0.0675  0.0122  0.0340  0.0508  0.0000  0.0000  0.0000  0.0000  0.0000 </r>
       </set>
       <set comment="band 8">
        <r>  0.0194  0.0420  0.0480  0.0255  0.0000  0.0000  0.0000  0.0000  0.0000 </r>
        <r>  0.0194  0.0420  0.0480  0.0255  0.0000  0.0000  0.0000  0.0000  0.0000 </r>
       </set>
       <set comment="band 9">
        <r>  0.0038  0.0432  0.0217  0.0808  0.0000  0.0000  0.0000  0.0000  0.0000 </r>
        <r>  0.0038  0.0432  0.0217  0.0808  0.0000  0.0000  0.0000  0.0000  0.0000 </r>
       </set>
       <set comment="band 10">
        <r>  0.0307  0.0103  0.0735  0.0019  0.0000  0.0000  0.0000  0.0000  0.0000 </r>
        <r>  0.0307  0.0103  0.0735  0.0019  0.0000  0.0000  0.0000  0.0000  0.0000 </r>
       </set>
       <set comment="band 11">
        <r>  0.0056  0.0258  0.0005  0.0841  0.0000  0.0000  0.0000  0.0000  0.0000 </r>
        <r>  0.0056  0.0258  0.0005  0.0840  0.0000  0.0000  0.0000  0.0000  0.0000 </r>
       </set>
       <set comment="band 12">
        <r>  0.0025  0.0027  0.0832  0.0157  0.0000  0.0000  0.0000  0.0000  0.0000 </r>
        <r>  0.0023  0.0037  0.0736  0.0215  0.0000  0.0000  0.0000  0.0000  0.0000 </r>
       </set>
      </set>
      <set comment="kpoint 46">
       <set comment="band 1">
        <r>  0.2117  0.0010  0.0155  0.0155  0.0000  0.0000  0.0000  0.0000  0.0000 </r>
        <r>  0.2117  0.0010  0.0155  0.0155  0.0000  0.0000  0.0000  0.0000  0.0000 </r>
       </set>
       <set comment="band 2">
        <r>  0.1888  0.0031  0.0252  0.0252  0.0000  0.0000  0.0000  0.0000  0.0000 </r>
        <r>  0.1888  0.0031  0.0252  0.0252  0.0000  0.0000  0.0000  0.0000  0.0000 </r>
       </set>
       <set comment="band 3">
        <r>  0.0055  0.0567  0.0478  0.0478  0.0000  0.0000  0.0000  0.0000  0.0000 </r>
        <r>  0.0055  0.0567  0.0478  0.0478  0.0000  0.0000  0.0000  0.0000  0.0000 </r>
       </set>
       <set comment="band 4">
        <r>  0.0009  0.0787  0.0444  0.0444  0.0000  0.0000  0.0000  0.0000  0.0000 </r>
        <r>  0.0009  0.0787  0.0444  0.0444  0.0000  0.0000  0.0000  0.0000  0.0000 </r>
       </set>
       <set comment="band 5">
        <r>  0.0067  0.0717  0.0073  0.0073  0.0000  0.0000  0.0000  0.0000  0.0000 </r>
        <r>  0.0067  0.0717  0.0073  0.0073  0.0000  0.0000  0.0000  0.0000  0.0000 </r>
       </set>
       <set comment="band 6">
        <r>  0.0481  0.0314  0.0301  0.0301  0.0000  0.0000  0.0000  0.0000  0.0000 </r>
        <r>  0.0481  0.0314  0.0301  0.0301  0.0000  0.0000  0.0000  0.0000  0.0000 </r>
       </set>
       <set comment="band 7">
        <r>  0.0250  0.0557  0.0167  0.0167  0.0000  0.0000  0.0000  0.0000  0.0000 </r>
        <r>  0.0250  0.0557  0.0167  0.0167  0.0000  0.0000  0.0000  0.0000  0.0000 </r>
       </set>
       <set comment="band 8">
        <r>  0.0439  0.0097  0.0525  0.0525  0.0000  0.0000  0.0000  0.0000  0.0000 </r>
        <r>  0.0439  0.0097  0.0525  0.0525  0.0000  0.0000  0.0000  0.0000  0.0000 </r>
       </set>
       <set comment="band 9">
        <r>  0.0091  0.0368  0.0493  0.0493  0.0000  0.0000  0.0000  0.0000  0.0000 </r>
        <r>  0.0091  0.0368  0.0493  0.0493  0.0000  0.0000  0.0000  0.0000  0.0000 </r>
       </set>
       <set comment="band 10">
        <r>  0.0058  0.0288  0.0401  0.0401  0.0000  0.0000  0.0000  0.0000  0.0000 </r>
        <r>  0.0058  0.0288  0.0401  0.0401  0.0000  0.0000  0.0000  0.0000  0.0000 </r>
       </set>
       <set comment="band 11">
        <r>  0.0231  0.0057  0.0529  0.0529  0.0000  0.0000  0.0000  0.0000  0.0000 </r>
        <r>  0.0232  0.0056  0.0529  0.0529  0.0000  0.0000  0.0000  0.0000  0.0000 </r>
       </set>
       <set comment="band 12">
        <r>  0.0001  0.0104  0.0497  0.0501  0.0000  0.0000  0.0000  0.0000  0.0000 </r>
        <r>  0.0001  0.0104  0.0501  0.0497  0.0000  0.0000  0.0000  0.0000  0.0000 </r>
       </set>
      </set>
      <set comment="kpoint 47">
       <set comment="band 1">
        <r>  0.0740  0.0000  0.0469  0.0211  0.0000  0.0000  0.0000  0.0000  0.0000 </r>
        <r>  0.3331  0.0000  0.0104  0.0047  0.0000  0.0000  0.0000  0.0000  0.0000 </r>
       </set>
       <set comment="band 2">
        <r>  0.3331  0.0000  0.0104  0.0047  0.0000  0.0000  0.0000  0.0000  0.0000 </r>
        <r>  0.0740  0.0000  0.0469  0.0211  0.0000  0.0000  0.0000  0.0000  0.0000 </r>
       </set>
       <set comment="band 3">
        <r>  0.0007  0.0608  0.0371  0.0648  0.0000  0.0000  0.0000  0.0000  0.0000 </r>
        <r>  0.0009  0.0783  0.0288  0.0503  0.0000  0.0000  0.0000  0.0000  0.0000 </r>
       </set>
       <set comment="band 4">
        <r>  0.0009  0.0783  0.0288  0.0503  0.0000  0.0000  0.0000  0.0000  0.0000 </r>
        <r>  0.0007  0.0608  0.0371  0.0648  0.0000  0.0000  0.0000  0.0000  0.0000 </r>
       </set>
       <set comment="band 5">
        <r>  0.0248  0.0445  0.0181  0.0200  0.0000  0.0000  0.0000  0.0000  0.0000 </r>
        <r>  0.0287  0.0515  0.0157  0.0173  0.0000  0.0000  0.0000  0.0000  0.0000 </r>
       </set>
       <set comment="band 6">
        <r>  0.0287  0.0515  0.0157  0.0173  0.0000  0.0000  0.0000  0.0000  0.0000 </r>
        <r>  0.0248  0.0445  0.0181  0.0200  0.0000  0.0000  0.0000  0.0000  0.0000 </r>
       </set>
       <set comment="band 7">
        <r>  0.0561  0.0617  0.0147  0.0129  0.0000  0.0000  0.0000  0.0000  0.0000 </r>
        <r>  0.0141  0.0156  0.0584  0.0514  0.0000  0.0000  0.0000  0.0000  0.0000 </r>
       </set>
       <set comment="band 8">
        <r>  0.0141  0.0156  0.0584  0.0514  0.0000  0.0000  0.0000  0.0000  0.0000 </r>
        <r>  0.0561  0.0617  0.0147  0.0129  0.0000  0.0000  0.0000  0.0000  0.0000 </r>
       </set>
       <set comment="band 9">
        <r>  0.0001  0.0454  0.0294  0.0488  0.0000  0.0000  0.0000  0.0000  0.0000 </r>
        <r>  0.0001  0.0303  0.0441  0.0730  0.0000  0.0000  0.0000  0.0000  0.0000 </r>
       </set>
       <set comment="band 10">
        <r>  0.0001  0.0303  0.0441  0.0730  0.0000  0.0000  0.0000  0.0000  0.0000 </r>
        <r>  0.0001  0.0454  0.0294  0.0488  0.0000  0.0000  0.0000  0.0000  0.0000 </r>
       </set>
       <set comment="band 11">
        <r>  0.0458  0.0000  0.0121  0.0064  0.0000  0.0000  0.0000  0.0000  0.0000 </r>
        <r>  0.0045  0.0000  0.1235  0.0653  0.0000  0.0000  0.0000  0.0000  0.0000 </r>
       </set>
       <set comment="band 12">
        <r>  0.0045  0.0000  0.1235  0.0653  0.0000  0.0000  0.0000  0.0000  0.0000 </r>
        <r>  0.0458  0.0000  0.0121  0.0064  0.0000  0.0000  0.0000  0.0000  0.0000 </r>
       </set>
      </set>
     </set>
    </set>
   </array>
  </projected>
 </calculation>
 <structure name="finalpos" >
  <crystal>
   <varray name="basis" >
    <v>       0.00000000       2.73000000       2.73000000 </v>
    <v>       2.73000000       0.00000000       2.73000000 </v>
    <v>       2.73000000       2.73000000       0.00000000 </v>
   </varray>
   <i name="volume">     40.69283400 </i>
   <varray name="rec_basis" >
    <v>      -0.18315018       0.18315018       0.18315018 </v>
    <v>       0.18315018      -0.18315018       0.18315018 </v>
    <v>       0.18315018       0.18315018      -0.18315018 </v>
   </varray>
  </crystal>
  <varray name="positions" >
   <v>       0.00000000       0.00000000       0.00000000 </v>
   <v>       0.25000000       0.25000000       0.25000000 </v>
  </varray>
 </structure>
</modeling>
