LAMMPS (29 Aug 2024 - Development - patch_29Aug2024-704-g6d0e633edf)
# LAMMPS input generated from LammpsInputFile with pymatgen v2024.10.29

# Stage 1
units metal
atom_style atomic
dimension 3
boundary p p p

# Stage 2
read_data system.data
Reading data file ...
  orthogonal box = (0 0 0) to (13.65 13.65 13.65)
  1 by 1 by 1 MPI processor grid
  reading atoms ...
  250 atoms
  read_data CPU = 0.001 seconds
neigh_modify every 1 delay 0 check yes

# Stage 3
pair_style tersoff

# Stage 4
include forcefield.lammps
pair_coeff * * ../../pmg_data/Si.tersoff Si
Reading tersoff potential file ../../pmg_data/Si.tersoff with DATE: 2007-10-25

# Stage 5
thermo 5
thermo_style custom step lx ly lz press pxx pyy pzz pe
dump dmp all atom 5 run.dump

# Stage 6
min_style cg
fix 1 all box/relax iso 0 vmax 0.001
minimize 1e-06 1e-06 1000 10000000

CITE-CITE-CITE-CITE-CITE-CITE-CITE-CITE-CITE-CITE-CITE-CITE-CITE

Your simulation uses code contributions which should be cited:

- Type Label Framework: https://doi.org/10.1021/acs.jpcb.3c08419

@Article{Gissinger24,
 author = {Jacob R. Gissinger, Ilia Nikiforov, Yaser Afshar, Brendon Waters, Moon-ki Choi, Daniel S. Karls, Alexander Stukowski, Wonpil Im, Hendrik Heinz, Axel Kohlmeyer, and Ellad B. Tadmor},
 title = {Type Label Framework for Bonded Force Fields in LAMMPS},
 journal = {J. Phys. Chem. B},
 year =    2024,
 volume =  128,
 number =  13,
 pages =   {3282--3297}
}

CITE-CITE-CITE-CITE-CITE-CITE-CITE-CITE-CITE-CITE-CITE-CITE-CITE

Neighbor list info ...
  update: every = 1 steps, delay = 0 steps, check = yes
  max neighbors/atom: 2000, page size: 100000
  master list distance cutoff = 5.2
  ghost atom cutoff = 5.2
  binsize = 2.6, bins = 6 6 6
  1 neighbor lists, perpetual/occasional/extra = 1 0 0
  (1) pair tersoff, perpetual
      attributes: full, newton on
      pair build: full/bin/atomonly
      stencil: full/bin/3d
      bin: standard
WARNING: Energy due to 1 extra global DOFs will be included in minimizer energies
 (src/min.cpp:219)
Per MPI rank memory allocation (min/avg/max) = 4.22 | 4.22 | 4.22 Mbytes
   Step           Lx             Ly             Lz           Press           Pxx            Pyy            Pzz           PotEng    
         0   13.65          13.65          13.65          7710453.2      7710453.2      7710453.2      7710453.2      6982.1806    
         5   13.71825       13.71825       13.71825       7430208.1      7430208.1      7430208.1      7430208.1      6799.479     
        10   13.7865        13.7865        13.7865        7158339.2      7158339.2      7158339.2      7158339.2      6621.6555    
        15   13.85475       13.85475       13.85475       6895013.2      6895013.2      6895013.2      6895013.2      6448.6266    
        20   13.923         13.923         13.923         6640364.9      6640364.9      6640364.9      6640364.9      6280.2999    
        25   13.99125       13.99125       13.99125       6394492.4      6394492.4      6394492.4      6394492.4      6116.5752    
        30   14.0595        14.0595        14.0595        6214099.5      6214099.5      6214099.5      6214099.5      5956.7132    
        35   14.12775       14.12775       14.12775       6041318.1      6041318.1      6041318.1      6041318.1      5799.7187    
        40   14.196         14.196         14.196         5867499.9      5867499.9      5867499.9      5867499.9      5645.6842    
        45   14.26425       14.26425       14.26425       5693048.3      5693048.3      5693048.3      5693048.3      5494.7081    
        50   14.3325        14.3325        14.3325        5518407.4      5518407.4      5518407.4      5518407.4      5346.879     
        55   14.40075       14.40075       14.40075       5344050.5      5344050.5      5344050.5      5344050.5      5202.2745    
        60   14.469         14.469         14.469         5170468.4      5170468.4      5170468.4      5170468.4      5060.9601    
        65   14.53725       14.53725       14.53725       4998158.7      4998158.7      4998158.7      4998158.7      4922.9885    
        70   14.6055        14.6055        14.6055        4827615.6      4827615.6      4827615.6      4827615.6      4788.3988    
        75   14.67375       14.67375       14.67375       4659320.9      4659320.9      4659320.9      4659320.9      4657.2161    
        80   14.742         14.742         14.742         4502027.8      4502027.8      4502027.8      4502027.8      4529.3559    
        85   14.81025       14.81025       14.81025       4347950.6      4347950.6      4347950.6      4347950.6      4404.6612    
        90   14.8785        14.8785        14.8785        4195700        4195700        4195700        4195700        4283.1565    
        95   14.94675       14.94675       14.94675       4045752.5      4045752.5      4045752.5      4045752.5      4164.8564    
       100   15.015         15.015         15.015         3898554.4      3898554.4      3898554.4      3898554.4      4049.7611    
       105   15.08325       15.08325       15.08325       3754515.4      3754515.4      3754515.4      3754515.4      3937.8572    
       110   15.1515        15.1515        15.1515        3614003.9      3614003.9      3614003.9      3614003.9      3829.1182    
       115   15.21975       15.21975       15.21975       3477343.5      3477343.5      3477343.5      3477343.5      3723.5054    
       120   15.288         15.288         15.288         3344811        3344811        3344811        3344811        3620.969     
       125   15.35625       15.35625       15.35625       3216635        3216635        3216635        3216635        3521.449     
       130   15.4245        15.4245        15.4245        3092996.1      3092996.1      3092996.1      3092996.1      3424.8761    
       135   15.49275       15.49275       15.49275       2974028.4      2974028.4      2974028.4      2974028.4      3331.1736    
       140   15.561         15.561         15.561         2859820.6      2859820.6      2859820.6      2859820.6      3240.258     
       145   15.62925       15.62925       15.62925       2750419        2750419        2750419        2750419        3152.0401    
       150   15.6975        15.6975        15.6975        2645830.5      2645830.5      2645830.5      2645830.5      3066.4269    
       155   15.76575       15.76575       15.76575       2546025.8      2546025.8      2546025.8      2546025.8      2983.3221    
       160   15.834         15.834         15.834         2450943        2450943        2450943        2450943        2902.6271    
       165   15.90225       15.90225       15.90225       2360491.3      2360491.3      2360491.3      2360491.3      2824.2426    
       170   15.9705        15.9705        15.9705        2274554.7      2274554.7      2274554.7      2274554.7      2748.0689    
       175   16.03875       16.03875       16.03875       2200590.7      2200590.7      2200590.7      2200590.7      2673.9358    
       180   16.107         16.107         16.107         2134972.2      2134972.2      2134972.2      2134972.2      2601.4435    
       185   16.17525       16.17525       16.17525       2071375.7      2071375.7      2071375.7      2071375.7      2530.5149    
       190   16.2435        16.2435        16.2435        2009732.1      2009732.1      2009732.1      2009732.1      2461.1169    
       195   16.31175       16.31175       16.31175       1949974.9      1949974.9      1949974.9      1949974.9      2393.217     
       200   16.38          16.38          16.38          1892040.4      1892040.4      1892040.4      1892040.4      2326.7836    
       205   16.44825       16.44825       16.44825       1835867.5      1835867.5      1835867.5      1835867.5      2261.7857    
       210   16.5165        16.5165        16.5165        1781397.1      1781397.1      1781397.1      1781397.1      2198.1934    
       215   16.58475       16.58475       16.58475       1728572.8      1728572.8      1728572.8      1728572.8      2135.9772    
       220   16.653         16.653         16.653         1677340        1677340        1677340        1677340        2075.1085    
       225   16.72125       16.72125       16.72125       1627646.6      1627646.6      1627646.6      1627646.6      2015.5593    
       230   16.7895        16.7895        16.7895        1579442        1579442        1579442        1579442        1957.3024    
       235   16.85775       16.85775       16.85775       1532677.9      1532677.9      1532677.9      1532677.9      1900.311     
       240   16.926         16.926         16.926         1490175.7      1490175.7      1490175.7      1490175.7      1844.5302    
       245   16.99425       16.99425       16.99425       1451066.2      1451066.2      1451066.2      1451066.2      1789.7983    
       250   17.0625        17.0625        17.0625        1412883.2      1412883.2      1412883.2      1412883.2      1736.082     
       255   17.13075       17.13075       17.13075       1375564.2      1375564.2      1375564.2      1375564.2      1683.3688    
       260   17.199         17.199         17.199         1339051.9      1339051.9      1339051.9      1339051.9      1631.6479    
       265   17.26725       17.26725       17.26725       1303295.1      1303295.1      1303295.1      1303295.1      1580.9096    
       270   17.3355        17.3355        17.3355        1268247.8      1268247.8      1268247.8      1268247.8      1531.1456    
       275   17.40375       17.40375       17.40375       1233869.7      1233869.7      1233869.7      1233869.7      1482.3488    
       280   17.472         17.472         17.472         1200125.7      1200125.7      1200125.7      1200125.7      1434.5128    
       285   17.54025       17.54025       17.54025       1166986        1166986        1166986        1166986        1387.6323    
       290   17.6085        17.6085        17.6085        1134425.8      1134425.8      1134425.8      1134425.8      1341.7022    
       295   17.67675       17.67675       17.67675       1102425        1102425        1102425        1102425        1296.7182    
       300   17.745         17.745         17.745         1070968.2      1070968.2      1070968.2      1070968.2      1252.6761    
       305   17.81325       17.81325       17.81325       1040043.9      1040043.9      1040043.9      1040043.9      1209.572     
       310   17.8815        17.8815        17.8815        1009645        1009645        1009645        1009645        1167.4017    
       315   17.94975       17.94975       17.94975       979767.48      979767.48      979767.48      979767.48      1126.1612    
       320   18.018         18.018         18.018         950410.8       950410.8       950410.8       950410.8       1085.846     
       325   18.08625       18.08625       18.08625       921577.17      921577.17      921577.17      921577.17      1046.4512    
       330   18.1545        18.1545        18.1545        893271.24      893271.24      893271.24      893271.24      1007.9715    
       335   18.22275       18.22275       18.22275       865499.7       865499.7       865499.7       865499.7       970.4008     
       340   18.291         18.291         18.291         838270.9       838270.9       838270.9       838270.9       933.73244    
       345   18.35925       18.35925       18.35925       811594.43      811594.43      811594.43      811594.43      897.95891    
       350   18.4275        18.4275        18.4275        785480.76      785480.76      785480.76      785480.76      863.07189    
       355   18.49575       18.49575       18.49575       759940.85      759940.85      759940.85      759940.85      829.06214    
       360   18.564         18.564         18.564         734985.84      734985.84      734985.84      734985.84      795.91953    
       365   18.63225       18.63225       18.63225       710626.65      710626.65      710626.65      710626.65      763.63299    
       370   18.7005        18.7005        18.7005        686873.76      686873.76      686873.76      686873.76      732.19049    
       375   18.76875       18.76875       18.76875       663736.85      663736.85      663736.85      663736.85      701.5791     
       380   18.837         18.837         18.837         641224.59      641224.59      641224.59      641224.59      671.78498    
       385   18.90525       18.90525       18.90525       619344.44      619344.44      619344.44      619344.44      642.79341    
       390   18.9735        18.9735        18.9735        598102.42      598102.42      598102.42      598102.42      614.58886    
       395   19.04175       19.04175       19.04175       577502.95      577502.95      577502.95      577502.95      587.15502    
       400   19.11          19.11          19.11          557548.78      557548.78      557548.78      557548.78      560.47488    
       405   19.17825       19.17825       19.17825       538240.85      538240.85      538240.85      538240.85      534.53081    
       410   19.2465        19.2465        19.2465        519578.25      519578.25      519578.25      519578.25      509.30463    
       415   19.31475       19.31475       19.31475       501886.03      501886.03      501886.03      501886.03      484.77637    
       420   19.383         19.383         19.383         486394.64      486394.64      486394.64      486394.64      460.86864    
       425   19.45125       19.45125       19.45125       471354.35      471354.35      471354.35      471354.35      437.53578    
       430   19.5195        19.5195        19.5195        456752.03      456752.03      456752.03      456752.03      414.76588    
       435   19.58775       19.58775       19.58775       442574.95      442574.95      442574.95      442574.95      392.54724    
       440   19.656         19.656         19.656         428810.73      428810.73      428810.73      428810.73      370.86838    
       445   19.72425       19.72425       19.72425       415447.39      415447.39      415447.39      415447.39      349.71807    
       450   19.7925        19.7925        19.7925        402473.29      402473.29      402473.29      402473.29      329.08529    
       455   19.86075       19.86075       19.86075       389877.13      389877.13      389877.13      389877.13      308.95924    
       460   19.929         19.929         19.929         377647.96      377647.96      377647.96      377647.96      289.32934    
       465   19.99725       19.99725       19.99725       365775.15      365775.15      365775.15      365775.15      270.1852     
       470   20.0655        20.0655        20.0655        354248.38      354248.38      354248.38      354248.38      251.51666    
       475   20.13375       20.13375       20.13375       343057.65      343057.65      343057.65      343057.65      233.31373    
       480   20.202         20.202         20.202         332193.22      332193.22      332193.22      332193.22      215.56666    
       485   20.27025       20.27025       20.27025       321645.69      321645.69      321645.69      321645.69      198.26585    
       490   20.3385        20.3385        20.3385        311405.89      311405.89      311405.89      311405.89      181.40192    
       495   20.40675       20.40675       20.40675       301464.94      301464.94      301464.94      301464.94      164.96567    
       500   20.475         20.475         20.475         291814.22      291814.22      291814.22      291814.22      148.94806    
       505   20.54325       20.54325       20.54325       282445.37      282445.37      282445.37      282445.37      133.34027    
       510   20.6115        20.6115        20.6115        273350.26      273350.26      273350.26      273350.26      118.13362    
       515   20.67975       20.67975       20.67975       264521         264521         264521         264521         103.31962    
       520   20.748         20.748         20.748         255949.96      255949.96      255949.96      255949.96      88.889937    
       525   20.81625       20.81625       20.81625       247629.69      247629.69      247629.69      247629.69      74.836417    
       530   20.8845        20.8845        20.8845        239552.99      239552.99      239552.99      239552.99      61.151061    
       535   20.95275       20.95275       20.95275       231712.86      231712.86      231712.86      231712.86      47.826029    
       540   21.021         21.021         21.021         224102.49      224102.49      224102.49      224102.49      34.853638    
       545   21.08925       21.08925       21.08925       216715.3       216715.3       216715.3       216715.3       22.22636     
       550   21.1575        21.1575        21.1575        209544.86      209544.86      209544.86      209544.86      9.9368139    
       555   21.22575       21.22575       21.22575       202584.97      202584.97      202584.97      202584.97     -2.0222317    
       560   21.294         21.294         21.294         195829.58      195829.58      195829.58      195829.58     -13.657865    
       565   21.36225       21.36225       21.36225       189272.83      189272.83      189272.83      189272.83     -24.977032    
       570   21.4305        21.4305        21.4305        182909.03      182909.03      182909.03      182909.03     -35.986541    
       575   21.49875       21.49875       21.49875       176732.64      176732.64      176732.64      176732.64     -46.693062    
       580   21.567         21.567         21.567         170738.3       170738.3       170738.3       170738.3      -57.103135    
       585   21.63525       21.63525       21.63525       164920.79      164920.79      164920.79      164920.79     -67.223165    
       590   21.7035        21.7035        21.7035        159275.05      159275.05      159275.05      159275.05     -77.059431    
       595   21.77175       21.77175       21.77175       153796.17      153796.17      153796.17      153796.17     -86.618087    
       600   21.84          21.84          21.84          148479.36      148479.36      148479.36      148479.36     -95.905162    
       605   21.90825       21.90825       21.90825       143320         143320         143320         143320        -104.92656    
       610   21.9765        21.9765        21.9765        138313.58      138313.58      138313.58      138313.58     -113.68808    
       615   22.04475       22.04475       22.04475       133455.72      133455.72      133455.72      133455.72     -122.19539    
       620   22.113         22.113         22.113         128742.18      128742.18      128742.18      128742.18     -130.45405    
       625   22.18125       22.18125       22.18125       124168.83      124168.83      124168.83      124168.83     -138.46951    
       630   22.2495        22.2495        22.2495        119731.67      119731.67      119731.67      119731.67     -146.2471     
       635   22.31775       22.31775       22.31775       115426.8       115426.8       115426.8       115426.8      -153.79206    
       640   22.386         22.386         22.386         111250.44      111250.44      111250.44      111250.44     -161.10951    
       645   22.45425       22.45425       22.45425       107198.92      107198.92      107198.92      107198.92     -168.20447    
       650   22.5225        22.5225        22.5225        103268.67      103268.67      103268.67      103268.67     -175.08186    
       655   22.59075       22.59075       22.59075       99456.231      99456.231      99456.231      99456.231     -181.74651    
       660   22.659         22.659         22.659         95758.231      95758.231      95758.231      95758.231     -188.20313    
       665   22.72725       22.72725       22.72725       92171.403      92171.403      92171.403      92171.403     -194.45636    
       670   22.7955        22.7955        22.7955        88692.57       88692.57       88692.57       88692.57      -200.51072    
       675   22.86375       22.86375       22.86375       85318.647      85318.647      85318.647      85318.647     -206.37067    
       680   22.932         22.932         22.932         82046.636      82046.636      82046.636      82046.636     -212.04054    
       685   23.00025       23.00025       23.00025       78873.625      78873.625      78873.625      78873.625     -217.52462    
       690   23.0685        23.0685        23.0685        75796.785      75796.785      75796.785      75796.785     -222.82707    
       695   23.13675       23.13675       23.13675       72813.367      72813.367      72813.367      72813.367     -227.95198    
       700   23.205         23.205         23.205         69920.701      69920.701      69920.701      69920.701     -232.90337    
       705   23.27325       23.27325       23.27325       67116.192      67116.192      67116.192      67116.192     -237.68516    
       710   23.3415        23.3415        23.3415        64397.32       64397.32       64397.32       64397.32      -242.3012     
       715   23.40975       23.40975       23.40975       61761.636      61761.636      61761.636      61761.636     -246.75526    
       720   23.478         23.478         23.478         59206.76       59206.76       59206.76       59206.76      -251.05104    
       725   23.54625       23.54625       23.54625       56730.38       56730.38       56730.38       56730.38      -255.19214    
       730   23.6145        23.6145        23.6145        54330.249      54330.249      54330.249      54330.249     -259.18211    
       735   23.68275       23.68275       23.68275       52004.186      52004.186      52004.186      52004.186     -263.02443    
       740   23.751         23.751         23.751         49750.069      49750.069      49750.069      49750.069     -266.72249    
       745   23.81925       23.81925       23.81925       47565.837      47565.837      47565.837      47565.837     -270.27962    
       750   23.8875        23.8875        23.8875        45449.489      45449.489      45449.489      45449.489     -273.69908    
       755   23.95575       23.95575       23.95575       43399.077      43399.077      43399.077      43399.077     -276.98408    
       760   24.024         24.024         24.024         41412.712      41412.712      41412.712      41412.712     -280.13772    
       765   24.09225       24.09225       24.09225       39488.556      39488.556      39488.556      39488.556     -283.1631     
       770   24.1605        24.1605        24.1605        37624.824      37624.824      37624.824      37624.824     -286.06319    
       775   24.22875       24.22875       24.22875       35819.781      35819.781      35819.781      35819.781     -288.84095    
       780   24.297         24.297         24.297         34071.741      34071.741      34071.741      34071.741     -291.49925    
       785   24.36525       24.36525       24.36525       32379.065      32379.065      32379.065      32379.065     -294.04091    
       790   24.4335        24.4335        24.4335        30740.162      30740.162      30740.162      30740.162     -296.4687     
       795   24.50175       24.50175       24.50175       29153.485      29153.485      29153.485      29153.485     -298.78532    
       800   24.57          24.57          24.57          27617.529      27617.529      27617.529      27617.529     -300.99341    
       805   24.63825       24.63825       24.63825       26130.835      26130.835      26130.835      26130.835     -303.09557    
       810   24.7065        24.7065        24.7065        24691.981      24691.981      24691.981      24691.981     -305.09435    
       815   24.77475       24.77475       24.77475       23299.588      23299.588      23299.588      23299.588     -306.99222    
       820   24.843         24.843         24.843         21952.316      21952.316      21952.316      21952.316     -308.79163    
       825   24.91125       24.91125       24.91125       20648.859      20648.859      20648.859      20648.859     -310.49495    
       830   24.9795        24.9795        24.9795        19387.953      19387.953      19387.953      19387.953     -312.10453    
       835   25.04775       25.04775       25.04775       18168.366      18168.366      18168.366      18168.366     -313.62264    
       840   25.116         25.116         25.116         16988.901      16988.901      16988.901      16988.901     -315.05154    
       845   25.18425       25.18425       25.18425       15848.397      15848.397      15848.397      15848.397     -316.3934     
       850   25.2525        25.2525        25.2525        14745.722      14745.722      14745.722      14745.722     -317.65039    
       855   25.32075       25.32075       25.32075       13679.78       13679.78       13679.78       13679.78      -318.82459    
       860   25.389         25.389         25.389         12649.503      12649.503      12649.503      12649.503     -319.91806    
       865   25.45725       25.45725       25.45725       11653.853      11653.853      11653.853      11653.853     -320.93283    
       870   25.5255        25.5255        25.5255        10691.822      10691.822      10691.822      10691.822     -321.87085    
       875   25.59375       25.59375       25.59375       9762.4317      9762.4317      9762.4317      9762.4317     -322.73406    
       880   25.662         25.662         25.662         8864.7284      8864.7284      8864.7284      8864.7284     -323.52436    
       885   25.73025       25.73025       25.73025       7997.7871      7997.7871      7997.7871      7997.7871     -324.24359    
       890   25.7985        25.7985        25.7985        7160.7085      7160.7085      7160.7085      7160.7085     -324.89355    
       895   25.86675       25.86675       25.86675       6352.6183      6352.6183      6352.6183      6352.6183     -325.47603    
       900   25.935         25.935         25.935         5572.667       5572.667       5572.667       5572.667      -325.99276    
       905   26.00325       26.00325       26.00325       4820.0289      4820.0289      4820.0289      4820.0289     -326.44543    
       910   26.0715        26.0715        26.0715        4093.9015      4093.9015      4093.9015      4093.9015     -326.83571    
       915   26.13975       26.13975       26.13975       3393.5048      3393.5048      3393.5048      3393.5048     -327.16522    
       920   26.208         26.208         26.208         2718.0809      2718.0809      2718.0809      2718.0809     -327.43557    
       925   26.27625       26.27625       26.27625       2066.8929      2066.8929      2066.8929      2066.8929     -327.64829    
       930   26.3445        26.3445        26.3445        1439.2249      1439.2249      1439.2249      1439.2249     -327.80493    
       935   26.41275       26.41275       26.41275       834.38107      834.38107      834.38107      834.38107     -327.90696    
       940   26.481         26.481         26.481         251.68499      251.68499      251.68499      251.68499     -327.95586    
       943   26.511297      26.511297      26.511297     -0.052828161   -0.052828161   -0.052828161   -0.052828161   -327.96091    
Loop time of 0.522133 on 1 procs for 943 steps with 250 atoms

97.3% CPU use with 1 MPI tasks x no OpenMP threads

Minimization stats:
  Stopping criterion = energy tolerance
  Energy initial, next-to-last, final = 
      6982.18061421538  -327.960864416154  -327.960913465947
  Force two-norm initial, final = 36875.893 0.00095434769
  Force max component initial, final = 36718.823 0.00094901042
  Final line search alpha, max atom move = 0.0022578661 2.1427385e-06
  Iterations, force evaluations = 943 944

MPI task timing breakdown:
Section |  min time  |  avg time  |  max time  |%varavg| %total
---------------------------------------------------------------
Pair    | 0.46972    | 0.46972    | 0.46972    |   0.0 | 89.96
Neigh   | 0.0039598  | 0.0039598  | 0.0039598  |   0.0 |  0.76
Comm    | 0.0022316  | 0.0022316  | 0.0022316  |   0.0 |  0.43
Output  | 0.030818   | 0.030818   | 0.030818   |   0.0 |  5.90
Modify  | 0          | 0          | 0          |   0.0 |  0.00
Other   |            | 0.0154     |            |       |  2.95

Nlocal:            250 ave         250 max         250 min
Histogram: 1 0 0 0 0 0 0 0 0 0
Nghost:            605 ave         605 max         605 min
Histogram: 1 0 0 0 0 0 0 0 0 0
Neighs:              0 ave           0 max           0 min
Histogram: 1 0 0 0 0 0 0 0 0 0
FullNghs:         2500 ave        2500 max        2500 min
Histogram: 1 0 0 0 0 0 0 0 0 0

Total # of neighbors = 2500
Ave neighs/atom = 10
Neighbor list builds = 21
Dangerous builds = 0

# Stage 7
write_data run.data
System init for write_data ...
write_restart run.restart
System init for write_restart ...
Total wall time: 0:00:00