ITEM: TIMESTEP
0
ITEM: NUMBER OF ATOMS
2
ITEM: BOX BOUNDS xy xz yz pp pp pp
0.0000000000000000e+00 7.7339489999999991e+00 1.9334870000000000e+00
0.0000000000000000e+00 4.4651969999999999e+00 1.9334870000000000e+00
0.0000000000000000e+00 3.1573720000000001e+00 1.1162989999999999e+00
ITEM: ATOMS id element x y z vx vy vz fx fy fz
1 Si 1.93349 1.1163 0.789343 0 0 0 6.84347e-06 2.39893e-06 2.51811e-06
2 Si 0 0 0 0 0 0 -6.84347e-06 -2.39893e-06 -2.51811e-06
ITEM: TIMESTEP
8
ITEM: NUMBER OF ATOMS
2
ITEM: BOX BOUNDS xy xz yz pp pp pp
1.3257370972867503e-02 7.6941768939381108e+00 1.9202296324554904e+00
1.1481218041568417e-02 4.4460616388829575e+00 1.9202296324554886e+00
1.0824598530723529e-02 3.1465474014692751e+00 1.1086448569245251e+00
ITEM: ATOMS id element x y z vx vy vz fx fy fz
1 Si 1.93349 1.12013 0.794755 0 0 0 4.19478e-06 1.42509e-06 1.5692e-06
2 Si 0.0132573 0.0114812 0.0108246 0 0 0 -4.19478e-06 -1.42509e-06 -1.5692e-06
