LAMMPS data file via write_data, version 29 Aug 2024, timestep = 8, units = metal

2 atoms
1 atom types

0.013257370972867503 3.8537176290271318 xlo xhi
0.011481218041568417 3.337416781958433 ylo yhi
0.010824598530723529 3.146547401469275 zlo zhi
1.9202296324554904 1.9202296324554886 1.108644856924525 xy xz yz

Masses

1 28.0855

Atoms # atomic

1 1 1.9334870997609221 1.1201261080365668 0.7947553351072992 0 0 0
2 1 7.694176797605547 4.446061605812487 3.1465473656273373 -1 -1 -1

Velocities

1 0 0 0
2 0 0 0
