ITEM: TIMESTEP
0
ITEM: NUMBER OF ATOMS
250
ITEM: BOX BOUNDS pp pp pp
0.0000000000000000e+00 1.3650000000000000e+01
0.0000000000000000e+00 1.3650000000000000e+01
0.0000000000000000e+00 1.3650000000000000e+01
ITEM: ATOMS id type xs ys zs
1 1 0 0 0
2 1 0 0 0.2
6 1 0 0.2 0
7 1 0 0.2 0.2
26 1 0.2 0 0
27 1 0.2 0 0.2
31 1 0.2 0.2 0
32 1 0.2 0.2 0.2
126 1 0.05 0.05 0.05
51 1 0.4 0 0
52 1 0.4 0 0.2
56 1 0.4 0.2 0
57 1 0.4 0.2 0.2
151 1 0.25 0.05 0.05
76 1 0.6 0 0
77 1 0.6 0 0.2
81 1 0.6 0.2 0
82 1 0.6 0.2 0.2
176 1 0.45 0.05 0.05
101 1 0.8 0 0
102 1 0.8 0 0.2
106 1 0.8 0.2 0
107 1 0.8 0.2 0.2
201 1 0.65 0.05 0.05
226 1 0.85 0.05 0.05
11 1 0 0.4 0
12 1 0 0.4 0.2
36 1 0.2 0.4 0
37 1 0.2 0.4 0.2
131 1 0.05 0.25 0.05
61 1 0.4 0.4 0
62 1 0.4 0.4 0.2
156 1 0.25 0.25 0.05
86 1 0.6 0.4 0
87 1 0.6 0.4 0.2
181 1 0.45 0.25 0.05
111 1 0.8 0.4 0
112 1 0.8 0.4 0.2
206 1 0.65 0.25 0.05
231 1 0.85 0.25 0.05
16 1 0 0.6 0
17 1 0 0.6 0.2
41 1 0.2 0.6 0
42 1 0.2 0.6 0.2
136 1 0.05 0.45 0.05
66 1 0.4 0.6 0
67 1 0.4 0.6 0.2
161 1 0.25 0.45 0.05
91 1 0.6 0.6 0
92 1 0.6 0.6 0.2
186 1 0.45 0.45 0.05
116 1 0.8 0.6 0
117 1 0.8 0.6 0.2
211 1 0.65 0.45 0.05
236 1 0.85 0.45 0.05
21 1 0 0.8 0
22 1 0 0.8 0.2
46 1 0.2 0.8 0
47 1 0.2 0.8 0.2
141 1 0.05 0.65 0.05
71 1 0.4 0.8 0
72 1 0.4 0.8 0.2
166 1 0.25 0.65 0.05
96 1 0.6 0.8 0
97 1 0.6 0.8 0.2
191 1 0.45 0.65 0.05
121 1 0.8 0.8 0
122 1 0.8 0.8 0.2
216 1 0.65 0.65 0.05
241 1 0.85 0.65 0.05
146 1 0.05 0.85 0.05
171 1 0.25 0.85 0.05
196 1 0.45 0.85 0.05
221 1 0.65 0.85 0.05
246 1 0.85 0.85 0.05
3 1 0 0 0.4
8 1 0 0.2 0.4
28 1 0.2 0 0.4
33 1 0.2 0.2 0.4
127 1 0.05 0.05 0.25
53 1 0.4 0 0.4
58 1 0.4 0.2 0.4
152 1 0.25 0.05 0.25
78 1 0.6 0 0.4
83 1 0.6 0.2 0.4
177 1 0.45 0.05 0.25
103 1 0.8 0 0.4
108 1 0.8 0.2 0.4
202 1 0.65 0.05 0.25
227 1 0.85 0.05 0.25
13 1 0 0.4 0.4
38 1 0.2 0.4 0.4
132 1 0.05 0.25 0.25
63 1 0.4 0.4 0.4
157 1 0.25 0.25 0.25
88 1 0.6 0.4 0.4
182 1 0.45 0.25 0.25
113 1 0.8 0.4 0.4
207 1 0.65 0.25 0.25
232 1 0.85 0.25 0.25
18 1 0 0.6 0.4
43 1 0.2 0.6 0.4
137 1 0.05 0.45 0.25
68 1 0.4 0.6 0.4
162 1 0.25 0.45 0.25
93 1 0.6 0.6 0.4
187 1 0.45 0.45 0.25
118 1 0.8 0.6 0.4
212 1 0.65 0.45 0.25
237 1 0.85 0.45 0.25
23 1 0 0.8 0.4
48 1 0.2 0.8 0.4
142 1 0.05 0.65 0.25
73 1 0.4 0.8 0.4
167 1 0.25 0.65 0.25
98 1 0.6 0.8 0.4
192 1 0.45 0.65 0.25
123 1 0.8 0.8 0.4
217 1 0.65 0.65 0.25
242 1 0.85 0.65 0.25
147 1 0.05 0.85 0.25
172 1 0.25 0.85 0.25
197 1 0.45 0.85 0.25
222 1 0.65 0.85 0.25
247 1 0.85 0.85 0.25
4 1 0 0 0.6
9 1 0 0.2 0.6
29 1 0.2 0 0.6
34 1 0.2 0.2 0.6
128 1 0.05 0.05 0.45
54 1 0.4 0 0.6
59 1 0.4 0.2 0.6
153 1 0.25 0.05 0.45
79 1 0.6 0 0.6
84 1 0.6 0.2 0.6
178 1 0.45 0.05 0.45
104 1 0.8 0 0.6
109 1 0.8 0.2 0.6
203 1 0.65 0.05 0.45
228 1 0.85 0.05 0.45
14 1 0 0.4 0.6
39 1 0.2 0.4 0.6
133 1 0.05 0.25 0.45
64 1 0.4 0.4 0.6
158 1 0.25 0.25 0.45
89 1 0.6 0.4 0.6
183 1 0.45 0.25 0.45
114 1 0.8 0.4 0.6
208 1 0.65 0.25 0.45
233 1 0.85 0.25 0.45
19 1 0 0.6 0.6
44 1 0.2 0.6 0.6
138 1 0.05 0.45 0.45
69 1 0.4 0.6 0.6
163 1 0.25 0.45 0.45
94 1 0.6 0.6 0.6
188 1 0.45 0.45 0.45
119 1 0.8 0.6 0.6
213 1 0.65 0.45 0.45
238 1 0.85 0.45 0.45
24 1 0 0.8 0.6
49 1 0.2 0.8 0.6
143 1 0.05 0.65 0.45
74 1 0.4 0.8 0.6
168 1 0.25 0.65 0.45
99 1 0.6 0.8 0.6
193 1 0.45 0.65 0.45
124 1 0.8 0.8 0.6
218 1 0.65 0.65 0.45
243 1 0.85 0.65 0.45
148 1 0.05 0.85 0.45
173 1 0.25 0.85 0.45
198 1 0.45 0.85 0.45
223 1 0.65 0.85 0.45
248 1 0.85 0.85 0.45
5 1 0 0 0.8
10 1 0 0.2 0.8
30 1 0.2 0 0.8
35 1 0.2 0.2 0.8
129 1 0.05 0.05 0.65
55 1 0.4 0 0.8
60 1 0.4 0.2 0.8
154 1 0.25 0.05 0.65
80 1 0.6 0 0.8
85 1 0.6 0.2 0.8
179 1 0.45 0.05 0.65
105 1 0.8 0 0.8
110 1 0.8 0.2 0.8
204 1 0.65 0.05 0.65
229 1 0.85 0.05 0.65
15 1 0 0.4 0.8
40 1 0.2 0.4 0.8
134 1 0.05 0.25 0.65
65 1 0.4 0.4 0.8
159 1 0.25 0.25 0.65
90 1 0.6 0.4 0.8
184 1 0.45 0.25 0.65
115 1 0.8 0.4 0.8
209 1 0.65 0.25 0.65
234 1 0.85 0.25 0.65
20 1 0 0.6 0.8
45 1 0.2 0.6 0.8
139 1 0.05 0.45 0.65
70 1 0.4 0.6 0.8
164 1 0.25 0.45 0.65
95 1 0.6 0.6 0.8
189 1 0.45 0.45 0.65
120 1 0.8 0.6 0.8
214 1 0.65 0.45 0.65
239 1 0.85 0.45 0.65
25 1 0 0.8 0.8
50 1 0.2 0.8 0.8
144 1 0.05 0.65 0.65
75 1 0.4 0.8 0.8
169 1 0.25 0.65 0.65
100 1 0.6 0.8 0.8
194 1 0.45 0.65 0.65
125 1 0.8 0.8 0.8
219 1 0.65 0.65 0.65
244 1 0.85 0.65 0.65
149 1 0.05 0.85 0.65
174 1 0.25 0.85 0.65
199 1 0.45 0.85 0.65
224 1 0.65 0.85 0.65
249 1 0.85 0.85 0.65
130 1 0.05 0.05 0.85
155 1 0.25 0.05 0.85
180 1 0.45 0.05 0.85
205 1 0.65 0.05 0.85
230 1 0.85 0.05 0.85
135 1 0.05 0.25 0.85
160 1 0.25 0.25 0.85
185 1 0.45 0.25 0.85
210 1 0.65 0.25 0.85
235 1 0.85 0.25 0.85
140 1 0.05 0.45 0.85
165 1 0.25 0.45 0.85
190 1 0.45 0.45 0.85
215 1 0.65 0.45 0.85
240 1 0.85 0.45 0.85
145 1 0.05 0.65 0.85
170 1 0.25 0.65 0.85
195 1 0.45 0.65 0.85
220 1 0.65 0.65 0.85
245 1 0.85 0.65 0.85
150 1 0.05 0.85 0.85
175 1 0.25 0.85 0.85
200 1 0.45 0.85 0.85
225 1 0.65 0.85 0.85
250 1 0.85 0.85 0.85
ITEM: TIMESTEP
5
ITEM: NUMBER OF ATOMS
250
ITEM: BOX BOUNDS pp pp pp
-3.4125000000000009e-02 1.3684124999999996e+01
-3.4125000000000009e-02 1.3684124999999996e+01
-3.4125000000000009e-02 1.3684124999999996e+01
ITEM: ATOMS id type xs ys zs
1 1 -1.23866e-06 -1.23866e-06 -1.23866e-06
2 1 -1.23866e-06 -1.23866e-06 0.199999
6 1 -1.23866e-06 0.199999 -1.23866e-06
7 1 -1.23866e-06 0.199999 0.199999
26 1 0.199999 -1.23866e-06 -1.23866e-06
27 1 0.199999 -1.23866e-06 0.199999
31 1 0.199999 0.199999 -1.23866e-06
32 1 0.199999 0.199999 0.199999
126 1 0.0500012 0.0500012 0.0500012
51 1 0.399999 -1.23866e-06 -1.23866e-06
52 1 0.399999 -1.23866e-06 0.199999
56 1 0.399999 0.199999 -1.23866e-06
57 1 0.399999 0.199999 0.199999
151 1 0.250001 0.0500012 0.0500012
76 1 0.599999 -1.23866e-06 -1.23866e-06
77 1 0.599999 -1.23866e-06 0.199999
81 1 0.599999 0.199999 -1.23866e-06
82 1 0.599999 0.199999 0.199999
176 1 0.450001 0.0500012 0.0500012
101 1 0.799999 -1.23866e-06 -1.23866e-06
102 1 0.799999 -1.23866e-06 0.199999
106 1 0.799999 0.199999 -1.23866e-06
107 1 0.799999 0.199999 0.199999
201 1 0.650001 0.0500012 0.0500012
226 1 0.850001 0.0500012 0.0500012
11 1 -1.23866e-06 0.399999 -1.23866e-06
12 1 -1.23866e-06 0.399999 0.199999
36 1 0.199999 0.399999 -1.23866e-06
37 1 0.199999 0.399999 0.199999
131 1 0.0500012 0.250001 0.0500012
61 1 0.399999 0.399999 -1.23866e-06
62 1 0.399999 0.399999 0.199999
156 1 0.250001 0.250001 0.0500012
86 1 0.599999 0.399999 -1.23866e-06
87 1 0.599999 0.399999 0.199999
181 1 0.450001 0.250001 0.0500012
111 1 0.799999 0.399999 -1.23866e-06
112 1 0.799999 0.399999 0.199999
206 1 0.650001 0.250001 0.0500012
231 1 0.850001 0.250001 0.0500012
16 1 -1.23866e-06 0.599999 -1.23866e-06
17 1 -1.23866e-06 0.599999 0.199999
41 1 0.199999 0.599999 -1.23866e-06
42 1 0.199999 0.599999 0.199999
136 1 0.0500012 0.450001 0.0500012
66 1 0.399999 0.599999 -1.23866e-06
67 1 0.399999 0.599999 0.199999
161 1 0.250001 0.450001 0.0500012
91 1 0.599999 0.599999 -1.23866e-06
92 1 0.599999 0.599999 0.199999
186 1 0.450001 0.450001 0.0500012
116 1 0.799999 0.599999 -1.23866e-06
117 1 0.799999 0.599999 0.199999
211 1 0.650001 0.450001 0.0500012
236 1 0.850001 0.450001 0.0500012
21 1 -1.23866e-06 0.799999 -1.23866e-06
22 1 -1.23866e-06 0.799999 0.199999
46 1 0.199999 0.799999 -1.23866e-06
47 1 0.199999 0.799999 0.199999
141 1 0.0500012 0.650001 0.0500012
71 1 0.399999 0.799999 -1.23866e-06
72 1 0.399999 0.799999 0.199999
166 1 0.250001 0.650001 0.0500012
96 1 0.599999 0.799999 -1.23866e-06
97 1 0.599999 0.799999 0.199999
191 1 0.450001 0.650001 0.0500012
121 1 0.799999 0.799999 -1.23866e-06
122 1 0.799999 0.799999 0.199999
216 1 0.650001 0.650001 0.0500012
241 1 0.850001 0.650001 0.0500012
146 1 0.0500012 0.850001 0.0500012
171 1 0.250001 0.850001 0.0500012
196 1 0.450001 0.850001 0.0500012
221 1 0.650001 0.850001 0.0500012
246 1 0.850001 0.850001 0.0500012
3 1 -1.23866e-06 -1.23866e-06 0.399999
8 1 -1.23866e-06 0.199999 0.399999
28 1 0.199999 -1.23866e-06 0.399999
33 1 0.199999 0.199999 0.399999
127 1 0.0500012 0.0500012 0.250001
53 1 0.399999 -1.23866e-06 0.399999
58 1 0.399999 0.199999 0.399999
152 1 0.250001 0.0500012 0.250001
78 1 0.599999 -1.23866e-06 0.399999
83 1 0.599999 0.199999 0.399999
177 1 0.450001 0.0500012 0.250001
103 1 0.799999 -1.23866e-06 0.399999
108 1 0.799999 0.199999 0.399999
202 1 0.650001 0.0500012 0.250001
227 1 0.850001 0.0500012 0.250001
13 1 -1.23866e-06 0.399999 0.399999
38 1 0.199999 0.399999 0.399999
132 1 0.0500012 0.250001 0.250001
63 1 0.399999 0.399999 0.399999
157 1 0.250001 0.250001 0.250001
88 1 0.599999 0.399999 0.399999
182 1 0.450001 0.250001 0.250001
113 1 0.799999 0.399999 0.399999
207 1 0.650001 0.250001 0.250001
232 1 0.850001 0.250001 0.250001
18 1 -1.23866e-06 0.599999 0.399999
43 1 0.199999 0.599999 0.399999
137 1 0.0500012 0.450001 0.250001
68 1 0.399999 0.599999 0.399999
162 1 0.250001 0.450001 0.250001
93 1 0.599999 0.599999 0.399999
187 1 0.450001 0.450001 0.250001
118 1 0.799999 0.599999 0.399999
212 1 0.650001 0.450001 0.250001
237 1 0.850001 0.450001 0.250001
23 1 -1.23866e-06 0.799999 0.399999
48 1 0.199999 0.799999 0.399999
142 1 0.0500012 0.650001 0.250001
73 1 0.399999 0.799999 0.399999
167 1 0.250001 0.650001 0.250001
98 1 0.599999 0.799999 0.399999
192 1 0.450001 0.650001 0.250001
123 1 0.799999 0.799999 0.399999
217 1 0.650001 0.650001 0.250001
242 1 0.850001 0.650001 0.250001
147 1 0.0500012 0.850001 0.250001
172 1 0.250001 0.850001 0.250001
197 1 0.450001 0.850001 0.250001
222 1 0.650001 0.850001 0.250001
247 1 0.850001 0.850001 0.250001
4 1 -1.23866e-06 -1.23866e-06 0.599999
9 1 -1.23866e-06 0.199999 0.599999
29 1 0.199999 -1.23866e-06 0.599999
34 1 0.199999 0.199999 0.599999
128 1 0.0500012 0.0500012 0.450001
54 1 0.399999 -1.23866e-06 0.599999
59 1 0.399999 0.199999 0.599999
153 1 0.250001 0.0500012 0.450001
79 1 0.599999 -1.23866e-06 0.599999
84 1 0.599999 0.199999 0.599999
178 1 0.450001 0.0500012 0.450001
104 1 0.799999 -1.23866e-06 0.599999
109 1 0.799999 0.199999 0.599999
203 1 0.650001 0.0500012 0.450001
228 1 0.850001 0.0500012 0.450001
14 1 -1.23866e-06 0.399999 0.599999
39 1 0.199999 0.399999 0.599999
133 1 0.0500012 0.250001 0.450001
64 1 0.399999 0.399999 0.599999
158 1 0.250001 0.250001 0.450001
89 1 0.599999 0.399999 0.599999
183 1 0.450001 0.250001 0.450001
114 1 0.799999 0.399999 0.599999
208 1 0.650001 0.250001 0.450001
233 1 0.850001 0.250001 0.450001
19 1 -1.23866e-06 0.599999 0.599999
44 1 0.199999 0.599999 0.599999
138 1 0.0500012 0.450001 0.450001
69 1 0.399999 0.599999 0.599999
163 1 0.250001 0.450001 0.450001
94 1 0.599999 0.599999 0.599999
188 1 0.450001 0.450001 0.450001
119 1 0.799999 0.599999 0.599999
213 1 0.650001 0.450001 0.450001
238 1 0.850001 0.450001 0.450001
24 1 -1.23866e-06 0.799999 0.599999
49 1 0.199999 0.799999 0.599999
143 1 0.0500012 0.650001 0.450001
74 1 0.399999 0.799999 0.599999
168 1 0.250001 0.650001 0.450001
99 1 0.599999 0.799999 0.599999
193 1 0.450001 0.650001 0.450001
124 1 0.799999 0.799999 0.599999
218 1 0.650001 0.650001 0.450001
243 1 0.850001 0.650001 0.450001
148 1 0.0500012 0.850001 0.450001
173 1 0.250001 0.850001 0.450001
198 1 0.450001 0.850001 0.450001
223 1 0.650001 0.850001 0.450001
248 1 0.850001 0.850001 0.450001
5 1 -1.23866e-06 -1.23866e-06 0.799999
10 1 -1.23866e-06 0.199999 0.799999
30 1 0.199999 -1.23866e-06 0.799999
35 1 0.199999 0.199999 0.799999
129 1 0.0500012 0.0500012 0.650001
55 1 0.399999 -1.23866e-06 0.799999
60 1 0.399999 0.199999 0.799999
154 1 0.250001 0.0500012 0.650001
80 1 0.599999 -1.23866e-06 0.799999
85 1 0.599999 0.199999 0.799999
179 1 0.450001 0.0500012 0.650001
105 1 0.799999 -1.23866e-06 0.799999
110 1 0.799999 0.199999 0.799999
204 1 0.650001 0.0500012 0.650001
229 1 0.850001 0.0500012 0.650001
15 1 -1.23866e-06 0.399999 0.799999
40 1 0.199999 0.399999 0.799999
134 1 0.0500012 0.250001 0.650001
65 1 0.399999 0.399999 0.799999
159 1 0.250001 0.250001 0.650001
90 1 0.599999 0.399999 0.799999
184 1 0.450001 0.250001 0.650001
115 1 0.799999 0.399999 0.799999
209 1 0.650001 0.250001 0.650001
234 1 0.850001 0.250001 0.650001
20 1 -1.23866e-06 0.599999 0.799999
45 1 0.199999 0.599999 0.799999
139 1 0.0500012 0.450001 0.650001
70 1 0.399999 0.599999 0.799999
164 1 0.250001 0.450001 0.650001
95 1 0.599999 0.599999 0.799999
189 1 0.450001 0.450001 0.650001
120 1 0.799999 0.599999 0.799999
214 1 0.650001 0.450001 0.650001
239 1 0.850001 0.450001 0.650001
25 1 -1.23866e-06 0.799999 0.799999
50 1 0.199999 0.799999 0.799999
144 1 0.0500012 0.650001 0.650001
75 1 0.399999 0.799999 0.799999
169 1 0.250001 0.650001 0.650001
100 1 0.599999 0.799999 0.799999
194 1 0.450001 0.650001 0.650001
125 1 0.799999 0.799999 0.799999
219 1 0.650001 0.650001 0.650001
244 1 0.850001 0.650001 0.650001
149 1 0.0500012 0.850001 0.650001
174 1 0.250001 0.850001 0.650001
199 1 0.450001 0.850001 0.650001
224 1 0.650001 0.850001 0.650001
249 1 0.850001 0.850001 0.650001
130 1 0.0500012 0.0500012 0.850001
155 1 0.250001 0.0500012 0.850001
180 1 0.450001 0.0500012 0.850001
205 1 0.650001 0.0500012 0.850001
230 1 0.850001 0.0500012 0.850001
135 1 0.0500012 0.250001 0.850001
160 1 0.250001 0.250001 0.850001
185 1 0.450001 0.250001 0.850001
210 1 0.650001 0.250001 0.850001
235 1 0.850001 0.250001 0.850001
140 1 0.0500012 0.450001 0.850001
165 1 0.250001 0.450001 0.850001
190 1 0.450001 0.450001 0.850001
215 1 0.650001 0.450001 0.850001
240 1 0.850001 0.450001 0.850001
145 1 0.0500012 0.650001 0.850001
170 1 0.250001 0.650001 0.850001
195 1 0.450001 0.650001 0.850001
220 1 0.650001 0.650001 0.850001
245 1 0.850001 0.650001 0.850001
150 1 0.0500012 0.850001 0.850001
175 1 0.250001 0.850001 0.850001
200 1 0.450001 0.850001 0.850001
225 1 0.650001 0.850001 0.850001
250 1 0.850001 0.850001 0.850001
ITEM: TIMESTEP
10
ITEM: NUMBER OF ATOMS
250
ITEM: BOX BOUNDS pp pp pp
-6.8250000000000033e-02 1.3718249999999992e+01
-6.8250000000000033e-02 1.3718249999999992e+01
-6.8250000000000033e-02 1.3718249999999992e+01
ITEM: ATOMS id type xs ys zs
1 1 -2.4812e-06 -2.4812e-06 -2.4812e-06
2 1 -2.4812e-06 -2.4812e-06 0.199998
6 1 -2.4812e-06 0.199998 -2.4812e-06
7 1 -2.4812e-06 0.199998 0.199998
26 1 0.199998 -2.4812e-06 -2.4812e-06
27 1 0.199998 -2.4812e-06 0.199998
31 1 0.199998 0.199998 -2.4812e-06
32 1 0.199998 0.199998 0.199998
126 1 0.0500025 0.0500025 0.0500025
51 1 0.399998 -2.4812e-06 -2.4812e-06
52 1 0.399998 -2.4812e-06 0.199998
56 1 0.399998 0.199998 -2.4812e-06
57 1 0.399998 0.199998 0.199998
151 1 0.250002 0.0500025 0.0500025
76 1 0.599998 -2.4812e-06 -2.4812e-06
77 1 0.599998 -2.4812e-06 0.199998
81 1 0.599998 0.199998 -2.4812e-06
82 1 0.599998 0.199998 0.199998
176 1 0.450002 0.0500025 0.0500025
101 1 0.799998 -2.4812e-06 -2.4812e-06
102 1 0.799998 -2.4812e-06 0.199998
106 1 0.799998 0.199998 -2.4812e-06
107 1 0.799998 0.199998 0.199998
201 1 0.650002 0.0500025 0.0500025
226 1 0.850002 0.0500025 0.0500025
11 1 -2.4812e-06 0.399998 -2.4812e-06
12 1 -2.4812e-06 0.399998 0.199998
36 1 0.199998 0.399998 -2.4812e-06
37 1 0.199998 0.399998 0.199998
131 1 0.0500025 0.250002 0.0500025
61 1 0.399998 0.399998 -2.4812e-06
62 1 0.399998 0.399998 0.199998
156 1 0.250002 0.250002 0.0500025
86 1 0.599998 0.399998 -2.4812e-06
87 1 0.599998 0.399998 0.199998
181 1 0.450002 0.250002 0.0500025
111 1 0.799998 0.399998 -2.4812e-06
112 1 0.799998 0.399998 0.199998
206 1 0.650002 0.250002 0.0500025
231 1 0.850002 0.250002 0.0500025
16 1 -2.4812e-06 0.599998 -2.4812e-06
17 1 -2.4812e-06 0.599998 0.199998
41 1 0.199998 0.599998 -2.4812e-06
42 1 0.199998 0.599998 0.199998
136 1 0.0500025 0.450002 0.0500025
66 1 0.399998 0.599998 -2.4812e-06
67 1 0.399998 0.599998 0.199998
161 1 0.250002 0.450002 0.0500025
91 1 0.599998 0.599998 -2.4812e-06
92 1 0.599998 0.599998 0.199998
186 1 0.450002 0.450002 0.0500025
116 1 0.799998 0.599998 -2.4812e-06
117 1 0.799998 0.599998 0.199998
211 1 0.650002 0.450002 0.0500025
236 1 0.850002 0.450002 0.0500025
21 1 -2.4812e-06 0.799998 -2.4812e-06
22 1 -2.4812e-06 0.799998 0.199998
46 1 0.199998 0.799998 -2.4812e-06
47 1 0.199998 0.799998 0.199998
141 1 0.0500025 0.650002 0.0500025
71 1 0.399998 0.799998 -2.4812e-06
72 1 0.399998 0.799998 0.199998
166 1 0.250002 0.650002 0.0500025
96 1 0.599998 0.799998 -2.4812e-06
97 1 0.599998 0.799998 0.199998
191 1 0.450002 0.650002 0.0500025
121 1 0.799998 0.799998 -2.4812e-06
122 1 0.799998 0.799998 0.199998
216 1 0.650002 0.650002 0.0500025
241 1 0.850002 0.650002 0.0500025
146 1 0.0500025 0.850002 0.0500025
171 1 0.250002 0.850002 0.0500025
196 1 0.450002 0.850002 0.0500025
221 1 0.650002 0.850002 0.0500025
246 1 0.850002 0.850002 0.0500025
3 1 -2.4812e-06 -2.4812e-06 0.399998
8 1 -2.4812e-06 0.199998 0.399998
28 1 0.199998 -2.4812e-06 0.399998
33 1 0.199998 0.199998 0.399998
127 1 0.0500025 0.0500025 0.250002
53 1 0.399998 -2.4812e-06 0.399998
58 1 0.399998 0.199998 0.399998
152 1 0.250002 0.0500025 0.250002
78 1 0.599998 -2.4812e-06 0.399998
83 1 0.599998 0.199998 0.399998
177 1 0.450002 0.0500025 0.250002
103 1 0.799998 -2.4812e-06 0.399998
108 1 0.799998 0.199998 0.399998
202 1 0.650002 0.0500025 0.250002
227 1 0.850002 0.0500025 0.250002
13 1 -2.4812e-06 0.399998 0.399998
38 1 0.199998 0.399998 0.399998
132 1 0.0500025 0.250002 0.250002
63 1 0.399998 0.399998 0.399998
157 1 0.250002 0.250002 0.250002
88 1 0.599998 0.399998 0.399998
182 1 0.450002 0.250002 0.250002
113 1 0.799998 0.399998 0.399998
207 1 0.650002 0.250002 0.250002
232 1 0.850002 0.250002 0.250002
18 1 -2.4812e-06 0.599998 0.399998
43 1 0.199998 0.599998 0.399998
137 1 0.0500025 0.450002 0.250002
68 1 0.399998 0.599998 0.399998
162 1 0.250002 0.450002 0.250002
93 1 0.599998 0.599998 0.399998
187 1 0.450002 0.450002 0.250002
118 1 0.799998 0.599998 0.399998
212 1 0.650002 0.450002 0.250002
237 1 0.850002 0.450002 0.250002
23 1 -2.4812e-06 0.799998 0.399998
48 1 0.199998 0.799998 0.399998
142 1 0.0500025 0.650002 0.250002
73 1 0.399998 0.799998 0.399998
167 1 0.250002 0.650002 0.250002
98 1 0.599998 0.799998 0.399998
192 1 0.450002 0.650002 0.250002
123 1 0.799998 0.799998 0.399998
217 1 0.650002 0.650002 0.250002
242 1 0.850002 0.650002 0.250002
147 1 0.0500025 0.850002 0.250002
172 1 0.250002 0.850002 0.250002
197 1 0.450002 0.850002 0.250002
222 1 0.650002 0.850002 0.250002
247 1 0.850002 0.850002 0.250002
4 1 -2.4812e-06 -2.4812e-06 0.599998
9 1 -2.4812e-06 0.199998 0.599998
29 1 0.199998 -2.4812e-06 0.599998
34 1 0.199998 0.199998 0.599998
128 1 0.0500025 0.0500025 0.450002
54 1 0.399998 -2.4812e-06 0.599998
59 1 0.399998 0.199998 0.599998
153 1 0.250002 0.0500025 0.450002
79 1 0.599998 -2.4812e-06 0.599998
84 1 0.599998 0.199998 0.599998
178 1 0.450002 0.0500025 0.450002
104 1 0.799998 -2.4812e-06 0.599998
109 1 0.799998 0.199998 0.599998
203 1 0.650002 0.0500025 0.450002
228 1 0.850002 0.0500025 0.450002
14 1 -2.4812e-06 0.399998 0.599998
39 1 0.199998 0.399998 0.599998
133 1 0.0500025 0.250002 0.450002
64 1 0.399998 0.399998 0.599998
158 1 0.250002 0.250002 0.450002
89 1 0.599998 0.399998 0.599998
183 1 0.450002 0.250002 0.450002
114 1 0.799998 0.399998 0.599998
208 1 0.650002 0.250002 0.450002
233 1 0.850002 0.250002 0.450002
19 1 -2.4812e-06 0.599998 0.599998
44 1 0.199998 0.599998 0.599998
138 1 0.0500025 0.450002 0.450002
69 1 0.399998 0.599998 0.599998
163 1 0.250002 0.450002 0.450002
94 1 0.599998 0.599998 0.599998
188 1 0.450002 0.450002 0.450002
119 1 0.799998 0.599998 0.599998
213 1 0.650002 0.450002 0.450002
238 1 0.850002 0.450002 0.450002
24 1 -2.4812e-06 0.799998 0.599998
49 1 0.199998 0.799998 0.599998
143 1 0.0500025 0.650002 0.450002
74 1 0.399998 0.799998 0.599998
168 1 0.250002 0.650002 0.450002
99 1 0.599998 0.799998 0.599998
193 1 0.450002 0.650002 0.450002
124 1 0.799998 0.799998 0.599998
218 1 0.650002 0.650002 0.450002
243 1 0.850002 0.650002 0.450002
148 1 0.0500025 0.850002 0.450002
173 1 0.250002 0.850002 0.450002
198 1 0.450002 0.850002 0.450002
223 1 0.650002 0.850002 0.450002
248 1 0.850002 0.850002 0.450002
5 1 -2.4812e-06 -2.4812e-06 0.799998
10 1 -2.4812e-06 0.199998 0.799998
30 1 0.199998 -2.4812e-06 0.799998
35 1 0.199998 0.199998 0.799998
129 1 0.0500025 0.0500025 0.650002
55 1 0.399998 -2.4812e-06 0.799998
60 1 0.399998 0.199998 0.799998
154 1 0.250002 0.0500025 0.650002
80 1 0.599998 -2.4812e-06 0.799998
85 1 0.599998 0.199998 0.799998
179 1 0.450002 0.0500025 0.650002
105 1 0.799998 -2.4812e-06 0.799998
110 1 0.799998 0.199998 0.799998
204 1 0.650002 0.0500025 0.650002
229 1 0.850002 0.0500025 0.650002
15 1 -2.4812e-06 0.399998 0.799998
40 1 0.199998 0.399998 0.799998
134 1 0.0500025 0.250002 0.650002
65 1 0.399998 0.399998 0.799998
159 1 0.250002 0.250002 0.650002
90 1 0.599998 0.399998 0.799998
184 1 0.450002 0.250002 0.650002
115 1 0.799998 0.399998 0.799998
209 1 0.650002 0.250002 0.650002
234 1 0.850002 0.250002 0.650002
20 1 -2.4812e-06 0.599998 0.799998
45 1 0.199998 0.599998 0.799998
139 1 0.0500025 0.450002 0.650002
70 1 0.399998 0.599998 0.799998
164 1 0.250002 0.450002 0.650002
95 1 0.599998 0.599998 0.799998
189 1 0.450002 0.450002 0.650002
120 1 0.799998 0.599998 0.799998
214 1 0.650002 0.450002 0.650002
239 1 0.850002 0.450002 0.650002
25 1 -2.4812e-06 0.799998 0.799998
50 1 0.199998 0.799998 0.799998
144 1 0.0500025 0.650002 0.650002
75 1 0.399998 0.799998 0.799998
169 1 0.250002 0.650002 0.650002
100 1 0.599998 0.799998 0.799998
194 1 0.450002 0.650002 0.650002
125 1 0.799998 0.799998 0.799998
219 1 0.650002 0.650002 0.650002
244 1 0.850002 0.650002 0.650002
149 1 0.0500025 0.850002 0.650002
174 1 0.250002 0.850002 0.650002
199 1 0.450002 0.850002 0.650002
224 1 0.650002 0.850002 0.650002
249 1 0.850002 0.850002 0.650002
130 1 0.0500025 0.0500025 0.850002
155 1 0.250002 0.0500025 0.850002
180 1 0.450002 0.0500025 0.850002
205 1 0.650002 0.0500025 0.850002
230 1 0.850002 0.0500025 0.850002
135 1 0.0500025 0.250002 0.850002
160 1 0.250002 0.250002 0.850002
185 1 0.450002 0.250002 0.850002
210 1 0.650002 0.250002 0.850002
235 1 0.850002 0.250002 0.850002
140 1 0.0500025 0.450002 0.850002
165 1 0.250002 0.450002 0.850002
190 1 0.450002 0.450002 0.850002
215 1 0.650002 0.450002 0.850002
240 1 0.850002 0.450002 0.850002
145 1 0.0500025 0.650002 0.850002
170 1 0.250002 0.650002 0.850002
195 1 0.450002 0.650002 0.850002
220 1 0.650002 0.650002 0.850002
245 1 0.850002 0.650002 0.850002
150 1 0.0500025 0.850002 0.850002
175 1 0.250002 0.850002 0.850002
200 1 0.450002 0.850002 0.850002
225 1 0.650002 0.850002 0.850002
250 1 0.850002 0.850002 0.850002
ITEM: TIMESTEP
15
ITEM: NUMBER OF ATOMS
250
ITEM: BOX BOUNDS pp pp pp
-1.0237500000000008e-01 1.3752374999999988e+01
-1.0237500000000008e-01 1.3752374999999988e+01
-1.0237500000000008e-01 1.3752374999999988e+01
ITEM: ATOMS id type xs ys zs
1 1 -3.72805e-06 -3.72805e-06 -3.72805e-06
2 1 -3.72805e-06 -3.72805e-06 0.199996
6 1 -3.72805e-06 0.199996 -3.72805e-06
7 1 -3.72805e-06 0.199996 0.199996
26 1 0.199996 -3.72805e-06 -3.72805e-06
27 1 0.199996 -3.72805e-06 0.199996
31 1 0.199996 0.199996 -3.72805e-06
32 1 0.199996 0.199996 0.199996
126 1 0.0500037 0.0500037 0.0500037
51 1 0.399996 -3.72805e-06 -3.72805e-06
52 1 0.399996 -3.72805e-06 0.199996
56 1 0.399996 0.199996 -3.72805e-06
57 1 0.399996 0.199996 0.199996
151 1 0.250004 0.0500037 0.0500037
76 1 0.599996 -3.72805e-06 -3.72805e-06
77 1 0.599996 -3.72805e-06 0.199996
81 1 0.599996 0.199996 -3.72805e-06
82 1 0.599996 0.199996 0.199996
176 1 0.450004 0.0500037 0.0500037
101 1 0.799996 -3.72805e-06 -3.72805e-06
102 1 0.799996 -3.72805e-06 0.199996
106 1 0.799996 0.199996 -3.72805e-06
107 1 0.799996 0.199996 0.199996
201 1 0.650004 0.0500037 0.0500037
226 1 0.850004 0.0500037 0.0500037
11 1 -3.72805e-06 0.399996 -3.72805e-06
12 1 -3.72805e-06 0.399996 0.199996
36 1 0.199996 0.399996 -3.72805e-06
37 1 0.199996 0.399996 0.199996
131 1 0.0500037 0.250004 0.0500037
61 1 0.399996 0.399996 -3.72805e-06
62 1 0.399996 0.399996 0.199996
156 1 0.250004 0.250004 0.0500037
86 1 0.599996 0.399996 -3.72805e-06
87 1 0.599996 0.399996 0.199996
181 1 0.450004 0.250004 0.0500037
111 1 0.799996 0.399996 -3.72805e-06
112 1 0.799996 0.399996 0.199996
206 1 0.650004 0.250004 0.0500037
231 1 0.850004 0.250004 0.0500037
16 1 -3.72805e-06 0.599996 -3.72805e-06
17 1 -3.72805e-06 0.599996 0.199996
41 1 0.199996 0.599996 -3.72805e-06
42 1 0.199996 0.599996 0.199996
136 1 0.0500037 0.450004 0.0500037
66 1 0.399996 0.599996 -3.72805e-06
67 1 0.399996 0.599996 0.199996
161 1 0.250004 0.450004 0.0500037
91 1 0.599996 0.599996 -3.72805e-06
92 1 0.599996 0.599996 0.199996
186 1 0.450004 0.450004 0.0500037
116 1 0.799996 0.599996 -3.72805e-06
117 1 0.799996 0.599996 0.199996
211 1 0.650004 0.450004 0.0500037
236 1 0.850004 0.450004 0.0500037
21 1 -3.72805e-06 0.799996 -3.72805e-06
22 1 -3.72805e-06 0.799996 0.199996
46 1 0.199996 0.799996 -3.72805e-06
47 1 0.199996 0.799996 0.199996
141 1 0.0500037 0.650004 0.0500037
71 1 0.399996 0.799996 -3.72805e-06
72 1 0.399996 0.799996 0.199996
166 1 0.250004 0.650004 0.0500037
96 1 0.599996 0.799996 -3.72805e-06
97 1 0.599996 0.799996 0.199996
191 1 0.450004 0.650004 0.0500037
121 1 0.799996 0.799996 -3.72805e-06
122 1 0.799996 0.799996 0.199996
216 1 0.650004 0.650004 0.0500037
241 1 0.850004 0.650004 0.0500037
146 1 0.0500037 0.850004 0.0500037
171 1 0.250004 0.850004 0.0500037
196 1 0.450004 0.850004 0.0500037
221 1 0.650004 0.850004 0.0500037
246 1 0.850004 0.850004 0.0500037
3 1 -3.72805e-06 -3.72805e-06 0.399996
8 1 -3.72805e-06 0.199996 0.399996
28 1 0.199996 -3.72805e-06 0.399996
33 1 0.199996 0.199996 0.399996
127 1 0.0500037 0.0500037 0.250004
53 1 0.399996 -3.72805e-06 0.399996
58 1 0.399996 0.199996 0.399996
152 1 0.250004 0.0500037 0.250004
78 1 0.599996 -3.72805e-06 0.399996
83 1 0.599996 0.199996 0.399996
177 1 0.450004 0.0500037 0.250004
103 1 0.799996 -3.72805e-06 0.399996
108 1 0.799996 0.199996 0.399996
202 1 0.650004 0.0500037 0.250004
227 1 0.850004 0.0500037 0.250004
13 1 -3.72805e-06 0.399996 0.399996
38 1 0.199996 0.399996 0.399996
132 1 0.0500037 0.250004 0.250004
63 1 0.399996 0.399996 0.399996
157 1 0.250004 0.250004 0.250004
88 1 0.599996 0.399996 0.399996
182 1 0.450004 0.250004 0.250004
113 1 0.799996 0.399996 0.399996
207 1 0.650004 0.250004 0.250004
232 1 0.850004 0.250004 0.250004
18 1 -3.72805e-06 0.599996 0.399996
43 1 0.199996 0.599996 0.399996
137 1 0.0500037 0.450004 0.250004
68 1 0.399996 0.599996 0.399996
162 1 0.250004 0.450004 0.250004
93 1 0.599996 0.599996 0.399996
187 1 0.450004 0.450004 0.250004
118 1 0.799996 0.599996 0.399996
212 1 0.650004 0.450004 0.250004
237 1 0.850004 0.450004 0.250004
23 1 -3.72805e-06 0.799996 0.399996
48 1 0.199996 0.799996 0.399996
142 1 0.0500037 0.650004 0.250004
73 1 0.399996 0.799996 0.399996
167 1 0.250004 0.650004 0.250004
98 1 0.599996 0.799996 0.399996
192 1 0.450004 0.650004 0.250004
123 1 0.799996 0.799996 0.399996
217 1 0.650004 0.650004 0.250004
242 1 0.850004 0.650004 0.250004
147 1 0.0500037 0.850004 0.250004
172 1 0.250004 0.850004 0.250004
197 1 0.450004 0.850004 0.250004
222 1 0.650004 0.850004 0.250004
247 1 0.850004 0.850004 0.250004
4 1 -3.72805e-06 -3.72805e-06 0.599996
9 1 -3.72805e-06 0.199996 0.599996
29 1 0.199996 -3.72805e-06 0.599996
34 1 0.199996 0.199996 0.599996
128 1 0.0500037 0.0500037 0.450004
54 1 0.399996 -3.72805e-06 0.599996
59 1 0.399996 0.199996 0.599996
153 1 0.250004 0.0500037 0.450004
79 1 0.599996 -3.72805e-06 0.599996
84 1 0.599996 0.199996 0.599996
178 1 0.450004 0.0500037 0.450004
104 1 0.799996 -3.72805e-06 0.599996
109 1 0.799996 0.199996 0.599996
203 1 0.650004 0.0500037 0.450004
228 1 0.850004 0.0500037 0.450004
14 1 -3.72805e-06 0.399996 0.599996
39 1 0.199996 0.399996 0.599996
133 1 0.0500037 0.250004 0.450004
64 1 0.399996 0.399996 0.599996
158 1 0.250004 0.250004 0.450004
89 1 0.599996 0.399996 0.599996
183 1 0.450004 0.250004 0.450004
114 1 0.799996 0.399996 0.599996
208 1 0.650004 0.250004 0.450004
233 1 0.850004 0.250004 0.450004
19 1 -3.72805e-06 0.599996 0.599996
44 1 0.199996 0.599996 0.599996
138 1 0.0500037 0.450004 0.450004
69 1 0.399996 0.599996 0.599996
163 1 0.250004 0.450004 0.450004
94 1 0.599996 0.599996 0.599996
188 1 0.450004 0.450004 0.450004
119 1 0.799996 0.599996 0.599996
213 1 0.650004 0.450004 0.450004
238 1 0.850004 0.450004 0.450004
24 1 -3.72805e-06 0.799996 0.599996
49 1 0.199996 0.799996 0.599996
143 1 0.0500037 0.650004 0.450004
74 1 0.399996 0.799996 0.599996
168 1 0.250004 0.650004 0.450004
99 1 0.599996 0.799996 0.599996
193 1 0.450004 0.650004 0.450004
124 1 0.799996 0.799996 0.599996
218 1 0.650004 0.650004 0.450004
243 1 0.850004 0.650004 0.450004
148 1 0.0500037 0.850004 0.450004
173 1 0.250004 0.850004 0.450004
198 1 0.450004 0.850004 0.450004
223 1 0.650004 0.850004 0.450004
248 1 0.850004 0.850004 0.450004
5 1 -3.72805e-06 -3.72805e-06 0.799996
10 1 -3.72805e-06 0.199996 0.799996
30 1 0.199996 -3.72805e-06 0.799996
35 1 0.199996 0.199996 0.799996
129 1 0.0500037 0.0500037 0.650004
55 1 0.399996 -3.72805e-06 0.799996
60 1 0.399996 0.199996 0.799996
154 1 0.250004 0.0500037 0.650004
80 1 0.599996 -3.72805e-06 0.799996
85 1 0.599996 0.199996 0.799996
179 1 0.450004 0.0500037 0.650004
105 1 0.799996 -3.72805e-06 0.799996
110 1 0.799996 0.199996 0.799996
204 1 0.650004 0.0500037 0.650004
229 1 0.850004 0.0500037 0.650004
15 1 -3.72805e-06 0.399996 0.799996
40 1 0.199996 0.399996 0.799996
134 1 0.0500037 0.250004 0.650004
65 1 0.399996 0.399996 0.799996
159 1 0.250004 0.250004 0.650004
90 1 0.599996 0.399996 0.799996
184 1 0.450004 0.250004 0.650004
115 1 0.799996 0.399996 0.799996
209 1 0.650004 0.250004 0.650004
234 1 0.850004 0.250004 0.650004
20 1 -3.72805e-06 0.599996 0.799996
45 1 0.199996 0.599996 0.799996
139 1 0.0500037 0.450004 0.650004
70 1 0.399996 0.599996 0.799996
164 1 0.250004 0.450004 0.650004
95 1 0.599996 0.599996 0.799996
189 1 0.450004 0.450004 0.650004
120 1 0.799996 0.599996 0.799996
214 1 0.650004 0.450004 0.650004
239 1 0.850004 0.450004 0.650004
25 1 -3.72805e-06 0.799996 0.799996
50 1 0.199996 0.799996 0.799996
144 1 0.0500037 0.650004 0.650004
75 1 0.399996 0.799996 0.799996
169 1 0.250004 0.650004 0.650004
100 1 0.599996 0.799996 0.799996
194 1 0.450004 0.650004 0.650004
125 1 0.799996 0.799996 0.799996