 vasp.6.2.1 16May21 (build Oct 27 2021 18:14:32) complex                        
  
 executed on             LinuxIFC date 2021.11.08  17:26:47
 running on    1 total cores
 distrk:  each k-point on    1 cores,    1 groups
 distr:  one band on NCORE=   1 cores,    1 groups


--------------------------------------------------------------------------------------------------------


 INCAR:
   ALGO = Normal
   EDIFF = 1e-07
   EDIFFG = -0.001
   ENAUG = 1360.0
   ENCUT = 700.0
   IBRION = 2
   ISIF = 3
   ISMEAR = -5
   ISPIN = 2
   KSPACING = 0.2925287784072645
   LAECHG = False
   LASPH = True
   LCHARG = True
   LELF = True
   LMIXTAU = True
   LORBIT = 11
   LREAL = False
   LVTOT = True
   LWAVE = False
   MAGMOM = 2*-0.0
   NELM = 200
   NSW = 1
   PREC = Accurate
   SIGMA = 0.05

 POTCAR:    PAW_PBE Si 05Jan2001                  
 WARNING: For LVTOT=.TRUE., VASP.5.x writes the TOTAL local potential to the
     file LOCPOT. If you want only the Hartree contributions, use LVHAR=.TRUE.
     instead. 

 POTCAR:    PAW_PBE Si 05Jan2001                  
   VRHFIN =Si: s2p2                                                                                 
   LEXCH  = PE                                                                                      
   EATOM  =   103.0669 eV,    7.5752 Ry                                                             
                                                                                                    
   TITEL  = PAW_PBE Si 05Jan2001                                                                    
   LULTRA =        F    use ultrasoft PP ?                                                          
   IUNSCR =        1    unscreen: 0-lin 1-nonlin 2-no                                               
   RPACOR =    1.500    partial core radius                                                         
   POMASS =   28.085; ZVAL   =    4.000    mass and valenz                                          
   RCORE  =    1.900    outmost cutoff radius                                                       
   RWIGS  =    2.480; RWIGS  =    1.312    wigner-seitz radius (au A)                               
   ENMAX  =  245.345; ENMIN  =  184.009 eV                                                          
   ICORE  =        2    local potential                                                             
   LCOR   =        T    correct aug charges                                                         
   LPAW   =        T    paw PP                                                                      
   EAUG   =  322.069                                                                                
   DEXC   =    0.000                                                                                
   RMAX   =    1.950    core radius for proj-oper                                                   
   RAUG   =    1.300    factor for augmentation sphere                                              
   RDEP   =    1.993    radius for radial grids                                                     
   RDEPT  =    1.837    core radius for aug-charge                                                  
                                                                                                    
   Atomic configuration                                                                             
    6 entries                                                                                       
     n  l   j            E        occ.                                                              
     1  0  0.50     -1785.8828   2.0000                                                             
     2  0  0.50      -139.4969   2.0000                                                             
     2  1  1.50       -95.5546   6.0000                                                             
     3  0  0.50       -10.8127   2.0000                                                             
     3  1  0.50        -4.0811   2.0000                                                             
     3  2  1.50        -4.0817   0.0000                                                             
   Description                                                                                      
     l       E           TYP  RCUT    TYP  RCUT                                                     
     0    -10.8127223     23  1.900                                                                 
     0     -7.6451159     23  1.900                                                                 
     1     -4.0811372     23  1.900                                                                 
     1      2.4879257     23  1.900                                                                 
     2     -4.0817478      7  1.900                                                                 
  local pseudopotential read in
  partial core-charges read in
  partial kinetic energy density read in
  atomic valenz-charges read in
  non local Contribution for L=           0  read in
    real space projection operators read in
  non local Contribution for L=           0  read in
    real space projection operators read in
  non local Contribution for L=           1  read in
    real space projection operators read in
  non local Contribution for L=           1  read in
    real space projection operators read in
    PAW grid and wavefunctions read in
 
   number of l-projection  operators is LMAX  =           4
   number of lm-projection operators is LMMAX =           8
 
  PAW_PBE Si 05Jan2001                  :
 energy of atom  1       EATOM= -103.0669
 kinetic energy error for atom=    0.0003 (will be added to EATOM!!)
 
 
 POSCAR: Si2
  positions in direct lattice
  No initial velocities read in
 exchange correlation table for  LEXCH =        8
   RHO(1)=    0.500       N(1)  =     2000
   RHO(2)=  100.500       N(2)  =     4000
 


--------------------------------------------------------------------------------------------------------


 ion  position               nearest neighbor table
   1  0.750  0.750  0.750-   2 2.39   2 2.39   2 2.39   2 2.39
   2  0.500  0.500  0.500-   1 2.39   1 2.39   1 2.39   1 2.39
 
  LATTYP: Found a body centered tetragonal cell.
 ALAT       =     3.8930145676
 C/A-ratio  =     1.4282854337
  
  Lattice vectors:
  
 A1 = (   2.7801680000,   0.0000000000,   2.7527770000)
 A2 = (   2.7801680000,   0.0000000000,  -2.7527770000)
 A3 = (  -2.7801680000,   2.7527770000,   0.0000000000)


Analysis of symmetry for initial positions (statically):
=====================================================================
 Subroutine PRICEL returns:
 Original cell was already a primitive cell.
 

 Routine SETGRP: Setting up the symmetry group for a 
 body centered tetragonal supercell.


 Subroutine GETGRP returns: Found 16 space group operations
 (whereof  8 operations were pure point group operations)
 out of a pool of 16 trial point group operations.


The static configuration has the point symmetry D_2d.
 The point group associated with its full space group is D_4h.


Analysis of symmetry for dynamics (positions and initial velocities):
=====================================================================
 Subroutine PRICEL returns:
 Original cell was already a primitive cell.
 

 Routine SETGRP: Setting up the symmetry group for a 
 body centered tetragonal supercell.


 Subroutine GETGRP returns: Found 16 space group operations
 (whereof  8 operations were pure point group operations)
 out of a pool of 16 trial point group operations.


The dynamic configuration has the point symmetry D_2d.
 The point group associated with its full space group is D_4h.


Analysis of structural, dynamic, and magnetic symmetry:
=====================================================================
 Subroutine PRICEL returns:
 Original cell was already a primitive cell.
 

 Routine SETGRP: Setting up the symmetry group for a 
 body centered tetragonal supercell.


 Subroutine GETGRP returns: Found 16 space group operations
 (whereof  8 operations were pure point group operations)
 out of a pool of 16 trial point group operations.


The overall configuration has the point symmetry D_2d.
 The point group associated with its full space group is D_4h.


 Subroutine INISYM returns: Found 16 space group operations
 (whereof  8 operations are pure point group operations),
 and found     1 'primitive' translations


----------------------------------------------------------------------------------------

                                     Primitive cell                                     

  volume of cell :      42.1350

  direct lattice vectors                    reciprocal lattice vectors
     0.000000000  2.752777000  2.752777000    -0.179845247  0.181634764  0.181634764
     2.780168000  0.000000000  2.752777000     0.179845247 -0.181634764  0.181634764
     2.780168000  2.752777000  0.000000000     0.179845247  0.181634764 -0.181634764

  length of vectors
     3.893014568  3.912430871  3.912430871     0.313570865  0.313570865  0.313570865

  position of ions in fractional coordinates (direct lattice)
     0.750000000  0.750000000  0.750000000
     0.500000000  0.500000000  0.500000000

  ion indices of the primitive-cell ions
   primitive index   ion index
                 1           1
                 2           2

----------------------------------------------------------------------------------------

 
 
 KPOINTS: pymatgen with grid density = 100 / numbe

Automatic generation of k-mesh.
 Grid dimensions read from file:
 generate k-points for:    3    3    3

 Generating k-lattice:

  Cartesian coordinates                     Fractional coordinates (reciprocal lattice)
    -0.059948416  0.060544921  0.060544921     0.333333333  0.000000000  0.000000000
     0.059948416 -0.060544921  0.060544921     0.000000000  0.333333333 -0.000000000
     0.059948416  0.060544921 -0.060544921    -0.000000000 -0.000000000  0.333333333

  Length of vectors
     0.104523622  0.104523622  0.104523622

  Shift w.r.t. Gamma in fractional coordinates (k-lattice)
     0.000000000  0.000000000  0.000000000

 TETIRR: Found     17 inequivalent tetrahedra from      162
 
 Subroutine IBZKPT returns following result:
 ===========================================
 
 Found      6 irreducible k-points:
 
 Following reciprocal coordinates:
            Coordinates               Weight
  0.000000  0.000000  0.000000      1.000000
  0.333333  0.000000  0.000000      8.000000
  0.333333  0.333333  0.000000      4.000000
 -0.333333  0.333333  0.000000      8.000000
 -0.000000  0.333333  0.333333      2.000000
 -0.333333  0.333333  0.333333      4.000000
 
 Following cartesian coordinates:
            Coordinates               Weight
  0.000000  0.000000  0.000000      1.000000
 -0.059948  0.060545  0.060545      8.000000
  0.000000  0.000000  0.121090      4.000000
  0.119897 -0.121090 -0.000000      8.000000
  0.119897  0.000000 -0.000000      2.000000
  0.179845 -0.060545 -0.060545      4.000000
 


--------------------------------------------------------------------------------------------------------




 Dimension of arrays:
   k-points           NKPTS =      6   k-points in BZ     NKDIM =      6   number of bands    NBANDS=      8
   number of dos      NEDOS =    301   number of ions     NIONS =      2
   non local maximal  LDIM  =      4   non local SUM 2l+1 LMDIM =      8
   total plane-waves  NPLWV =  46656
   max r-space proj   IRMAX =      1   max aug-charges    IRDMAX=  37218
   dimension x,y,z NGX =    36 NGY =   36 NGZ =   36
   dimension x,y,z NGXF=    72 NGYF=   72 NGZF=   72
   support grid    NGXF=    72 NGYF=   72 NGZF=   72
   ions per type =               2
   NGX,Y,Z   is equivalent  to a cutoff of  15.37, 15.30, 15.30 a.u.
   NGXF,Y,Z  is equivalent  to a cutoff of  30.75, 30.59, 30.59 a.u.

 SYSTEM =  unknown system                          
 POSCAR =  Si2                                     

 Startparameter for this run:
   NWRITE =      2    write-flag & timer
   PREC   = accura    normal or accurate (medium, high low for compatibility)
   ISTART =      0    job   : 0-new  1-cont  2-samecut
   ICHARG =      2    charge: 1-file 2-atom 10-const
   ISPIN  =      2    spin polarized calculation?
   LNONCOLLINEAR =      F non collinear calculations
   LSORBIT =      F    spin-orbit coupling
   INIWAV =      1    electr: 0-lowe 1-rand  2-diag
   LASPH  =      T    aspherical Exc in radial PAW
 Electronic Relaxation 1
   ENCUT  =  700.0 eV  51.45 Ry    7.17 a.u.   8.40  8.44  8.44*2*pi/ulx,y,z
   ENINI  =  700.0     initial cutoff
   ENAUG  = 1360.0 eV  augmentation charge cutoff
   NELM   =    200;   NELMIN=  2; NELMDL= -5     # of ELM steps 
   EDIFF  = 0.1E-06   stopping-criterion for ELM
   LREAL  =      F    real-space projection
   NLSPLINE    = F    spline interpolate recip. space projectors
   LCOMPAT=      F    compatible to vasp.4.4
   GGA_COMPAT  = T    GGA compatible to vasp.4.4-vasp.4.6
   LMAXPAW     = -100 max onsite density
   LMAXMIX     =    2 max onsite mixed and CHGCAR
   VOSKOWN=      0    Vosko Wilk Nusair interpolation
   ROPT   =    0.00000
 Ionic relaxation
   EDIFFG = -.1E-02   stopping-criterion for IOM
   NSW    =      1    number of steps for IOM
   NBLOCK =      1;   KBLOCK =      1    inner block; outer block 
   IBRION =      2    ionic relax: 0-MD 1-quasi-New 2-CG
   NFREE  =      1    steps in history (QN), initial steepest desc. (CG)
   ISIF   =      3    stress and relaxation
   IWAVPR =     11    prediction:  0-non 1-charg 2-wave 3-comb
   ISYM   =      2    0-nonsym 1-usesym 2-fastsym
   LCORR  =      T    Harris-Foulkes like correction to forces

   POTIM  = 0.5000    time-step for ionic-motion
   TEIN   =    0.0    initial temperature
   TEBEG  =    0.0;   TEEND  =   0.0 temperature during run
   SMASS  =  -3.00    Nose mass-parameter (am)
   estimated Nose-frequenzy (Omega)   =  0.10E-29 period in steps = 0.13E+47 mass=  -0.346E-27a.u.
   SCALEE = 1.0000    scale energy and forces
   NPACO  =    256;   APACO  = 16.0  distance and # of slots for P.C.
   PSTRESS=    0.0 pullay stress

  Mass of Ions in am
   POMASS =  28.09
  Ionic Valenz
   ZVAL   =   4.00
  Atomic Wigner-Seitz radii
   RWIGS  =  -1.00
  virtual crystal weights 
   VCA    =   1.00
   NELECT =       8.0000    total number of electrons
   NUPDOWN=      -1.0000    fix difference up-down

 DOS related values:
   EMIN   =  10.00;   EMAX   =-10.00  energy-range for DOS
   EFERMI =   0.00
   ISMEAR =    -5;   SIGMA  =   0.05  broadening in eV -4-tet -1-fermi 0-gaus

 Electronic relaxation 2 (details)
   IALGO  =     38    algorithm
   LDIAG  =      T    sub-space diagonalisation (order eigenvalues)
   LSUBROT=      F    optimize rotation matrix (better conditioning)
   TURBO    =      0    0=normal 1=particle mesh
   IRESTART =      0    0=no restart 2=restart with 2 vectors
   NREBOOT  =      0    no. of reboots
   NMIN     =      0    reboot dimension
   EREF     =   0.00    reference energy to select bands
   IMIX   =      4    mixing-type and parameters
     AMIX     =   0.40;   BMIX     =  1.00
     AMIX_MAG =   1.60;   BMIX_MAG =  1.00
     AMIN     =   0.10
     WC   =   100.;   INIMIX=   1;  MIXPRE=   1;  MAXMIX= -45

 Intra band minimization:
   WEIMIN = 0.0010     energy-eigenvalue tresh-hold
   EBREAK =  0.31E-08  absolut break condition
   DEPER  =   0.30     relativ break condition  

   TIME   =   0.40     timestep for ELM

  volume/ion in A,a.u.               =      21.07       142.17
  Fermi-wavevector in a.u.,A,eV,Ry     =   0.940930  1.778099 12.045898  0.885348
  Thomas-Fermi vector in A             =   2.068390
 
 Write flags
   LWAVE        =      F    write WAVECAR
   LDOWNSAMPLE  =      F    k-point downsampling of WAVECAR
   LCHARG       =      T    write CHGCAR
   LVTOT        =      T    write LOCPOT, total local potential
   LVHAR        =      F    write LOCPOT, Hartree potential only
   LELF         =      T    write electronic localiz. function (ELF)
   LORBIT       =     11    0 simple, 1 ext, 2 COOP (PROOUT), +10 PAW based schemes


 Dipole corrections
   LMONO  =      F    monopole corrections only (constant potential shift)
   LDIPOL =      F    correct potential (dipole corrections)
   IDIPOL =      0    1-x, 2-y, 3-z, 4-all directions 
   EPSILON=  1.0000000 bulk dielectric constant

 Exchange correlation treatment:
   GGA     =    --    GGA type
   LEXCH   =     8    internal setting for exchange type
   VOSKOWN=      0    Vosko Wilk Nusair interpolation
   LHFCALC =     F    Hartree Fock is set to
   LHFONE  =     F    Hartree Fock one center treatment
   AEXX    =    0.0000 exact exchange contribution

 Linear response parameters
   LEPSILON=     F    determine dielectric tensor
   LRPA    =     F    only Hartree local field effects (RPA)
   LNABLA  =     F    use nabla operator in PAW spheres
   LVEL    =     F    velocity operator in full k-point grid
   LINTERFAST=   F  fast interpolation
   KINTER  =     0    interpolate to denser k-point grid
   CSHIFT  =0.1000    complex shift for real part using Kramers Kronig
   OMEGAMAX=  -1.0    maximum frequency
   DEG_THRESHOLD= 0.2000000E-02 threshold for treating states as degnerate
   RTIME   =   -0.100 relaxation time in fs
  (WPLASMAI=    0.000 imaginary part of plasma frequency in eV, 0.658/RTIME)
   DFIELD  = 0.0000000 0.0000000 0.0000000 field for delta impulse in time
 
 Orbital magnetization related:
   ORBITALMAG=     F  switch on orbital magnetization
   LCHIMAG   =     F  perturbation theory with respect to B field
   DQ        =  0.001000  dq finite difference perturbation B field
   LLRAUG    =     F  two centre corrections for induced B field



--------------------------------------------------------------------------------------------------------


 conjugate gradient relaxation of ions
 charge density and potential will be updated during run
 spin polarized calculation
 Variant of blocked Davidson
 Davidson routine will perform the subspace rotation
 perform sub-space diagonalisation
    after iterative eigenvector-optimisation
 modified Broyden-mixing scheme, WC =      100.0
 initial mixing is a Kerker type mixing with AMIX =  0.4000 and BMIX =      1.0000
 Hartree-type preconditioning will be used
 using additional bands            4
 reciprocal scheme for non local part
 use partial core corrections
 calculate Harris-corrections to forces 
   (improved forces if not selfconsistent)
 use gradient corrections 
 use of overlap-Matrix (Vanderbilt PP)
 Fermi weights with tetrahedron method with Bloechl corrections


--------------------------------------------------------------------------------------------------------


  energy-cutoff  :      700.00
  volume of cell :       42.14
      direct lattice vectors                 reciprocal lattice vectors
     0.000000000  2.752777000  2.752777000    -0.179845247  0.181634764  0.181634764
     2.780168000  0.000000000  2.752777000     0.179845247 -0.181634764  0.181634764
     2.780168000  2.752777000  0.000000000     0.179845247  0.181634764 -0.181634764

  length of vectors
     3.893014568  3.912430871  3.912430871     0.313570865  0.313570865  0.313570865


 
 k-points in units of 2pi/SCALE and weight: pymatgen with grid density = 100 / numbe
   0.00000000  0.00000000  0.00000000       0.037
  -0.05994842  0.06054492  0.06054492       0.296
   0.00000000 -0.00000000  0.12108984       0.148
   0.11989683 -0.12108984 -0.00000000       0.296
   0.11989683  0.00000000 -0.00000000       0.074
   0.17984525 -0.06054492 -0.06054492       0.148
 
 k-points in reciprocal lattice and weights: pymatgen with grid density = 100 / numbe
   0.00000000  0.00000000  0.00000000       0.037
   0.33333333  0.00000000  0.00000000       0.296
   0.33333333  0.33333333  0.00000000       0.148
  -0.33333333  0.33333333  0.00000000       0.296
  -0.00000000  0.33333333  0.33333333       0.074
  -0.33333333  0.33333333  0.33333333       0.148
 
 position of ions in fractional coordinates (direct lattice) 
   0.75000000  0.75000000  0.75000000
   0.50000000  0.50000000  0.50000000
 
 position of ions in cartesian coordinates  (Angst):
   4.17025200  4.12916550  4.12916550
   2.78016800  2.75277700  2.75277700
 


--------------------------------------------------------------------------------------------------------


 k-point   1 :   0.0000 0.0000 0.0000  plane waves:    1807
 k-point   2 :   0.3333 0.0000 0.0000  plane waves:    1782
 k-point   3 :   0.3333 0.3333 0.0000  plane waves:    1752
 k-point   4 :  -0.3333 0.3333 0.0000  plane waves:    1775
 k-point   5 :  -0.0000 0.3333 0.3333  plane waves:    1752
 k-point   6 :  -0.3333 0.3333 0.3333  plane waves:    1774

 maximum and minimum number of plane-waves per node :      1807     1752

 maximum number of plane-waves:      1807
 maximum index in each direction: 
   IXMAX=    8   IYMAX=    8   IZMAX=    8
   IXMIN=   -8   IYMIN=   -8   IZMIN=   -8


 serial   3D FFT for wavefunctions
 parallel 3D FFT for charge:
    minimum data exchange during FFTs selected (reduces bandwidth)


 total amount of memory used by VASP MPI-rank0    77851. kBytes
=======================================================================

   base      :      30000. kBytes
   nonl-proj :        751. kBytes
   fftplans  :      13060. kBytes
   grid      :      31228. kBytes
   one-center:         12. kBytes
   wavefun   :       2800. kBytes
 
     INWAV:  cpu time    0.0000: real time    0.0000
 Broyden mixing: mesh for mixing (old mesh)
   NGX = 17   NGY = 17   NGZ = 17
  (NGX  = 72   NGY  = 72   NGZ  = 72)
  gives a total of   4913 points

 initial charge density was supplied:
 charge density of overlapping atoms calculated
 number of electron       8.0000000 magnetization       0.0000000
 keeping initial charge density in first step


--------------------------------------------------------------------------------------------------------


 Maximum index for augmentation-charges        35969 (set IRDMAX)


--------------------------------------------------------------------------------------------------------


 First call to EWALD:  gamma=   0.509
 Maximum number of real-space cells 3x 3x 3
 Maximum number of reciprocal cells 3x 3x 3

    FEWALD:  cpu time    0.0010: real time    0.0010


--------------------------------------- Iteration      1(   1)  ---------------------------------------


    POTLOK:  cpu time    0.3040: real time    0.3408
    SETDIJ:  cpu time    0.3011: real time    0.3179
     EDDAV:  cpu time    0.4442: real time    0.4980
 BZINTS: Fermi energy:   10.356688;    8.000000 electrons
         Band energy: 0.244581E+02;  BLOECHL correction:   -1.152572
       DOS:  cpu time    0.0004: real time    0.0004
    --------------------------------------------
      LOOP:  cpu time    1.0497: real time    1.1572

 eigenvalue-minimisations  :   192
 total energy-change (2. order) : 0.1370172E+02  (-0.3910153E+03)
 number of electron       8.0000000 magnetization       0.0000000
 augmentation part        8.0000000 magnetization       0.0000000

 Free energy of the ion-electron system (eV)
  ---------------------------------------------------
  alpha Z        PSCENC =         3.19573970
  Ewald energy   TEWEN  =      -224.68749248
  -Hartree energ DENC   =       -11.78365828
  -exchange      EXHF   =         0.00000000
  -V(xc)+E(xc)   XCENC  =       -18.80078028
  PAW double counting   =       176.24759923     -141.06103558
  entropy T*S    EENTRO =         0.00000000
  eigenvalues    EBANDS =        24.45809666
  atomic energy  EATOM  =       206.13324734
  Solvation  Ediel_sol  =         0.00000000
  ---------------------------------------------------
  free energy    TOTEN  =        13.70171631 eV

  energy without entropy =       13.70171631  energy(sigma->0) =       13.70171631


--------------------------------------------------------------------------------------------------------




--------------------------------------- Iteration      1(   2)  ---------------------------------------


     EDDAV:  cpu time    0.5172: real time    0.5260
 BZINTS: Fermi energy:    5.043555;    8.000000 electrons
         Band energy: 0.971830E+00;  BLOECHL correction:   -0.000000
       DOS:  cpu time    0.0003: real time    0.0003
    --------------------------------------------
      LOOP:  cpu time    0.5176: real time    0.5263

 eigenvalue-minimisations  :   288
 total energy-change (2. order) :-0.2348627E+02  (-0.2299823E+02)
 number of electron       8.0000000 magnetization       0.0000000
 augmentation part        8.0000000 magnetization       0.0000000

 Free energy of the ion-electron system (eV)
  ---------------------------------------------------
  alpha Z        PSCENC =         3.19573970
  Ewald energy   TEWEN  =      -224.68749248
  -Hartree energ DENC   =       -11.78365828
  -exchange      EXHF   =         0.00000000
  -V(xc)+E(xc)   XCENC  =       -18.80078028
  PAW double counting   =       176.24759923     -141.06103558
  entropy T*S    EENTRO =         0.00000000
  eigenvalues    EBANDS =         0.97182982
  atomic energy  EATOM  =       206.13324734
  Solvation  Ediel_sol  =         0.00000000
  ---------------------------------------------------
  free energy    TOTEN  =        -9.78455053 eV

  energy without entropy =       -9.78455053  energy(sigma->0) =       -9.78455053


--------------------------------------------------------------------------------------------------------




--------------------------------------- Iteration      1(   3)  ---------------------------------------


     EDDAV:  cpu time    0.3947: real time    0.3979
 BZINTS: Fermi energy:    4.826649;    8.000000 electrons
         Band energy: 0.314332E+00;  BLOECHL correction:    0.000000
       DOS:  cpu time    0.0003: real time    0.0003
    --------------------------------------------
      LOOP:  cpu time    0.3950: real time    0.3981

 eigenvalue-minimisations  :   248
 total energy-change (2. order) :-0.6574974E+00  (-0.6574974E+00)
 number of electron       8.0000000 magnetization       0.0000000
 augmentation part        8.0000000 magnetization       0.0000000

 Free energy of the ion-electron system (eV)
  ---------------------------------------------------
  alpha Z        PSCENC =         3.19573970
  Ewald energy   TEWEN  =      -224.68749248
  -Hartree energ DENC   =       -11.78365828
  -exchange      EXHF   =         0.00000000
  -V(xc)+E(xc)   XCENC  =       -18.80078028
  PAW double counting   =       176.24759923     -141.06103558
  entropy T*S    EENTRO =         0.00000000
  eigenvalues    EBANDS =         0.31433244
  atomic energy  EATOM  =       206.13324734
  Solvation  Ediel_sol  =         0.00000000
  ---------------------------------------------------
  free energy    TOTEN  =       -10.44204791 eV

  energy without entropy =      -10.44204791  energy(sigma->0) =      -10.44204791


--------------------------------------------------------------------------------------------------------




--------------------------------------- Iteration      1(   4)  ---------------------------------------


     EDDAV:  cpu time    0.5721: real time    0.5825
 BZINTS: Fermi energy:    4.824516;    8.000000 electrons
         Band energy: 0.307976E+00;  BLOECHL correction:    0.000000
       DOS:  cpu time    0.0003: real time    0.0003
    --------------------------------------------
      LOOP:  cpu time    0.5723: real time    0.5828

 eigenvalue-minimisations  :   312
 total energy-change (2. order) :-0.6356912E-02  (-0.6356912E-02)
 number of electron       8.0000000 magnetization       0.0000000
 augmentation part        8.0000000 magnetization       0.0000000

 Free energy of the ion-electron system (eV)
  ---------------------------------------------------
  alpha Z        PSCENC =         3.19573970
  Ewald energy   TEWEN  =      -224.68749248
  -Hartree energ DENC   =       -11.78365828
  -exchange      EXHF   =         0.00000000
  -V(xc)+E(xc)   XCENC  =       -18.80078028
  PAW double counting   =       176.24759923     -141.06103558
  entropy T*S    EENTRO =         0.00000000
  eigenvalues    EBANDS =         0.30797553
  atomic energy  EATOM  =       206.13324734
  Solvation  Ediel_sol  =         0.00000000
  ---------------------------------------------------
  free energy    TOTEN  =       -10.44840482 eV

  energy without entropy =      -10.44840482  energy(sigma->0) =      -10.44840482


--------------------------------------------------------------------------------------------------------




--------------------------------------- Iteration      1(   5)  ---------------------------------------


     EDDAV:  cpu time    0.6553: real time    0.6752
 BZINTS: Fermi energy:    4.824537;    8.000000 electrons
         Band energy: 0.307972E+00;  BLOECHL correction:    0.000000
       DOS:  cpu time    0.0003: real time    0.0003
    CHARGE:  cpu time    0.0610: real time    0.0616
    MIXING:  cpu time    0.0098: real time    0.0100
    --------------------------------------------
      LOOP:  cpu time    0.7265: real time    0.7471

 eigenvalue-minimisations  :   264
 total energy-change (2. order) :-0.3685738E-05  (-0.3685738E-05)
 number of electron       8.0000000 magnetization       0.0000000
 augmentation part       -0.4577712 magnetization       0.0000005

 Broyden mixing:
  rms(total) = 0.47969E+00    rms(broyden)= 0.47969E+00
  rms(prec ) = 0.10021E+01
  weight for this iteration     100.00

 Free energy of the ion-electron system (eV)
  ---------------------------------------------------
  alpha Z        PSCENC =         3.19573970
  Ewald energy   TEWEN  =      -224.68749248
  -Hartree energ DENC   =       -11.78365828
  -exchange      EXHF   =         0.00000000
  -V(xc)+E(xc)   XCENC  =       -18.80078028
  PAW double counting   =       176.24759923     -141.06103558
  entropy T*S    EENTRO =         0.00000000
  eigenvalues    EBANDS =         0.30797184
  atomic energy  EATOM  =       206.13324734
  Solvation  Ediel_sol  =         0.00000000
  ---------------------------------------------------
  free energy    TOTEN  =       -10.44840850 eV

  energy without entropy =      -10.44840850  energy(sigma->0) =      -10.44840850


--------------------------------------------------------------------------------------------------------




--------------------------------------- Iteration      1(   6)  ---------------------------------------


    POTLOK:  cpu time    0.2839: real time    0.2902
    SETDIJ:  cpu time    0.3005: real time    0.3045
     EDDAV:  cpu time    0.4103: real time    0.4193
 BZINTS: Fermi energy:    5.071097;    8.000000 electrons
         Band energy: 0.197173E+01;  BLOECHL correction:    0.000000
       DOS:  cpu time    0.0003: real time    0.0003
    CHARGE:  cpu time    0.0447: real time    0.0450
    MIXING:  cpu time    0.0090: real time    0.0091
    --------------------------------------------
      LOOP:  cpu time    1.0486: real time    1.0684

 eigenvalue-minimisations  :   224
 total energy-change (2. order) : 0.1415075E+00  (-0.8689346E-02)
 number of electron       8.0000000 magnetization       0.0000000
 augmentation part       -0.4512509 magnetization       0.0000005

 Broyden mixing:
  rms(total) = 0.29441E+00    rms(broyden)= 0.29441E+00
  rms(prec ) = 0.60180E+00
  weight for this iteration     100.00

 eigenvalues of (default mixing * dielectric matrix)
  average eigenvalue GAMMA=   2.5772
  2.5772

 Free energy of the ion-electron system (eV)
  ---------------------------------------------------
  alpha Z        PSCENC =         3.19573970
  Ewald energy   TEWEN  =      -224.68749248
  -Hartree energ DENC   =       -13.45565807
  -exchange      EXHF   =         0.00000000
  -V(xc)+E(xc)   XCENC  =       -18.54966113
  PAW double counting   =       362.71592829     -327.63073361
  entropy T*S    EENTRO =         0.00000000
  eigenvalues    EBANDS =         1.97172890
  atomic energy  EATOM  =       206.13324734
  Solvation  Ediel_sol  =         0.00000000
  ---------------------------------------------------
  free energy    TOTEN  =       -10.30690105 eV

  energy without entropy =      -10.30690105  energy(sigma->0) =      -10.30690105


--------------------------------------------------------------------------------------------------------




--------------------------------------- Iteration      1(   7)  ---------------------------------------


    POTLOK:  cpu time    0.2938: real time    0.2995
    SETDIJ:  cpu time    0.2908: real time    0.2933
     EDDAV:  cpu time    0.4295: real time    0.4373
 BZINTS: Fermi energy:    5.457181;    8.000000 electrons
         Band energy: 0.458559E+01;  BLOECHL correction:   -0.000000
       DOS:  cpu time    0.0003: real time    0.0003
    CHARGE:  cpu time    0.0602: real time    0.0609
    MIXING:  cpu time    0.0110: real time    0.0112
    --------------------------------------------
      LOOP:  cpu time    1.0857: real time    1.1083

 eigenvalue-minimisations  :   224
 total energy-change (2. order) : 0.6467099E-01  (-0.1768743E-01)
 number of electron       8.0000000 magnetization      -0.0000000
 augmentation part       -0.4431193 magnetization      -0.0000058

 Broyden mixing:
  rms(total) = 0.18703E-01    rms(broyden)= 0.18703E-01
  rms(prec ) = 0.44748E-01
  weight for this iteration     100.00

 eigenvalues of (default mixing * dielectric matrix)
  average eigenvalue GAMMA=   2.0875
  1.8325  2.3426

 Free energy of the ion-electron system (eV)
  ---------------------------------------------------
  alpha Z        PSCENC =         3.19573970
  Ewald energy   TEWEN  =      -224.68749248
  -Hartree energ DENC   =       -16.31258230
  -exchange      EXHF   =         0.00000000
  -V(xc)+E(xc)   XCENC  =       -18.11111945
  PAW double counting   =       810.59743868     -775.64305133
  entropy T*S    EENTRO =         0.00000000
  eigenvalues    EBANDS =         4.58558977
  atomic energy  EATOM  =       206.13324734
  Solvation  Ediel_sol  =         0.00000000
  ---------------------------------------------------
  free energy    TOTEN  =       -10.24223006 eV

  energy without entropy =      -10.24223006  energy(sigma->0) =      -10.24223006


--------------------------------------------------------------------------------------------------------




--------------------------------------- Iteration      1(   8)  ---------------------------------------


    POTLOK:  cpu time    0.2657: real time    0.2740
    SETDIJ:  cpu time    0.3150: real time    0.3216
     EDDAV:  cpu time    0.3674: real time    0.3704
 BZINTS: Fermi energy:    5.442905;    8.000000 electrons
         Band energy: 0.449961E+01;  BLOECHL correction:   -0.000000
       DOS:  cpu time    0.0003: real time    0.0003
    CHARGE:  cpu time    0.0509: real time    0.0513
    MIXING:  cpu time    0.0101: real time    0.0102
    --------------------------------------------
      LOOP:  cpu time    1.0092: real time    1.0220

 eigenvalue-minimisations  :   232
 total energy-change (2. order) :-0.2461884E-02  (-0.5115597E-03)
 number of electron       8.0000000 magnetization      -0.0000000
 augmentation part       -0.4441805 magnetization      -0.0000016

 Broyden mixing:
  rms(total) = 0.72964E-02    rms(broyden)= 0.72964E-02
  rms(prec ) = 0.15055E-01
  weight for this iteration     100.00

 eigenvalues of (default mixing * dielectric matrix)
  average eigenvalue GAMMA=   2.2010
  2.8630  1.7246  2.0154

 Free energy of the ion-electron system (eV)
  ---------------------------------------------------
  alpha Z        PSCENC =         3.19573970
  Ewald energy   TEWEN  =      -224.68749248
  -Hartree energ DENC   =       -16.25918589
  -exchange      EXHF   =         0.00000000
  -V(xc)+E(xc)   XCENC  =       -18.11053714
  PAW double counting   =       813.06701467     -778.08309071
  entropy T*S    EENTRO =         0.00000000
  eigenvalues    EBANDS =         4.49961256
  atomic energy  EATOM  =       206.13324734
  Solvation  Ediel_sol  =         0.00000000
  ---------------------------------------------------
  free energy    TOTEN  =       -10.24469194 eV

  energy without entropy =      -10.24469194  energy(sigma->0) =      -10.24469194


--------------------------------------------------------------------------------------------------------




--------------------------------------- Iteration      1(   9)  ---------------------------------------


    POTLOK:  cpu time    0.2925: real time    0.2965
    SETDIJ:  cpu time    0.3148: real time    0.3192
     EDDAV:  cpu time    0.3857: real time    0.3886
 BZINTS: Fermi energy:    5.448694;    8.000000 electrons
         Band energy: 0.454365E+01;  BLOECHL correction:   -0.000000
       DOS:  cpu time    0.0002: real time    0.0002
    CHARGE:  cpu time    0.0422: real time    0.0424
    MIXING:  cpu time    0.0084: real time    0.0084
    --------------------------------------------
      LOOP:  cpu time    1.0438: real time    1.0553

 eigenvalue-minimisations  :   256
 total energy-change (2. order) :-0.4417298E-03  (-0.4356991E-04)
 number of electron       8.0000000 magnetization      -0.0000000
 augmentation part       -0.4443123 magnetization       0.0000091

 Broyden mixing:
  rms(total) = 0.55071E-02    rms(broyden)= 0.55071E-02
  rms(prec ) = 0.67067E-02
  weight for this iteration     100.00

 eigenvalues of (default mixing * dielectric matrix)
  average eigenvalue GAMMA=   1.9921
  2.9785  2.1244  2.1244  0.7409

 Free energy of the ion-electron system (eV)
  ---------------------------------------------------
  alpha Z        PSCENC =         3.19573970
  Ewald energy   TEWEN  =      -224.68749248
  -Hartree energ DENC   =       -16.31761035
  -exchange      EXHF   =         0.00000000
  -V(xc)+E(xc)   XCENC  =       -18.10049906
  PAW double counting   =       814.40770571     -779.41987902
  entropy T*S    EENTRO =         0.00000000
  eigenvalues    EBANDS =         4.54365448
  atomic energy  EATOM  =       206.13324734
  Solvation  Ediel_sol  =         0.00000000
  ---------------------------------------------------
  free energy    TOTEN  =       -10.24513367 eV

  energy without entropy =      -10.24513367  energy(sigma->0) =      -10.24513367


--------------------------------------------------------------------------------------------------------




--------------------------------------- Iteration      1(  10)  ---------------------------------------


    POTLOK:  cpu time    0.2581: real time    0.2599
    SETDIJ:  cpu time    0.2830: real time    0.2844
     EDDAV:  cpu time    0.3950: real time    0.4026
 BZINTS: Fermi energy:    5.450664;    8.000000 electrons
         Band energy: 0.455526E+01;  BLOECHL correction:    0.000000
       DOS:  cpu time    0.0003: real time    0.0003
    CHARGE:  cpu time    0.0541: real time    0.0549
    MIXING:  cpu time    0.0101: real time    0.0102
    --------------------------------------------
      LOOP:  cpu time    1.0007: real time    1.0123

 eigenvalue-minimisations  :   224
 total energy-change (2. order) :-0.4272970E-04  (-0.5287291E-05)
 number of electron       8.0000000 magnetization      -0.0000000
 augmentation part       -0.4442813 magnetization      -0.0000019

 Broyden mixing:
  rms(total) = 0.86957E-03    rms(broyden)= 0.86957E-03
  rms(prec ) = 0.10497E-02
  weight for this iteration     100.00

 eigenvalues of (default mixing * dielectric matrix)
  average eigenvalue GAMMA=   1.8306
  3.0118  2.2981  2.2981  0.9136  0.6314

 Free energy of the ion-electron system (eV)
  ---------------------------------------------------
  alpha Z        PSCENC =         3.19573970
  Ewald energy   TEWEN  =      -224.68749248
  -Hartree energ DENC   =       -16.32915500
  -exchange      EXHF   =         0.00000000
  -V(xc)+E(xc)   XCENC  =       -18.10003877
  PAW double counting   =       804.61854077     -769.63128058
  entropy T*S    EENTRO =         0.00000000
  eigenvalues    EBANDS =         4.55526263
  atomic energy  EATOM  =       206.13324734
  Solvation  Ediel_sol  =         0.00000000
  ---------------------------------------------------
  free energy    TOTEN  =       -10.24517640 eV

  energy without entropy =      -10.24517640  energy(sigma->0) =      -10.24517640


--------------------------------------------------------------------------------------------------------




--------------------------------------- Iteration      1(  11)  ---------------------------------------


    POTLOK:  cpu time    0.2869: real time    0.2901
    SETDIJ:  cpu time    0.3045: real time    0.3087
     EDDAV:  cpu time    0.5073: real time    0.5212
 BZINTS: Fermi energy:    5.450202;    8.000000 electrons
         Band energy: 0.455450E+01;  BLOECHL correction:   -0.000000
       DOS:  cpu time    0.0003: real time    0.0003
    CHARGE:  cpu time    0.0504: real time    0.0518
    MIXING:  cpu time    0.0102: real time    0.0104
    --------------------------------------------
      LOOP:  cpu time    1.1596: real time    1.1825

 eigenvalue-minimisations  :   336
 total energy-change (2. order) :-0.5597484E-06  (-0.8641416E-07)
 number of electron       8.0000000 magnetization       0.0000000
 augmentation part       -0.4442893 magnetization      -0.0000004

 Broyden mixing:
  rms(total) = 0.34889E-03    rms(broyden)= 0.34889E-03
  rms(prec ) = 0.50193E-03
  weight for this iteration     100.00

 eigenvalues of (default mixing * dielectric matrix)
  average eigenvalue GAMMA=   1.7304
  3.0247  2.4881  2.0983  0.9831  1.1624  0.6262

 Free energy of the ion-electron system (eV)
  ---------------------------------------------------
  alpha Z        PSCENC =         3.19573970
  Ewald energy   TEWEN  =      -224.68749248
  -Hartree energ DENC   =       -16.32844456
  -exchange      EXHF   =         0.00000000
  -V(xc)+E(xc)   XCENC  =       -18.10018045
  PAW double counting   =       804.57978924     -769.59233461
  entropy T*S    EENTRO =         0.00000000
  eigenvalues    EBANDS =         4.55449886
  atomic energy  EATOM  =       206.13324734
  Solvation  Ediel_sol  =         0.00000000
  ---------------------------------------------------
  free energy    TOTEN  =       -10.24517696 eV

  energy without entropy =      -10.24517696  energy(sigma->0) =      -10.24517696


--------------------------------------------------------------------------------------------------------




--------------------------------------- Iteration      1(  12)  ---------------------------------------


    POTLOK:  cpu time    0.2852: real time    0.2897
    SETDIJ:  cpu time    0.3185: real time    0.3236
     EDDAV:  cpu time    0.3964: real time    0.4080
 BZINTS: Fermi energy:    5.450333;    8.000000 electrons
         Band energy: 0.455403E+01;  BLOECHL correction:   -0.000000
       DOS:  cpu time    0.0002: real time    0.0002
    CHARGE:  cpu time    0.0433: real time    0.0437
    MIXING:  cpu time    0.0088: real time    0.0089
    --------------------------------------------
      LOOP:  cpu time    1.0525: real time    1.0740

 eigenvalue-minimisations  :   224
 total energy-change (2. order) :-0.1532880E-06  (-0.2491058E-07)
 number of electron       8.0000000 magnetization      -0.0000000
 augmentation part       -0.4442904 magnetization       0.0000007

 Broyden mixing:
  rms(total) = 0.89345E-04    rms(broyden)= 0.89345E-04
  rms(prec ) = 0.23861E-03
  weight for this iteration     100.00

 eigenvalues of (default mixing * dielectric matrix)
  average eigenvalue GAMMA=   1.8037
  3.0732  2.5086  2.1941  2.1941  1.0153  1.0153  0.6251

 Free energy of the ion-electron system (eV)
  ---------------------------------------------------
  alpha Z        PSCENC =         3.19573970
  Ewald energy   TEWEN  =      -224.68749248
  -Hartree energ DENC   =       -16.32802630
  -exchange      EXHF   =         0.00000000
  -V(xc)+E(xc)   XCENC  =       -18.10031341
  PAW double counting   =       805.07542459     -770.08778803
  entropy T*S    EENTRO =         0.00000000
  eigenvalues    EBANDS =         4.55403147
  atomic energy  EATOM  =       206.13324734
  Solvation  Ediel_sol  =         0.00000000
  ---------------------------------------------------
  free energy    TOTEN  =       -10.24517711 eV

  energy without entropy =      -10.24517711  energy(sigma->0) =      -10.24517711


--------------------------------------------------------------------------------------------------------




--------------------------------------- Iteration      1(  13)  ---------------------------------------


    POTLOK:  cpu time    0.2728: real time    0.2782
    SETDIJ:  cpu time    0.2960: real time    0.3020
     EDDAV:  cpu time    0.3843: real time    0.3914
 BZINTS: Fermi energy:    5.450628;    8.000000 electrons
         Band energy: 0.455523E+01;  BLOECHL correction:    0.000000
       DOS:  cpu time    0.0003: real time    0.0003
    CHARGE:  cpu time    0.0645: real time    0.0664
    MIXING:  cpu time    0.0106: real time    0.0106
    --------------------------------------------
      LOOP:  cpu time    1.0285: real time    1.0489

 eigenvalue-minimisations  :   240
 total energy-change (2. order) :-0.2395156E-06  (-0.2367158E-07)
 number of electron       8.0000000 magnetization      -0.0000000
 augmentation part       -0.4442837 magnetization      -0.0000003

 Broyden mixing:
  rms(total) = 0.23302E-04    rms(broyden)= 0.23302E-04
  rms(prec ) = 0.25345E-04
  weight for this iteration     100.00

 eigenvalues of (default mixing * dielectric matrix)
  average eigenvalue GAMMA=   1.7578
  3.2840  2.7238  2.3675  2.3675  0.9909  0.9909  0.7119  0.6263

 Free energy of the ion-electron system (eV)
  ---------------------------------------------------
  alpha Z        PSCENC =         3.19573970
  Ewald energy   TEWEN  =      -224.68749248
  -Hartree energ DENC   =       -16.32920487
  -exchange      EXHF   =         0.00000000
  -V(xc)+E(xc)   XCENC  =       -18.10026369
  PAW double counting   =       805.06809525     -770.08053203
  entropy T*S    EENTRO =         0.00000000
  eigenvalues    EBANDS =         4.55523342
  atomic energy  EATOM  =       206.13324734
  Solvation  Ediel_sol  =         0.00000000
  ---------------------------------------------------
  free energy    TOTEN  =       -10.24517735 eV

  energy without entropy =      -10.24517735  energy(sigma->0) =      -10.24517735


--------------------------------------------------------------------------------------------------------




--------------------------------------- Iteration      1(  14)  ---------------------------------------


    POTLOK:  cpu time    0.3042: real time    0.3090
    SETDIJ:  cpu time    0.3840: real time    0.3999
     EDDAV:  cpu time    0.2958: real time    0.2996
 BZINTS: Fermi energy:    5.450630;    8.000000 electrons
         Band energy: 0.455522E+01;  BLOECHL correction:    0.000000
       DOS:  cpu time    0.0004: real time    0.0022
    --------------------------------------------
      LOOP:  cpu time    0.9843: real time    1.0107

 eigenvalue-minimisations  :   176
 total energy-change (2. order) : 0.9571011E-09  (-0.2842413E-09)
 number of electron       8.0000000 magnetization      -0.0000000
 augmentation part       -0.4442837 magnetization      -0.0000003

 Free energy of the ion-electron system (eV)
  ---------------------------------------------------
  alpha Z        PSCENC =         3.19573970
  Ewald energy   TEWEN  =      -224.68749248
  -Hartree energ DENC   =       -16.32919547
  -exchange      EXHF   =         0.00000000
  -V(xc)+E(xc)   XCENC  =       -18.10026450
  PAW double counting   =       805.08169992     -770.09413342
  entropy T*S    EENTRO =         0.00000000
  eigenvalues    EBANDS =         4.55522156
  atomic energy  EATOM  =       206.13324734
  Solvation  Ediel_sol  =         0.00000000
  ---------------------------------------------------
  free energy    TOTEN  =       -10.24517735 eV

  energy without entropy =      -10.24517735  energy(sigma->0) =      -10.24517735


--------------------------------------------------------------------------------------------------------




 average (electrostatic) potential at core
  the test charge radii are     0.9892
  (the norm of the test charge is              1.0000)
       1 -83.6498       2 -83.6498
 
 
 
 E-fermi :   5.4506     XC(G=0):  -9.1418     alpha+bet :-11.3846

 Fermi energy:         5.4506302021

 spin component 1

 k-point     1 :       0.0000    0.0000    0.0000
  band No.  band energies     occupation 
      1      -6.2052      1.00000
      2       5.3823      1.00000
      3       5.4505      1.00000
      4       5.4505      1.00000
      5       7.9163      0.00000
      6       7.9163      0.00000
      7       7.9539      0.00000
      8       8.2316      0.00000

 k-point     2 :       0.3333    0.0000    0.0000
  band No.  band energies     occupation 
      1      -4.8901      1.00000
      2       0.2255      1.00000
      3       4.4189      1.00000
      4       4.4992      1.00000
      5       6.9963      0.00000
      6       8.8544      0.00000
      7       8.9052      0.00000
      8      13.0588      0.00000

 k-point     3 :       0.3333    0.3333    0.0000
  band No.  band energies     occupation 
      1      -4.3713      1.00000
      2       0.4781      1.00000
      3       3.0795      1.00000
      4       3.0931      1.00000
      5       6.1635      0.00000
      6       7.4375      0.00000
      7      12.3631      0.00000
      8      12.5420      0.00000

 k-point     4 :      -0.3333    0.3333    0.0000
  band No.  band energies     occupation 
      1      -3.0959      1.00000
      2      -1.2075      1.00000
      3       1.2349      1.00000
      4       3.3724      1.00000
      5       6.9754      0.00000
      6      11.1039      0.00000
      7      11.6810      0.00000
      8      12.2709      0.00000

 k-point     5 :      -0.0000    0.3333    0.3333
  band No.  band energies     occupation 
      1      -4.4001      1.00000
      2       0.4105      1.00000
      3       3.1503      1.00000
      4       3.1503      1.00000
      5       6.2496      0.00000
      6       7.4632      0.00000
      7      12.4435      0.00000
      8      12.4435      0.00000

 k-point     6 :      -0.3333    0.3333    0.3333
  band No.  band energies     occupation 
      1      -3.0948      1.00000
      2      -1.2516      1.00000
      3       1.2039      1.00000
      4       3.4475      1.00000
      5       7.0599      0.00000
      6      11.2383      0.00000
      7      11.7019      0.00000
      8      12.1926      0.00000
 Fermi energy:         5.4506302021

 spin component 2

 k-point     1 :       0.0000    0.0000    0.0000
  band No.  band energies     occupation 
      1      -6.2052      1.00000
      2       5.3823      1.00000
      3       5.4505      1.00000
      4       5.4505      1.00000
      5       7.9163      0.00000
      6       7.9163      0.00000
      7       7.9539      0.00000
      8       8.2316      0.00000

 k-point     2 :       0.3333    0.0000    0.0000
  band No.  band energies     occupation 
      1      -4.8901      1.00000
      2       0.2255      1.00000
      3       4.4189      1.00000
      4       4.4992      1.00000
      5       6.9963      0.00000
      6       8.8544      0.00000
      7       8.9052      0.00000
      8      13.0588      0.00000

 k-point     3 :       0.3333    0.3333    0.0000
  band No.  band energies     occupation 
      1      -4.3713      1.00000
      2       0.4781      1.00000
      3       3.0795      1.00000
      4       3.0931      1.00000
      5       6.1635      0.00000
      6       7.4375      0.00000
      7      12.3631      0.00000
      8      12.5419      0.00000

 k-point     4 :      -0.3333    0.3333    0.0000
  band No.  band energies     occupation 
      1      -3.0959      1.00000
      2      -1.2075      1.00000
      3       1.2349      1.00000
      4       3.3724      1.00000
      5       6.9754      0.00000
      6      11.1039      0.00000
      7      11.6810      0.00000
      8      12.2709      0.00000

 k-point     5 :      -0.0000    0.3333    0.3333
  band No.  band energies     occupation 
      1      -4.4001      1.00000
      2       0.4105      1.00000
      3       3.1503      1.00000
      4       3.1503      1.00000
      5       6.2496      0.00000
      6       7.4632      0.00000
      7      12.4435      0.00000
      8      12.4435      0.00000

 k-point     6 :      -0.3333    0.3333    0.3333
  band No.  band energies     occupation 
      1      -3.0948      1.00000
      2      -1.2516      1.00000
      3       1.2039      1.00000
      4       3.4475      1.00000
      5       7.0599      0.00000
      6      11.2383      0.00000
      7      11.7019      0.00000
      8      12.1926      0.00000


--------------------------------------------------------------------------------------------------------


 soft charge-density along one line, spin component           1
         0         1         2         3         4         5         6         7         8         9
 total charge-density along one line
 
 soft charge-density along one line, spin component           2
         0         1         2         3         4         5         6         7         8         9
 total charge-density along one line
 
 pseudopotential strength for first ion, spin component:           1
 18.456  25.750  -0.000  -0.000   0.000  -0.000  -0.000   0.000
 25.750  35.931  -0.000  -0.000   0.000  -0.000  -0.000   0.000
 -0.000  -0.000   4.183   0.000   0.000   7.795   0.000   0.000
 -0.000  -0.000   0.000   4.183   0.000   0.000   7.795   0.000
  0.000   0.000   0.000   0.000   4.183   0.000   0.000   7.795
 -0.000  -0.000   7.795   0.000   0.000  14.537   0.000   0.000
 -0.000  -0.000   0.000   7.795   0.000   0.000  14.537   0.000
  0.000   0.000   0.000   0.000   7.795   0.000   0.000  14.537
 pseudopotential strength for first ion, spin component:           2
 18.456  25.750   0.000   0.000   0.000   0.000   0.000   0.000
 25.750  35.931   0.000   0.000   0.000   0.000   0.000   0.000
  0.000   0.000   4.183   0.000   0.000   7.795   0.000   0.000
  0.000   0.000   0.000   4.183   0.000   0.000   7.795   0.000
  0.000   0.000   0.000   0.000   4.183   0.000   0.000   7.795
  0.000   0.000   7.795   0.000   0.000  14.537   0.000   0.000
  0.000   0.000   0.000   7.795   0.000   0.000  14.537   0.000
  0.000   0.000   0.000   0.000   7.795   0.000   0.000  14.537
 total augmentation occupancy for first ion, spin component:           1
  5.375  -1.970   0.000   0.000  -0.000  -0.000   0.000  -0.000
 -1.970   0.794   0.000   0.000  -0.000   0.000  -0.000   0.000
  0.000   0.000   2.857   0.000  -0.000  -0.620  -0.000   0.000
  0.000   0.000   0.000   2.857  -0.000  -0.000  -0.620   0.000
 -0.000  -0.000  -0.000  -0.000   2.876   0.000   0.000  -0.627
  0.000   0.000  -0.620  -0.000   0.000   0.145   0.000   0.000
  0.000   0.000  -0.000  -0.620   0.000   0.000   0.145  -0.000
 -0.000   0.000   0.000   0.000  -0.627   0.000  -0.000   0.147
 total augmentation occupancy for first ion, spin component:           2
  0.000  -0.000   0.000  -0.000   0.000   0.000   0.000  -0.000
 -0.000   0.000   0.000   0.000   0.000   0.000  -0.000   0.000
  0.000   0.000  -0.000   0.000   0.000   0.000   0.000  -0.000
 -0.000   0.000   0.000  -0.000   0.000   0.000   0.000  -0.000
  0.000   0.000   0.000   0.000  -0.000  -0.000  -0.000   0.000
  0.000   0.000   0.000   0.000  -0.000  -0.000  -0.000   0.000
  0.000  -0.000   0.000   0.000  -0.000  -0.000  -0.000   0.000
 -0.000   0.000  -0.000  -0.000   0.000   0.000   0.000  -0.000


------------------------ aborting loop because EDIFF is reached ----------------------------------------





 total charge

# of ion       s       p       d       tot
------------------------------------------
    1        0.718   0.950   0.000   1.668
    2        0.718   0.950   0.000   1.668
--------------------------------------------------
tot          1.436   1.900   0.000   3.336



 magnetization (x)

# of ion       s       p       d       tot
------------------------------------------
    1        0.000   0.000   0.000   0.000
    2        0.000   0.000   0.000   0.000
--------------------------------------------------
tot          0.000   0.000   0.000   0.000
 
    CHARGE:  cpu time    0.0447: real time    0.0450
    FORLOC:  cpu time    0.0062: real time    0.0062
    FORNL :  cpu time    0.0485: real time    0.0488
    STRESS:  cpu time    0.2185: real time    0.2257
    FORCOR:  cpu time    0.3108: real time    0.3183
    FORHAR:  cpu time    0.0253: real time    0.0255
    MIXING:  cpu time    0.0084: real time    0.0084
    OFIELD:  cpu time    0.0001: real time    0.0001

  FORCE on cell =-STRESS in cart. coord.  units (eV):
  Direction    XX          YY          ZZ          XY          YZ          ZX
  --------------------------------------------------------------------------------------
  Alpha Z     3.19574     3.19574     3.19574
  Ewald     -74.21608   -75.23576   -75.23576    -0.00000     0.00000     0.00000
  Hartree     5.57536     5.37691     5.37691     0.00000     0.00000     0.00000
  E(xc)     -25.20455   -25.20609   -25.20609     0.00000     0.00000     0.00000
  Local     -31.19786   -29.91741   -29.91741     0.00000     0.00000     0.00000
  n-local    76.20598    78.05566    74.12116     2.27627    -1.78657     1.19990
  augment   -11.30107   -11.30320   -11.30320    -0.00000    -0.00000    -0.00000
  Kinetic    56.54011    58.62850    55.10335     3.63704    -2.65978     1.76823
  Fock        0.00000     0.00000     0.00000     0.00000     0.00000     0.00000
  -------------------------------------------------------------------------------------
  Total      -0.40237    -0.13548    -0.13548     0.00000     0.00000     0.00000
  in kB     -15.30012    -5.15165    -5.15165     0.00000     0.00000     0.00000
  external pressure =       -8.53 kB  Pullay stress =        0.00 kB


 VOLUME and BASIS-vectors are now :
 -----------------------------------------------------------------------------
  energy-cutoff  :      700.00
  volume of cell :       42.14
      direct lattice vectors                 reciprocal lattice vectors
     0.000000000  2.752777000  2.752777000    -0.179845247  0.181634764  0.181634764
     2.780168000  0.000000000  2.752777000     0.179845247 -0.181634764  0.181634764
     2.780168000  2.752777000  0.000000000     0.179845247  0.181634764 -0.181634764

  length of vectors
     3.893014568  3.912430871  3.912430871     0.313570865  0.313570865  0.313570865


 FORCES acting on ions
    electron-ion (+dipol)            ewald-force                    non-local-force                 convergence-correction
 -----------------------------------------------------------------------------------------------
   -.113E-07 -.188E-08 -.206E-08   -.241E-14 -.258E-14 -.127E-14   0.126E-16 0.498E-16 0.149E-16   -.101E-10 -.120E-10 -.120E-10
   0.113E-07 0.188E-08 0.206E-08   0.220E-14 0.234E-14 0.945E-15   -.325E-16 -.694E-16 -.494E-16   0.101E-10 0.120E-10 0.120E-10
 -----------------------------------------------------------------------------------------------
   0.382E-12 0.120E-12 0.252E-12   -.218E-15 -.242E-15 -.325E-15   -.198E-16 -.196E-16 -.345E-16   -.407E-14 0.246E-15 -.269E-15
 
 
 POSITION                                       TOTAL-FORCE (eV/Angst)
 -----------------------------------------------------------------------------------
      4.17025      4.12917      4.12917        -0.000000     -0.000000      0.000000
      2.78017      2.75278      2.75278         0.000000      0.000000     -0.000000
 -----------------------------------------------------------------------------------
    total drift:                                0.000000      0.000000      0.000000


--------------------------------------------------------------------------------------------------------



  FREE ENERGIE OF THE ION-ELECTRON SYSTEM (eV)
  ---------------------------------------------------
  free  energy   TOTEN  =       -10.24517735 eV

  energy  without entropy=      -10.24517735  energy(sigma->0) =      -10.24517735
 


--------------------------------------------------------------------------------------------------------


    POTLOK:  cpu time    0.6282: real time    0.6391


--------------------------------------------------------------------------------------------------------




--------------------------------------------------------------------------------------------------------


     LOOP+:  cpu time   15.3378: real time   15.7317
    4ORBIT:  cpu time    0.0000: real time    0.0000



 total charge

# of ion       s       p       d       tot
------------------------------------------
    1        0.718   0.950   0.000   1.668
    2        0.718   0.950   0.000   1.668
--------------------------------------------------
tot          1.436   1.900   0.000   3.336



 magnetization (x)

# of ion       s       p       d       tot
------------------------------------------
    1        0.000   0.000   0.000   0.000
    2        0.000   0.000   0.000   0.000
--------------------------------------------------
tot          0.000   0.000   0.000   0.000
 
 BZINTS: Fermi energy:    5.450630;    8.000000 electrons
         Band energy: 0.455522E+01;  BLOECHL correction:    0.000000

 total amount of memory used by VASP MPI-rank0    77851. kBytes
=======================================================================

   base      :      30000. kBytes
   nonl-proj :        751. kBytes
   fftplans  :      13060. kBytes
   grid      :      31228. kBytes
   one-center:         12. kBytes
   wavefun   :       2800. kBytes
 
  
  
 General timing and accounting informations for this job:
 ========================================================
  
                  Total CPU time used (sec):       18.951
                            User time (sec):       16.921
                          System time (sec):        2.030
                         Elapsed time (sec):       19.517
  
                   Maximum memory used (kb):   118734848.
                   Average memory used (kb):          N/A
  
                          Minor page faults:       185789
                          Major page faults:          334
                 Voluntary context switches:           33
