<?xml version="1.0" encoding="ISO-8859-1"?>
<modeling>
 <generator>
  <i name="program" type="string">vasp </i>
  <i name="version" type="string">6.2.1  </i>
  <i name="subversion" type="string">16May21 (build Oct 27 2021 18:14:32) complex                          parallel </i>
  <i name="platform" type="string">LinuxIFC </i>
  <i name="date" type="string">2021 11 08 </i>
  <i name="time" type="string">17:26:47 </i>
 </generator>
 <incar>
  <i type="string" name="PREC">Accurate</i>
  <i type="string" name="ALGO">Normal</i>
  <i type="int" name="ISPIN">     2</i>
  <i type="int" name="NELM">   200</i>
  <i type="int" name="IBRION">     2</i>
  <i name="EDIFF">      0.00000010</i>
  <i name="EDIFFG">     -0.00100000</i>
  <i type="int" name="NSW">     1</i>
  <i type="int" name="ISIF">     3</i>
  <i name="ENCUT">    700.00000000</i>
  <i name="ENAUG">   1360.00000000</i>
  <v name="MAGMOM">      0.00000000      0.00000000</v>
  <i type="logical" name="LREAL"> F  </i>
  <i type="int" name="ISMEAR">    -5</i>
  <i name="SIGMA">      0.05000000</i>
  <i name="KSPACING">      0.29252878</i>
  <i type="logical" name="LWAVE"> F  </i>
  <i type="logical" name="LCHARG"> T  </i>
  <i type="logical" name="LVTOT"> T  </i>
  <i type="int" name="LORBIT">    11</i>
  <i type="logical" name="LELF"> T  </i>
  <i type="logical" name="LASPH"> T  </i>
  <i type="logical" name="LAECHG"> F  </i>
  <i type="logical" name="LMIXTAU"> T  </i>
 </incar>
 <primitive_cell>
  <structure name="primitive_cell" >
   <crystal>
    <varray name="basis" >
     <v>       0.00000000       2.75277700       2.75277700 </v>
     <v>       2.78016800       0.00000000       2.75277700 </v>
     <v>       2.78016800       2.75277700       0.00000000 </v>
    </varray>
    <i name="volume">     42.13500967 </i>
    <varray name="rec_basis" >
     <v>      -0.17984525       0.18163476       0.18163476 </v>
     <v>       0.17984525      -0.18163476       0.18163476 </v>
     <v>       0.17984525       0.18163476      -0.18163476 </v>
    </varray>
   </crystal>
   <varray name="positions" >
    <v>       0.75000000       0.75000000       0.75000000 </v>
    <v>       0.50000000       0.50000000       0.50000000 </v>
   </varray>
  </structure>
  <varray name="primitive_index" >
   <v type="int" >        1 </v>
   <v type="int" >        2 </v>
  </varray>
 </primitive_cell>
 <kpoints>
  <generation param="Gamma">
   <v type="int" name="divisions">       3        3        3 </v>
   <v name="usershift">      0.00000000       0.00000000       0.00000000 </v>
   <v name="genvec1">      0.33333333       0.00000000       0.00000000 </v>
   <v name="genvec2">      0.00000000       0.33333333      -0.00000000 </v>
   <v name="genvec3">     -0.00000000      -0.00000000       0.33333333 </v>
   <v name="shift">      0.00000000       0.00000000       0.00000000 </v>
  </generation>
  <varray name="kpointlist" >
   <v>       0.00000000       0.00000000       0.00000000 </v>
   <v>       0.33333333       0.00000000       0.00000000 </v>
   <v>       0.33333333       0.33333333       0.00000000 </v>
   <v>      -0.33333333       0.33333333       0.00000000 </v>
   <v>      -0.00000000       0.33333333       0.33333333 </v>
   <v>      -0.33333333       0.33333333       0.33333333 </v>
  </varray>
  <varray name="weights" >
   <v>       0.03703704 </v>
   <v>       0.29629630 </v>
   <v>       0.14814815 </v>
   <v>       0.29629630 </v>
   <v>       0.07407407 </v>
   <v>       0.14814815 </v>
  </varray>
  <varray name="tetrahedronlist"  type="int" >
   <v type="int" >       16        1        2        2        3 </v>
   <v type="int" >        8        1        2        2        5 </v>
   <v type="int" >       16        2        3        4        6 </v>
   <v type="int" >       16        2        2        4        6 </v>
   <v type="int" >        8        2        2        3        6 </v>
   <v type="int" >        8        2        2        4        5 </v>
   <v type="int" >       16        2        4        5        6 </v>
   <v type="int" >        8        2        2        4        4 </v>
   <v type="int" >       16        2        3        4        4 </v>
   <v type="int" >        8        2        2        3        4 </v>
   <v type="int" >        8        3        3        4        4 </v>
   <v type="int" >        8        3        4        4        6 </v>
   <v type="int" >        8        3        4        4        4 </v>
   <v type="int" >        4        4        4        6        6 </v>
   <v type="int" >        8        4        5        6        6 </v>
   <v type="int" >        2        4        4        4        4 </v>
   <v type="int" >        4        5        5        6        6 </v>
  </varray>
  <i name="volumeweight">      0.00617284 </i>
 </kpoints>
 <parameters>
  <separator name="general" >
   <i type="string" name="SYSTEM">unknown system</i>
   <i type="logical" name="LCOMPAT"> F  </i>
  </separator>
  <separator name="electronic" >
   <i type="string" name="PREC">accura</i>
   <i name="ENMAX">    700.00000000</i>
   <i name="ENAUG">   1360.00000000</i>
   <i name="EDIFF">      0.00000010</i>
   <i type="int" name="IALGO">    38</i>
   <i type="int" name="IWAVPR">    11</i>
   <i type="int" name="NBANDS">     8</i>
   <i type="int" name="NBANDSLOW">    -1</i>
   <i type="int" name="NBANDSHIGH">    -1</i>
   <i name="NELECT">      8.00000000</i>
   <i type="int" name="TURBO">     0</i>
   <i type="int" name="IRESTART">     0</i>
   <i type="int" name="NREBOOT">     0</i>
   <i type="int" name="NMIN">     0</i>
   <i name="EREF">      0.00000000</i>
   <separator name="electronic smearing" >
    <i type="int" name="ISMEAR">    -5</i>
    <i name="SIGMA">      0.05000000</i>
    <i name="KSPACING">      0.29252878</i>
    <i type="logical" name="KGAMMA"> T  </i>
    <i type="logical" name="KBLOWUP"> T  </i>
   </separator>
   <separator name="electronic projectors" >
    <i type="logical" name="LREAL"> F  </i>
    <v name="ROPT">      0.00000000</v>
    <i type="int" name="LMAXPAW">  -100</i>
    <i type="int" name="LMAXMIX">     2</i>
    <i type="logical" name="NLSPLINE"> F  </i>
   </separator>
   <separator name="electronic startup" >
    <i type="int" name="ISTART">     0</i>
    <i type="int" name="ICHARG">     2</i>
    <i type="int" name="INIWAV">     1</i>
   </separator>
   <separator name="electronic spin" >
    <i type="int" name="ISPIN">     2</i>
    <i type="logical" name="LNONCOLLINEAR"> F  </i>
    <v name="MAGMOM">      0.00000000      0.00000000</v>
    <i name="NUPDOWN">     -1.00000000</i>
    <i type="logical" name="LSORBIT"> F  </i>
    <v name="SAXIS">      0.00000000      0.00000000      1.00000000</v>
    <i type="logical" name="LSPIRAL"> F  </i>
    <v name="QSPIRAL">      0.00000000      0.00000000      0.00000000</v>
    <i type="logical" name="LZEROZ"> F  </i>
   </separator>
   <separator name="electronic exchange-correlation" >
    <i type="logical" name="LASPH"> T  </i>
    <i type="logical" name="LMETAGGA"> F  </i>
   </separator>
   <separator name="electronic convergence" >
    <i type="int" name="NELM">   200</i>
    <i type="int" name="NELMDL">    -5</i>
    <i type="int" name="NELMIN">     2</i>
    <i name="ENINI">    700.00000000</i>
    <separator name="electronic convergence detail" >
     <i type="logical" name="LDIAG"> T  </i>
     <i type="logical" name="LSUBROT"> F  </i>
     <i name="WEIMIN">      0.00100000</i>
     <i name="EBREAK">      0.00000000</i>
     <i name="DEPER">      0.30000000</i>
     <i type="int" name="NRMM">     4</i>
     <i name="TIME">      0.40000000</i>
    </separator>
   </separator>
   <separator name="electronic mixer" >
    <i name="AMIX">      0.40000000</i>
    <i name="BMIX">      1.00000000</i>
    <i name="AMIN">      0.10000000</i>
    <i name="AMIX_MAG">      1.60000000</i>
    <i name="BMIX_MAG">      1.00000000</i>
    <separator name="electronic mixer details" >
     <i type="int" name="IMIX">     4</i>
     <i type="logical" name="MIXFIRST"> F  </i>
     <i type="int" name="MAXMIX">   -45</i>
     <i name="WC">    100.00000000</i>
     <i type="int" name="INIMIX">     1</i>
     <i type="int" name="MIXPRE">     1</i>
     <i type="int" name="MREMOVE">     5</i>
    </separator>
   </separator>
   <separator name="electronic dipolcorrection" >
    <i type="logical" name="LDIPOL"> F  </i>
    <i type="logical" name="LMONO"> F  </i>
    <i type="int" name="IDIPOL">     0</i>
    <i name="EPSILON">      1.00000000</i>
    <v name="DIPOL">   -100.00000000   -100.00000000   -100.00000000</v>
    <i name="EFIELD">      0.00000000</i>
   </separator>
  </separator>
  <separator name="grids" >
   <i type="int" name="NGX">    36</i>
   <i type="int" name="NGY">    36</i>
   <i type="int" name="NGZ">    36</i>
   <i type="int" name="NGXF">    72</i>
   <i type="int" name="NGYF">    72</i>
   <i type="int" name="NGZF">    72</i>
   <i type="logical" name="ADDGRID"> F  </i>
  </separator>
  <separator name="ionic" >
   <i type="int" name="NSW">     1</i>
   <i type="int" name="IBRION">     2</i>
   <i type="int" name="MDALGO">     0</i>
   <i type="int" name="ISIF">     3</i>
   <i name="PSTRESS">      0.00000000</i>
   <i name="EDIFFG">     -0.00100000</i>
   <i type="int" name="NFREE">     1</i>
   <i name="POTIM">      0.50000000</i>
   <i name="SMASS">     -3.00000000</i>
   <i name="SCALEE">      1.00000000</i>
  </separator>
  <separator name="ionic md" >
   <i name="TEBEG">      0.00010000</i>
   <i name="TEEND">      0.00010000</i>
   <i type="int" name="NBLOCK">     1</i>
   <i type="int" name="KBLOCK">     1</i>
   <i type="int" name="NPACO">   256</i>
   <i name="APACO">     16.00000000</i>
  </separator>
  <separator name="symmetry" >
   <i type="int" name="ISYM">     2</i>
   <i name="SYMPREC">      0.00001000</i>
  </separator>
  <separator name="dos" >
   <i type="int" name="LORBIT">    11</i>
   <v name="RWIGS">     -1.00000000</v>
   <i type="int" name="NEDOS">   301</i>
   <i name="EMIN">     10.00000000</i>
   <i name="EMAX">    -10.00000000</i>
   <i name="EFERMI">      0.00000000</i>
  </separator>
  <separator name="writing" >
   <i type="int" name="NWRITE">     2</i>
   <i type="logical" name="LWAVE"> F  </i>
   <i type="logical" name="LDOWNSAMPLE"> F  </i>
   <i type="logical" name="LCHARG"> T  </i>
   <i type="logical" name="LPARD"> F  </i>
   <i type="logical" name="LVTOT"> T  </i>
   <i type="logical" name="LVHAR"> F  </i>
   <i type="logical" name="LELF"> T  </i>
   <i type="logical" name="LOPTICS"> F  </i>
   <v name="STM">      0.00000000      0.00000000      0.00000000      0.00000000      0.00000000      0.00000000      0.00000000</v>
  </separator>
  <separator name="performance" >
   <i type="int" name="NPAR">     1</i>
   <i type="int" name="NSIM">     4</i>
   <i type="int" name="NBLK">    -1</i>
   <i type="logical" name="LPLANE"> T  </i>
   <i type="logical" name="LSCALAPACK"> F  </i>
   <i type="logical" name="LSCAAWARE"> F  </i>
   <i type="logical" name="LSCALU"> F  </i>
   <i type="logical" name="LASYNC"> F  </i>
   <i type="logical" name="LORBITALREAL"> F  </i>
  </separator>
  <separator name="miscellaneous" >
   <i type="int" name="IDIOT">     3</i>
   <i type="int" name="PHON_NSTRUCT">    -1</i>
   <i type="logical" name="LMUSIC"> F  </i>
   <v name="POMASS">     28.08500000</v>
   <v name="DARWINR">      0.00000000</v>
   <v name="DARWINV">      1.00000000</v>
   <i type="logical" name="LCORR"> T  </i>
  </separator>
  <i type="logical" name="GGA_COMPAT"> T  </i>
  <i type="logical" name="LBERRY"> F  </i>
  <i type="int" name="ICORELEVEL">     0</i>
  <i type="logical" name="LDAU"> F  </i>
  <i type="int" name="I_CONSTRAINED_M">     0</i>
  <separator name="electronic exchange-correlation" >
   <i type="string" name="GGA">--</i>
   <i type="int" name="VOSKOWN">     0</i>
   <i type="logical" name="LHFCALC"> F  </i>
   <i type="string" name="PRECFOCK"></i>
   <i type="logical" name="LSYMGRAD"> F  </i>
   <i type="logical" name="LHFONE"> F  </i>
   <i type="logical" name="LRHFCALC"> F  </i>
   <i type="logical" name="LTHOMAS"> F  </i>
   <i type="logical" name="LMODELHF"> F  </i>
   <i type="logical" name="LFOCKACE"> F  </i>
   <i name="ENCUT4O">     -1.00000000</i>
   <i type="int" name="EXXOEP">     0</i>
   <i type="int" name="FOURORBIT">     0</i>
   <i name="AEXX">      0.00000000</i>
   <i name="HFALPHA">      0.00000000</i>
   <i name="MCALPHA">      0.00000000</i>
   <i name="ALDAX">      1.00000000</i>
   <i name="AGGAX">      1.00000000</i>
   <i name="ALDAC">      1.00000000</i>
   <i name="AGGAC">      1.00000000</i>
   <i type="int" name="NKREDX">     1</i>
   <i type="int" name="NKREDY">     1</i>
   <i type="int" name="NKREDZ">     1</i>
   <i type="logical" name="SHIFTRED"> F  </i>
   <i type="logical" name="ODDONLY"> F  </i>
   <i type="logical" name="EVENONLY"> F  </i>
   <i type="int" name="LMAXFOCK">     0</i>
   <i type="int" name="NMAXFOCKAE">     0</i>
   <i type="logical" name="LFOCKAEDFT"> F  </i>
   <i name="HFSCREEN">      0.00000000</i>
   <i name="HFSCREENC">      0.00000000</i>
   <i type="int" name="NBANDSGWLOW">     0</i>
  </separator>
  <separator name="vdW DFT" >
   <i type="logical" name="LUSE_VDW"> F  </i>
   <i name="Zab_VDW">     -0.84910000</i>
   <i name="PARAM1">      0.12340000</i>
   <i name="PARAM2">      1.00000000</i>
   <i name="PARAM3">      0.00000000</i>
  </separator>
  <separator name="model GW" >
   <i type="int" name="MODEL_GW">     0</i>
   <i name="MODEL_EPS0">     12.64050290</i>
   <i name="MODEL_ALPHA">      1.00000000</i>
  </separator>
  <separator name="linear response parameters" >
   <i type="logical" name="LEPSILON"> F  </i>
   <i type="logical" name="LRPA"> F  </i>
   <i type="logical" name="LNABLA"> F  </i>
   <i type="logical" name="LVEL"> F  </i>
   <i type="int" name="KINTER">     0</i>
   <i name="CSHIFT">      0.10000000</i>
   <i name="OMEGAMAX">     -1.00000000</i>
   <i name="DEG_THRESHOLD">      0.00200000</i>
   <i name="RTIME">     -0.10000000</i>
   <i name="WPLASMAI">      0.00000000</i>
   <v name="DFIELD">      0.00000000      0.00000000      0.00000000</v>
   <v name="WPLASMA">      0.00000000      0.00000000      0.00000000      0.00000000      0.00000000      0.00000000      0.00000000      0.00000000      0.00000000</v>
  </separator>
  <separator name="orbital magnetization" >
   <i type="logical" name="NUCIND"> F  </i>
   <v name="MAGPOS">      0.00000000      0.00000000      0.00000000</v>
   <i type="logical" name="LNICSALL"> T  </i>
   <i type="logical" name="ORBITALMAG"> F  </i>
   <i type="logical" name="LMAGBLOCH"> F  </i>
   <i type="logical" name="LCHIMAG"> F  </i>
   <i type="logical" name="LGAUGE"> T  </i>
   <i type="int" name="MAGATOM">     0</i>
   <v name="MAGDIPOL">      0.00000000      0.00000000      0.00000000</v>
   <v name="AVECCONST">      0.00000000      0.00000000      0.00000000</v>
  </separator>
  <separator name="response functions" >
   <i type="logical" name="LFINITE_TEMPERATURE"> F  </i>
   <i type="logical" name="LADDER"> F  </i>
   <i type="logical" name="LRPAFORCE"> F  </i>
   <i type="logical" name="LFXC"> F  </i>
   <i type="logical" name="LHARTREE"> T  </i>
   <i type="int" name="IBSE">     0</i>
   <v type="int" name="KPOINT">    -1     0     0     0</v>
   <i type="logical" name="LTCTC"> F  </i>
   <i type="logical" name="LTCTE"> F  </i>
   <i type="logical" name="LTETE"> F  </i>
   <i type="logical" name="LTRIPLET"> F  </i>
   <i type="logical" name="LFXCEPS"> F  </i>
   <i type="logical" name="LFXHEG"> F  </i>
   <i type="int" name="NATURALO">     2</i>
   <i type="logical" name="LHOLEGF"> F  </i>
   <i type="logical" name="L2ORDER"> F  </i>
   <i type="logical" name="LDMP1"> F  </i>
   <i type="logical" name="LMP2LT"> F  </i>
   <i type="logical" name="LSMP2LT"> F  </i>
   <i type="logical" name="LGWLF"> F  </i>
   <i name="ENCUTGW">     -2.00000000</i>
   <i name="ENCUTGWSOFT">     -2.00000000</i>
   <i name="ENCUTLF">     -1.00000000</i>
   <i type="logical" name="LESF_SPLINES"> F  </i>
   <i type="int" name="LMAXMP2">    -1</i>
   <i name="SCISSOR">      0.00000000</i>
   <i type="int" name="NOMEGA">     0</i>
   <i type="int" name="NOMEGAR">     0</i>
   <i type="int" name="NBANDSGW">    -1</i>
   <i type="int" name="NBANDSO">    -1</i>
   <i type="int" name="NBANDSV">    -1</i>
   <i type="int" name="NELM">   200</i>
   <i type="int" name="NELMHF">     1</i>
   <i type="int" name="DIM">     3</i>
   <i type="int" name="IESPILON">     4</i>
   <i type="int" name="ANTIRES">     0</i>
   <i name="OMEGAMAX">    -30.00000000</i>
   <i name="OMEGAMIN">    -30.00000000</i>
   <i name="OMEGATL">   -200.00000000</i>
   <i type="int" name="OMEGAGRID">     0</i>
   <i name="CSHIFT">     -0.10000000</i>
   <i type="logical" name="LSELFENERGY"> F  </i>
   <i type="logical" name="LSPECTRAL"> F  </i>
   <i type="logical" name="LSPECTRALGW"> F  </i>
   <i type="logical" name="LSINGLES"> F  </i>
   <i type="logical" name="LFERMIGW"> F  </i>
   <i type="logical" name="ODDONLYGW"> F  </i>
   <i type="logical" name="EVENONLYGW"> F  </i>
   <i type="int" name="NKREDLFX">     1</i>
   <i type="int" name="NKREDLFY">     1</i>
   <i type="int" name="NKREDLFZ">     1</i>
   <i type="int" name="MAXMEM">  2800</i>
   <i type="int" name="TELESCOPE">     0</i>
   <i type="int" name="NTAUPAR">    -1</i>
   <i type="int" name="NOMEGAPAR">    -1</i>
   <i name="DAMP_NEWTON">      0.80000001</i>
   <i name="LAMBDA">      1.00000000</i>
  </separator>
  <separator name="External order field" >
   <i name="OFIELD_KAPPA">      0.00000000</i>
   <v name="OFIELD_K">      0.00000000      0.00000000      0.00000000</v>
   <i name="OFIELD_Q6_NEAR">      0.00000000</i>
   <i name="OFIELD_Q6_FAR">      0.00000000</i>
   <i name="OFIELD_A">      0.00000000</i>
  </separator>
 </parameters>
 <atominfo>
  <atoms>       2 </atoms>
  <types>       1 </types>
  <array name="atoms" >
   <dimension dim="1">ion</dimension>
   <field type="string">element</field>
   <field type="int">atomtype</field>
   <set>
    <rc><c>Si</c><c>   1</c></rc>
    <rc><c>Si</c><c>   1</c></rc>
   </set>
  </array>
  <array name="atomtypes" >
   <dimension dim="1">type</dimension>
   <field type="int">atomspertype</field>
   <field type="string">element</field>
   <field>mass</field>
   <field>valence</field>
   <field type="string">pseudopotential</field>
   <set>
    <rc><c>   2</c><c>Si</c><c>     28.08500000</c><c>      4.00000000</c><c>  PAW_PBE Si 05Jan2001                  </c></rc>
   </set>
  </array>
 </atominfo>
 <structure name="initialpos" >
  <crystal>
   <varray name="basis" >
    <v>       0.00000000       2.75277700       2.75277700 </v>
    <v>       2.78016800       0.00000000       2.75277700 </v>
    <v>       2.78016800       2.75277700       0.00000000 </v>
   </varray>
   <i name="volume">     42.13500967 </i>
   <varray name="rec_basis" >
    <v>      -0.17984525       0.18163476       0.18163476 </v>
    <v>       0.17984525      -0.18163476       0.18163476 </v>
    <v>       0.17984525       0.18163476      -0.18163476 </v>
   </varray>
  </crystal>
  <varray name="positions" >
   <v>       0.75000000       0.75000000       0.75000000 </v>
   <v>       0.50000000       0.50000000       0.50000000 </v>
  </varray>
 </structure>
 <calculation>
  <scstep>
   <time name="dav">    0.44    0.50</time>
   <time name="total">    1.05    1.16</time>
   <energy>
    <i name="alphaZ">      3.19573970 </i>
    <i name="ewald">   -224.68749248 </i>
    <i name="hartreedc">    -11.78365828 </i>
    <i name="XCdc">    -18.80078028 </i>
    <i name="pawpsdc">    176.24759923 </i>
    <i name="pawaedc">   -141.06103558 </i>
    <i name="eentropy">      0.00000000 </i>
    <i name="bandstr">     24.45809666 </i>
    <i name="atom">    206.13324734 </i>
    <i name="e_fr_energy">     13.70171631 </i>
    <i name="e_wo_entrp">     13.70171631 </i>
    <i name="e_0_energy">     13.70171631 </i>
   </energy>
  </scstep>
  <scstep>
   <time name="dav">    0.52    0.53</time>
   <time name="total">    0.52    0.53</time>
   <energy>
    <i name="e_fr_energy">     -9.78455053 </i>
    <i name="e_wo_entrp">     -9.78455053 </i>
    <i name="e_0_energy">     -9.78455053 </i>
   </energy>
  </scstep>
  <scstep>
   <time name="dav">    0.39    0.40</time>
   <time name="total">    0.39    0.40</time>
   <energy>
    <i name="e_fr_energy">    -10.44204791 </i>
    <i name="e_wo_entrp">    -10.44204791 </i>
    <i name="e_0_energy">    -10.44204791 </i>
   </energy>
  </scstep>
  <scstep>
   <time name="dav">    0.57    0.58</time>
   <time name="total">    0.57    0.58</time>
   <energy>
    <i name="e_fr_energy">    -10.44840482 </i>
    <i name="e_wo_entrp">    -10.44840482 </i>
    <i name="e_0_energy">    -10.44840482 </i>
   </energy>
  </scstep>
  <scstep>
   <time name="dav">    0.66    0.68</time>
   <time name="total">    0.73    0.75</time>
   <energy>
    <i name="e_fr_energy">    -10.44840850 </i>
    <i name="e_wo_entrp">    -10.44840850 </i>
    <i name="e_0_energy">    -10.44840850 </i>
   </energy>
  </scstep>
  <scstep>
   <time name="dav">    0.41    0.42</time>
   <time name="total">    1.05    1.07</time>
   <energy>
    <i name="e_fr_energy">    -10.30690105 </i>
    <i name="e_wo_entrp">    -10.30690105 </i>
    <i name="e_0_energy">    -10.30690105 </i>
   </energy>
  </scstep>
  <scstep>
   <time name="dav">    0.43    0.44</time>
   <time name="total">    1.09    1.11</time>
   <energy>
    <i name="e_fr_energy">    -10.24223006 </i>
    <i name="e_wo_entrp">    -10.24223006 </i>
    <i name="e_0_energy">    -10.24223006 </i>
   </energy>
  </scstep>
  <scstep>
   <time name="dav">    0.37    0.37</time>
   <time name="total">    1.01    1.02</time>
   <energy>
    <i name="e_fr_energy">    -10.24469194 </i>
    <i name="e_wo_entrp">    -10.24469194 </i>
    <i name="e_0_energy">    -10.24469194 </i>
   </energy>
  </scstep>
  <scstep>
   <time name="dav">    0.39    0.39</time>
   <time name="total">    1.04    1.06</time>
   <energy>
    <i name="e_fr_energy">    -10.24513367 </i>
    <i name="e_wo_entrp">    -10.24513367 </i>
    <i name="e_0_energy">    -10.24513367 </i>
   </energy>
  </scstep>
  <scstep>
   <time name="dav">    0.40    0.40</time>
   <time name="total">    1.00    1.01</time>
   <energy>
    <i name="e_fr_energy">    -10.24517640 </i>
    <i name="e_wo_entrp">    -10.24517640 </i>
    <i name="e_0_energy">    -10.24517640 </i>
   </energy>
  </scstep>
  <scstep>
   <time name="dav">    0.51    0.52</time>
   <time name="total">    1.16    1.18</time>
   <energy>
    <i name="e_fr_energy">    -10.24517696 </i>
    <i name="e_wo_entrp">    -10.24517696 </i>
    <i name="e_0_energy">    -10.24517696 </i>
   </energy>
  </scstep>
  <scstep>
   <time name="dav">    0.40    0.41</time>
   <time name="total">    1.05    1.07</time>
   <energy>
    <i name="e_fr_energy">    -10.24517711 </i>
    <i name="e_wo_entrp">    -10.24517711 </i>
    <i name="e_0_energy">    -10.24517711 </i>
   </energy>
  </scstep>
  <scstep>
   <time name="dav">    0.38    0.39</time>
   <time name="total">    1.03    1.05</time>
   <energy>
    <i name="e_fr_energy">    -10.24517735 </i>
    <i name="e_wo_entrp">    -10.24517735 </i>
    <i name="e_0_energy">    -10.24517735 </i>
   </energy>
  </scstep>
  <scstep>
   <time name="dav">    0.30    0.30</time>
   <time name="total">    0.98    1.01</time>
   <energy>
    <i name="alphaZ">      3.19573970 </i>
    <i name="ewald">   -224.68749248 </i>
    <i name="hartreedc">    -16.32919547 </i>
    <i name="XCdc">    -18.10026450 </i>
    <i name="pawpsdc">    805.08169992 </i>
    <i name="pawaedc">   -770.09413342 </i>
    <i name="eentropy">      0.00000000 </i>
    <i name="bandstr">      4.55522156 </i>
    <i name="atom">    206.13324734 </i>
    <i name="e_fr_energy">    -10.24517735 </i>
    <i name="e_wo_entrp">    -10.24517735 </i>
    <i name="e_0_energy">    -10.24517735 </i>
   </energy>
  </scstep>
  <structure>
   <crystal>
    <varray name="basis" >
     <v>       0.00000000       2.75277700       2.75277700 </v>
     <v>       2.78016800       0.00000000       2.75277700 </v>
     <v>       2.78016800       2.75277700       0.00000000 </v>
    </varray>
    <i name="volume">     42.13500967 </i>
    <varray name="rec_basis" >
     <v>      -0.17984525       0.18163476       0.18163476 </v>
     <v>       0.17984525      -0.18163476       0.18163476 </v>
     <v>       0.17984525       0.18163476      -0.18163476 </v>
    </varray>
   </crystal>
   <varray name="positions" >
    <v>       0.75000000       0.75000000       0.75000000 </v>
    <v>       0.50000000       0.50000000       0.50000000 </v>
   </varray>
  </structure>
  <varray name="forces" >
   <v>      -0.00000000      -0.00000000       0.00000000 </v>
   <v>       0.00000000       0.00000000      -0.00000000 </v>
  </varray>
  <varray name="stress" >
   <v>     -15.30011743       0.00000000       0.00000000 </v>
   <v>       0.00000000      -5.15165409       0.00000000 </v>
   <v>       0.00000000       0.00000000      -5.15165409 </v>
  </varray>
  <energy>
   <i name="e_fr_energy">    -10.24517735 </i>
   <i name="e_wo_entrp">    -10.24517735 </i>
   <i name="e_0_energy">    -10.24517735 </i>
  </energy>
  <time name="totalsc">   15.34   15.73</time>
  <eigenvalues>
   <array>
    <dimension dim="1">band</dimension>
    <dimension dim="2">kpoint</dimension>
    <dimension dim="3">spin</dimension>
    <field>eigene</field>
    <field>occ</field>
    <set>
     <set comment="spin 1">
      <set comment="kpoint 1">
       <r>   -6.2052    1.0000 </r>
       <r>    5.3823    1.0000 </r>
       <r>    5.4505    1.0000 </r>
       <r>    5.4505    1.0000 </r>
       <r>    7.9163    0.0000 </r>
       <r>    7.9163    0.0000 </r>
       <r>    7.9539    0.0000 </r>
       <r>    8.2316    0.0000 </r>
      </set>
      <set comment="kpoint 2">
       <r>   -4.8901    1.0000 </r>
       <r>    0.2255    1.0000 </r>
       <r>    4.4189    1.0000 </r>
       <r>    4.4992    1.0000 </r>
       <r>    6.9963    0.0000 </r>
       <r>    8.8544    0.0000 </r>
       <r>    8.9052    0.0000 </r>
       <r>   13.0588    0.0000 </r>
      </set>
      <set comment="kpoint 3">
       <r>   -4.3713    1.0000 </r>
       <r>    0.4781    1.0000 </r>
       <r>    3.0795    1.0000 </r>
       <r>    3.0931    1.0000 </r>
       <r>    6.1635    0.0000 </r>
       <r>    7.4375    0.0000 </r>
       <r>   12.3631    0.0000 </r>
       <r>   12.5420    0.0000 </r>
      </set>
      <set comment="kpoint 4">
       <r>   -3.0959    1.0000 </r>
       <r>   -1.2075    1.0000 </r>
       <r>    1.2349    1.0000 </r>
       <r>    3.3724    1.0000 </r>
       <r>    6.9754    0.0000 </r>
       <r>   11.1039    0.0000 </r>
       <r>   11.6810    0.0000 </r>
       <r>   12.2709    0.0000 </r>
      </set>
      <set comment="kpoint 5">
       <r>   -4.4001    1.0000 </r>
       <r>    0.4105    1.0000 </r>
       <r>    3.1503    1.0000 </r>
       <r>    3.1503    1.0000 </r>
       <r>    6.2496    0.0000 </r>
       <r>    7.4632    0.0000 </r>
       <r>   12.4435    0.0000 </r>
       <r>   12.4435    0.0000 </r>
      </set>
      <set comment="kpoint 6">
       <r>   -3.0948    1.0000 </r>
       <r>   -1.2516    1.0000 </r>
       <r>    1.2039    1.0000 </r>
       <r>    3.4475    1.0000 </r>
       <r>    7.0599    0.0000 </r>
       <r>   11.2383    0.0000 </r>
       <r>   11.7019    0.0000 </r>
       <r>   12.1926    0.0000 </r>
      </set>
     </set>
     <set comment="spin 2">
      <set comment="kpoint 1">
       <r>   -6.2052    1.0000 </r>
       <r>    5.3823    1.0000 </r>
       <r>    5.4505    1.0000 </r>
       <r>    5.4505    1.0000 </r>
       <r>    7.9163    0.0000 </r>
       <r>    7.9163    0.0000 </r>
       <r>    7.9539    0.0000 </r>
       <r>    8.2316    0.0000 </r>
      </set>
      <set comment="kpoint 2">
       <r>   -4.8901    1.0000 </r>
       <r>    0.2255    1.0000 </r>
       <r>    4.4189    1.0000 </r>
       <r>    4.4992    1.0000 </r>
       <r>    6.9963    0.0000 </r>
       <r>    8.8544    0.0000 </r>
       <r>    8.9052    0.0000 </r>
       <r>   13.0588    0.0000 </r>
      </set>
      <set comment="kpoint 3">
       <r>   -4.3713    1.0000 </r>
       <r>    0.4781    1.0000 </r>
       <r>    3.0795    1.0000 </r>
       <r>    3.0931    1.0000 </r>
       <r>    6.1635    0.0000 </r>
       <r>    7.4375    0.0000 </r>
       <r>   12.3631    0.0000 </r>
       <r>   12.5419    0.0000 </r>
      </set>
      <set comment="kpoint 4">
       <r>   -3.0959    1.0000 </r>
       <r>   -1.2075    1.0000 </r>
       <r>    1.2349    1.0000 </r>
       <r>    3.3724    1.0000 </r>
       <r>    6.9754    0.0000 </r>
       <r>   11.1039    0.0000 </r>
       <r>   11.6810    0.0000 </r>
       <r>   12.2709    0.0000 </r>
      </set>
      <set comment="kpoint 5">
       <r>   -4.4001    1.0000 </r>
       <r>    0.4105    1.0000 </r>
       <r>    3.1503    1.0000 </r>
       <r>    3.1503    1.0000 </r>
       <r>    6.2496    0.0000 </r>
       <r>    7.4632    0.0000 </r>
       <r>   12.4435    0.0000 </r>
       <r>   12.4435    0.0000 </r>
      </set>
      <set comment="kpoint 6">
       <r>   -3.0948    1.0000 </r>
       <r>   -1.2516    1.0000 </r>
       <r>    1.2039    1.0000 </r>
       <r>    3.4475    1.0000 </r>
       <r>    7.0599    0.0000 </r>
       <r>   11.2383    0.0000 </r>
       <r>   11.7019    0.0000 </r>
       <r>   12.1926    0.0000 </r>
      </set>
     </set>
    </set>
   </array>
  </eigenvalues>
  <separator name="orbital magnetization" >
   <v name="MAGDIPOLOUT">      0.00000000      0.00000000      0.00000000</v>
  </separator>
  <dos>
   <i name="efermi">      5.45063020 </i>
   <total>
    <array>
     <dimension dim="1">gridpoints</dimension>
     <dimension dim="2">spin</dimension>
     <field>energy</field>
     <field>total</field>
     <field>integrated</field>
     <set>
      <set comment="spin 1">
       <r>    -7.1684     0.0000     0.0000 </r>
       <r>    -7.0977     0.0000     0.0000 </r>
       <r>    -7.0271     0.0000     0.0000 </r>
       <r>    -6.9565     0.0000     0.0000 </r>
       <r>    -6.8858     0.0000     0.0000 </r>
       <r>    -6.8152     0.0000     0.0000 </r>
       <r>    -6.7446     0.0000     0.0000 </r>
       <r>    -6.6739     0.0000     0.0000 </r>
       <r>    -6.6033     0.0000     0.0000 </r>
       <r>    -6.5326     0.0000     0.0000 </r>
       <r>    -6.4620     0.0000     0.0000 </r>
       <r>    -6.3914     0.0000     0.0000 </r>
       <r>    -6.3207     0.0000     0.0000 </r>
       <r>    -6.2501     0.0000     0.0000 </r>
       <r>    -6.1795     0.0001     0.0000 </r>
       <r>    -6.1088     0.0013     0.0000 </r>
       <r>    -6.0382     0.0039     0.0002 </r>
       <r>    -5.9676     0.0080     0.0006 </r>
       <r>    -5.8969     0.0134     0.0014 </r>
       <r>    -5.8263     0.0202     0.0026 </r>
       <r>    -5.7557     0.0285     0.0043 </r>
       <r>    -5.6850     0.0381     0.0066 </r>
       <r>    -5.6144     0.0492     0.0097 </r>
       <r>    -5.5438     0.0616     0.0136 </r>
       <r>    -5.4731     0.0755     0.0184 </r>
       <r>    -5.4025     0.0908     0.0243 </r>
       <r>    -5.3319     0.1075     0.0313 </r>
       <r>    -5.2612     0.1255     0.0395 </r>
       <r>    -5.1906     0.1450     0.0490 </r>
       <r>    -5.1200     0.1659     0.0600 </r>
       <r>    -5.0493     0.1882     0.0725 </r>
       <r>    -4.9787     0.2119     0.0866 </r>
       <r>    -4.9081     0.2370     0.1025 </r>
       <r>    -4.8374     0.2593     0.1201 </r>
       <r>    -4.7668     0.2812     0.1391 </r>
       <r>    -4.6962     0.3041     0.1598 </r>
       <r>    -4.6255     0.3280     0.1821 </r>
       <r>    -4.5549     0.3529     0.2062 </r>
       <r>    -4.4842     0.3789     0.2320 </r>
       <r>    -4.4136     0.4058     0.2597 </r>
       <r>    -4.3430     0.4429     0.2895 </r>
       <r>    -4.2723     0.4840     0.3223 </r>
       <r>    -4.2017     0.5196     0.3578 </r>
       <r>    -4.1311     0.5495     0.3956 </r>
       <r>    -4.0604     0.5739     0.4353 </r>
       <r>    -3.9898     0.5926     0.4765 </r>
       <r>    -3.9192     0.6057     0.5189 </r>
       <r>    -3.8485     0.6133     0.5620 </r>
       <r>    -3.7779     0.6152     0.6054 </r>
       <r>    -3.7073     0.6116     0.6487 </r>
       <r>    -3.6366     0.6024     0.6916 </r>
       <r>    -3.5660     0.5875     0.7337 </r>
       <r>    -3.4954     0.5671     0.7745 </r>
       <r>    -3.4247     0.5410     0.8137 </r>
       <r>    -3.3541     0.5094     0.8508 </r>
       <r>    -3.2835     0.4721     0.8855 </r>
       <r>    -3.2128     0.4293     0.9174 </r>
       <r>    -3.1422     0.3809     0.9460 </r>
       <r>    -3.0716     0.5243     1.0000 </r>
       <r>    -3.0009     0.0000     1.0000 </r>
       <r>    -2.9303     0.0000     1.0000 </r>
       <r>    -2.8597     0.0000     1.0000 </r>
       <r>    -2.7890     0.0000     1.0000 </r>
       <r>    -2.7184     0.0000     1.0000 </r>
       <r>    -2.6477     0.0000     1.0000 </r>
       <r>    -2.5771     0.0000     1.0000 </r>
       <r>    -2.5065     0.0000     1.0000 </r>
       <r>    -2.4358     0.0000     1.0000 </r>
       <r>    -2.3652     0.0000     1.0000 </r>
       <r>    -2.2946     0.0000     1.0000 </r>
       <r>    -2.2239     0.0000     1.0000 </r>
       <r>    -2.1533     0.0000     1.0000 </r>
       <r>    -2.0827     0.0000     1.0000 </r>
       <r>    -2.0120     0.0000     1.0000 </r>
       <r>    -1.9414     0.0000     1.0000 </r>
       <r>    -1.8708     0.0000     1.0000 </r>
       <r>    -1.8001     0.0000     1.0000 </r>
       <r>    -1.7295     0.0000     1.0000 </r>
       <r>    -1.6589     0.0000     1.0000 </r>
       <r>    -1.5882     0.0000     1.0000 </r>
       <r>    -1.5176     0.0000     1.0000 </r>
       <r>    -1.4470     0.0000     1.0000 </r>
       <r>    -1.3763     0.0000     1.0000 </r>
       <r>    -1.3057     0.0000     1.0000 </r>
       <r>    -1.2351     0.8560     1.0084 </r>
       <r>    -1.1644     0.4949     1.0541 </r>
       <r>    -1.0938     0.3823     1.0789 </r>
       <r>    -1.0232     0.4381     1.1079 </r>
       <r>    -0.9525     0.4875     1.1407 </r>
       <r>    -0.8819     0.5306     1.1767 </r>
       <r>    -0.8113     0.5673     1.2155 </r>
       <r>    -0.7406     0.5976     1.2566 </r>
       <r>    -0.6700     0.6216     1.2997 </r>
       <r>    -0.5993     0.6392     1.3443 </r>
       <r>    -0.5287     0.6504     1.3899 </r>
       <r>    -0.4581     0.6553     1.4360 </r>
       <r>    -0.3874     0.6538     1.4823 </r>
       <r>    -0.3168     0.6460     1.5283 </r>
       <r>    -0.2462     0.6318     1.5734 </r>
       <r>    -0.1755     0.6112     1.6174 </r>
       <r>    -0.1049     0.5843     1.6596 </r>
       <r>    -0.0343     0.5510     1.6997 </r>
       <r>     0.0364     0.5113     1.7373 </r>
       <r>     0.1070     0.4653     1.7718 </r>
       <r>     0.1776     0.4129     1.8029 </r>
       <r>     0.2483     0.3220     1.8296 </r>
       <r>     0.3189     0.1942     1.8476 </r>
       <r>     0.3895     0.1163     1.8582 </r>
       <r>     0.4602     0.0849     1.8651 </r>
       <r>     0.5308     0.0798     1.8709 </r>
       <r>     0.6014     0.0775     1.8764 </r>
       <r>     0.6721     0.0753     1.8818 </r>
       <r>     0.7427     0.0730     1.8871 </r>
       <r>     0.8133     0.0708     1.8921 </r>
       <r>     0.8840     0.0686     1.8971 </r>
       <r>     0.9546     0.0665     1.9018 </r>
       <r>     1.0252     0.0644     1.9065 </r>
       <r>     1.0959     0.0623     1.9109 </r>
       <r>     1.1665     0.0603     1.9153 </r>
       <r>     1.2372     0.8225     1.9595 </r>
       <r>     1.3078     0.3135     1.9811 </r>
       <r>     1.3784     0.3276     2.0037 </r>
       <r>     1.4491     0.3404     2.0273 </r>
       <r>     1.5197     0.3520     2.0518 </r>
       <r>     1.5903     0.3623     2.0770 </r>
       <r>     1.6610     0.3714     2.1029 </r>
       <r>     1.7316     0.3792     2.1295 </r>
       <r>     1.8022     0.3857     2.1565 </r>
       <r>     1.8729     0.3910     2.1839 </r>
       <r>     1.9435     0.3950     2.2117 </r>
       <r>     2.0141     0.3978     2.2397 </r>
       <r>     2.0848     0.3993     2.2678 </r>
       <r>     2.1554     0.3995     2.2961 </r>
       <r>     2.2260     0.3985     2.3243 </r>
       <r>     2.2967     0.3963     2.3523 </r>
       <r>     2.3673     0.3927     2.3802 </r>
       <r>     2.4379     0.3879     2.4078 </r>
       <r>     2.5086     0.3819     2.4350 </r>
       <r>     2.5792     0.3746     2.4617 </r>
       <r>     2.6498     0.3660     2.4879 </r>
       <r>     2.7205     0.3562     2.5134 </r>
       <r>     2.7911     0.3451     2.5382 </r>
       <r>     2.8617     0.3328     2.5621 </r>
       <r>     2.9324     0.3192     2.5851 </r>
       <r>     3.0030     0.3044     2.6072 </r>
       <r>     3.0736     0.2882     2.6281 </r>
       <r>     3.1443     0.4818     2.6532 </r>
       <r>     3.2149     0.9220     2.7019 </r>
       <r>     3.2856     1.4682     2.7857 </r>
       <r>     3.3562     2.1103     2.9116 </r>
       <r>     3.4268     1.8142     3.0625 </r>
       <r>     3.4975     0.9591     3.1380 </r>
       <r>     3.5681     0.9496     3.2054 </r>
       <r>     3.6387     0.9354     3.2720 </r>
       <r>     3.7094     0.9164     3.3374 </r>
       <r>     3.7800     0.8927     3.4014 </r>
       <r>     3.8506     0.8643     3.4634 </r>
       <r>     3.9213     0.8311     3.5234 </r>
       <r>     3.9919     0.7931     3.5807 </r>
       <r>     4.0625     0.7505     3.6353 </r>
       <r>     4.1332     0.7031     3.6866 </r>
       <r>     4.2038     0.6509     3.7345 </r>
       <r>     4.2744     0.5940     3.7785 </r>
       <r>     4.3451     0.5324     3.8183 </r>
       <r>     4.4157     0.4660     3.8536 </r>
       <r>     4.4863     0.3715     3.8832 </r>
       <r>     4.5570     0.3121     3.9071 </r>
       <r>     4.6276     0.2646     3.9274 </r>
       <r>     4.6982     0.2211     3.9446 </r>
       <r>     4.7689     0.1815     3.9588 </r>
       <r>     4.8395     0.1458     3.9703 </r>
       <r>     4.9101     0.1140     3.9795 </r>
       <r>     4.9808     0.0862     3.9865 </r>
       <r>     5.0514     0.0622     3.9917 </r>
       <r>     5.1220     0.0421     3.9954 </r>
       <r>     5.1927     0.0259     3.9978 </r>
       <r>     5.2633     0.0136     3.9991 </r>
       <r>     5.3340     0.0053     3.9998 </r>
       <r>     5.4046     0.0008     4.0000 </r>
       <r>     5.4752     0.0000     4.0000 </r>
       <r>     5.5459     0.0000     4.0000 </r>
       <r>     5.6165     0.0000     4.0000 </r>
       <r>     5.6871     0.0000     4.0000 </r>
       <r>     5.7578     0.0000     4.0000 </r>
       <r>     5.8284     0.0000     4.0000 </r>
       <r>     5.8990     0.0000     4.0000 </r>
       <r>     5.9697     0.0000     4.0000 </r>
       <r>     6.0403     0.0000     4.0000 </r>
       <r>     6.1109     0.0000     4.0000 </r>
       <r>     6.1816     0.0087     4.0001 </r>
       <r>     6.2522     0.0542     4.0022 </r>
       <r>     6.3228     0.1391     4.0088 </r>
       <r>     6.3935     0.2538     4.0225 </r>
       <r>     6.4641     0.3982     4.0454 </r>
       <r>     6.5347     0.5723     4.0795 </r>
       <r>     6.6054     0.7762     4.1269 </r>
       <r>     6.6760     1.0098     4.1898 </r>
       <r>     6.7466     1.2731     4.2703 </r>
       <r>     6.8173     1.5662     4.3704 </r>
       <r>     6.8879     1.8890     4.4922 </r>
       <r>     6.9585     2.2416     4.6379 </r>
       <r>     7.0292     2.6322     4.9096 </r>
       <r>     7.0998     0.2032     4.9447 </r>
       <r>     7.1705     0.1695     4.9579 </r>
       <r>     7.2411     0.1389     4.9687 </r>
       <r>     7.3117     0.1114     4.9776 </r>
       <r>     7.3824     0.0869     4.9845 </r>
       <r>     7.4530     0.0658     4.9899 </r>
       <r>     7.5236     0.0531     4.9940 </r>
       <r>     7.5943     0.0492     4.9976 </r>
       <r>     7.6649     0.0543     5.0012 </r>
       <r>     7.7355     0.0682     5.0055 </r>
       <r>     7.8062     0.0910     5.0111 </r>
       <r>     7.8768     0.1226     5.0185 </r>
       <r>     7.9474     0.1618     5.0286 </r>
       <r>     8.0181     0.1987     5.0413 </r>
       <r>     8.0887     0.2317     5.0565 </r>
       <r>     8.1593     0.2610     5.0740 </r>
       <r>     8.2300     0.2865     5.0933 </r>
       <r>     8.3006     0.3082     5.1144 </r>
       <r>     8.3712     0.3262     5.1368 </r>
       <r>     8.4419     0.3404     5.1604 </r>
       <r>     8.5125     0.3509     5.1848 </r>
       <r>     8.5831     0.3576     5.2098 </r>
       <r>     8.6538     0.3606     5.2352 </r>
       <r>     8.7244     0.3598     5.2607 </r>
       <r>     8.7950     0.3553     5.2860 </r>
       <r>     8.8657     0.3535     5.3108 </r>
       <r>     8.9363     0.3818     5.3368 </r>
       <r>     9.0069     0.4065     5.3647 </r>
       <r>     9.0776     0.4296     5.3942 </r>
       <r>     9.1482     0.4512     5.4253 </r>
       <r>     9.2189     0.4714     5.4579 </r>
       <r>     9.2895     0.4900     5.4919 </r>
       <r>     9.3601     0.5072     5.5271 </r>
       <r>     9.4308     0.5228     5.5635 </r>
       <r>     9.5014     0.5370     5.6010 </r>
       <r>     9.5720     0.5496     5.6393 </r>
       <r>     9.6427     0.5608     5.6786 </r>
       <r>     9.7133     0.5704     5.7185 </r>
       <r>     9.7839     0.5786     5.7591 </r>
       <r>     9.8546     0.5852     5.8002 </r>
       <r>     9.9252     0.5904     5.8417 </r>
       <r>     9.9958     0.5941     5.8836 </r>
       <r>    10.0665     0.5962     5.9256 </r>
       <r>    10.1371     0.5969     5.9678 </r>
       <r>    10.2077     0.5961     6.0099 </r>
       <r>    10.2784     0.5937     6.0519 </r>
       <r>    10.3490     0.5899     6.0938 </r>
       <r>    10.4196     0.5846     6.1353 </r>
       <r>    10.4903     0.5778     6.1763 </r>
       <r>    10.5609     0.5695     6.2168 </r>
       <r>    10.6315     0.5597     6.2567 </r>
       <r>    10.7022     0.5483     6.2959 </r>
       <r>    10.7728     0.5355     6.3342 </r>
       <r>    10.8434     0.5212     6.3715 </r>
       <r>    10.9141     0.5054     6.4078 </r>
       <r>    10.9847     0.4881     6.4428 </r>
       <r>    11.0553     0.4693     6.4767 </r>
       <r>    11.1260     0.7249     6.5222 </r>
       <r>    11.1966     0.5868     6.5659 </r>
       <r>    11.2673     0.3275     6.5952 </r>
       <r>    11.3379     0.3299     6.6184 </r>
       <r>    11.4085     0.3321     6.6418 </r>
       <r>    11.4792     0.3340     6.6653 </r>
       <r>    11.5498     0.3356     6.6889 </r>
       <r>    11.6204     0.3370     6.7127 </r>
       <r>    11.6911     2.6946     6.7637 </r>
       <r>    11.7617     0.8510     6.8398 </r>
       <r>    11.8323     0.7404     6.8960 </r>
       <r>    11.9030     0.6358     6.9445 </r>
       <r>    11.9736     0.5371     6.9859 </r>
       <r>    12.0442     0.4443     7.0206 </r>
       <r>    12.1149     0.3573     7.0488 </r>
       <r>    12.1855     0.2763     7.0712 </r>
       <r>    12.2561     1.4729     7.1430 </r>
       <r>    12.3268     2.0738     7.2833 </r>
       <r>    12.3974     1.7473     7.4127 </r>
       <r>    12.4680     1.5007     7.5270 </r>
       <r>    12.5387     1.2236     7.6240 </r>
       <r>    12.6093     1.1289     7.7068 </r>
       <r>    12.6799     1.0213     7.7829 </r>
       <r>    12.7506     0.8876     7.8505 </r>
       <r>    12.8212     0.7280     7.9077 </r>
       <r>    12.8918     0.5423     7.9527 </r>
       <r>    12.9625     0.3306     7.9837 </r>
       <r>    13.0331     0.0929     7.9988 </r>
       <r>    13.1038     0.0000     8.0000 </r>
       <r>    13.1744     0.0000     8.0000 </r>
       <r>    13.2450     0.0000     8.0000 </r>
       <r>    13.3157     0.0000     8.0000 </r>
       <r>    13.3863     0.0000     8.0000 </r>
       <r>    13.4569     0.0000     8.0000 </r>
       <r>    13.5276     0.0000     8.0000 </r>
       <r>    13.5982     0.0000     8.0000 </r>
       <r>    13.6688     0.0000     8.0000 </r>
       <r>    13.7395     0.0000     8.0000 </r>
       <r>    13.8101     0.0000     8.0000 </r>
       <r>    13.8807     0.0000     8.0000 </r>
       <r>    13.9514     0.0000     8.0000 </r>
       <r>    14.0220     0.0000     8.0000 </r>
      </set>
      <set comment="spin 2">
       <r>    -7.1684     0.0000     0.0000 </r>
       <r>    -7.0977     0.0000     0.0000 </r>
       <r>    -7.0271     0.0000     0.0000 </r>
       <r>    -6.9565     0.0000     0.0000 </r>
       <r>    -6.8858     0.0000     0.0000 </r>
       <r>    -6.8152     0.0000     0.0000 </r>
       <r>    -6.7446     0.0000     0.0000 </r>
       <r>    -6.6739     0.0000     0.0000 </r>
       <r>    -6.6033     0.0000     0.0000 </r>
       <r>    -6.5326     0.0000     0.0000 </r>
       <r>    -6.4620     0.0000     0.0000 </r>
       <r>    -6.3914     0.0000     0.0000 </r>
       <r>    -6.3207     0.0000     0.0000 </r>
       <r>    -6.2501     0.0000     0.0000 </r>
       <r>    -6.1795     0.0001     0.0000 </r>
       <r>    -6.1088     0.0013     0.0000 </r>
       <r>    -6.0382     0.0039     0.0002 </r>
       <r>    -5.9676     0.0080     0.0006 </r>
       <r>    -5.8969     0.0134     0.0014 </r>
       <r>    -5.8263     0.0202     0.0026 </r>
       <r>    -5.7557     0.0285     0.0043 </r>
       <r>    -5.6850     0.0381     0.0066 </r>
       <r>    -5.6144     0.0492     0.0097 </r>
       <r>    -5.5438     0.0616     0.0136 </r>
       <r>    -5.4731     0.0755     0.0184 </r>
       <r>    -5.4025     0.0908     0.0243 </r>
       <r>    -5.3319     0.1075     0.0313 </r>
       <r>    -5.2612     0.1255     0.0395 </r>
       <r>    -5.1906     0.1450     0.0490 </r>
       <r>    -5.1200     0.1659     0.0600 </r>
       <r>    -5.0493     0.1882     0.0725 </r>
       <r>    -4.9787     0.2119     0.0866 </r>
       <r>    -4.9081     0.2370     0.1025 </r>
       <r>    -4.8374     0.2593     0.1201 </r>
       <r>    -4.7668     0.2812     0.1391 </r>
       <r>    -4.6962     0.3041     0.1598 </r>
       <r>    -4.6255     0.3280     0.1821 </r>
       <r>    -4.5549     0.3529     0.2062 </r>
       <r>    -4.4842     0.3789     0.2320 </r>
       <r>    -4.4136     0.4058     0.2597 </r>
       <r>    -4.3430     0.4429     0.2895 </r>
       <r>    -4.2723     0.4840     0.3223 </r>
       <r>    -4.2017     0.5196     0.3578 </r>
       <r>    -4.1311     0.5495     0.3956 </r>
       <r>    -4.0604     0.5739     0.4353 </r>
       <r>    -3.9898     0.5926     0.4765 </r>
       <r>    -3.9192     0.6057     0.5189 </r>
       <r>    -3.8485     0.6133     0.5620 </r>
       <r>    -3.7779     0.6152     0.6054 </r>
       <r>    -3.7073     0.6116     0.6487 </r>
       <r>    -3.6366     0.6024     0.6916 </r>
       <r>    -3.5660     0.5875     0.7337 </r>
       <r>    -3.4954     0.5671     0.7745 </r>
       <r>    -3.4247     0.5410     0.8137 </r>
       <r>    -3.3541     0.5094     0.8508 </r>
       <r>    -3.2835     0.4721     0.8855 </r>
       <r>    -3.2128     0.4293     0.9174 </r>
       <r>    -3.1422     0.3809     0.9460 </r>
       <r>    -3.0716     0.5243     1.0000 </r>
       <r>    -3.0009     0.0000     1.0000 </r>
       <r>    -2.9303     0.0000     1.0000 </r>
       <r>    -2.8597     0.0000     1.0000 </r>
       <r>    -2.7890     0.0000     1.0000 </r>
       <r>    -2.7184     0.0000     1.0000 </r>
       <r>    -2.6477     0.0000     1.0000 </r>
       <r>    -2.5771     0.0000     1.0000 </r>
       <r>    -2.5065     0.0000     1.0000 </r>
       <r>    -2.4358     0.0000     1.0000 </r>
       <r>    -2.3652     0.0000     1.0000 </r>
       <r>    -2.2946     0.0000     1.0000 </r>
       <r>    -2.2239     0.0000     1.0000 </r>
       <r>    -2.1533     0.0000     1.0000 </r>
       <r>    -2.0827     0.0000     1.0000 </r>
       <r>    -2.0120     0.0000     1.0000 </r>
       <r>    -1.9414     0.0000     1.0000 </r>
       <r>    -1.8708     0.0000     1.0000 </r>
       <r>    -1.8001     0.0000     1.0000 </r>
       <r>    -1.7295     0.0000     1.0000 </r>
       <r>    -1.6589     0.0000     1.0000 </r>
       <r>    -1.5882     0.0000     1.0000 </r>
       <r>    -1.5176     0.0000     1.0000 </r>
       <r>    -1.4470     0.0000     1.0000 </r>
       <r>    -1.3763     0.0000     1.0000 </r>
       <r>    -1.3057     0.0000     1.0000 </r>
       <r>    -1.2351     0.8560     1.0084 </r>
       <r>    -1.1644     0.4949     1.0541 </r>
       <r>    -1.0938     0.3823     1.0789 </r>
       <r>    -1.0232     0.4381     1.1079 </r>
       <r>    -0.9525     0.4875     1.1407 </r>
       <r>    -0.8819     0.5306     1.1767 </r>
       <r>    -0.8113     0.5673     1.2155 </r>
       <r>    -0.7406     0.5976     1.2566 </r>
       <r>    -0.6700     0.6216     1.2997 </r>
       <r>    -0.5993     0.6392     1.3443 </r>
       <r>    -0.5287     0.6504     1.3899 </r>
       <r>    -0.4581     0.6553     1.4360 </r>
       <r>    -0.3874     0.6538     1.4823 </r>
       <r>    -0.3168     0.6460     1.5283 </r>
       <r>    -0.2462     0.6318     1.5734 </r>
       <r>    -0.1755     0.6112     1.6174 </r>
       <r>    -0.1049     0.5843     1.6596 </r>
       <r>    -0.0343     0.5510     1.6997 </r>
       <r>     0.0364     0.5113     1.7373 </r>
       <r>     0.1070     0.4653     1.7718 </r>
       <r>     0.1776     0.4129     1.8029 </r>
       <r>     0.2483     0.3220     1.8296 </r>
       <r>     0.3189     0.1942     1.8476 </r>
       <r>     0.3895     0.1163     1.8582 </r>
       <r>     0.4602     0.0849     1.8651 </r>
       <r>     0.5308     0.0798     1.8709 </r>
       <r>     0.6014     0.0775     1.8764 </r>
       <r>     0.6721     0.0753     1.8818 </r>
       <r>     0.7427     0.0730     1.8871 </r>
       <r>     0.8133     0.0708     1.8921 </r>
       <r>     0.8840     0.0686     1.8971 </r>
       <r>     0.9546     0.0665     1.9018 </r>
       <r>     1.0252     0.0644     1.9065 </r>
       <r>     1.0959     0.0623     1.9109 </r>
       <r>     1.1665     0.0603     1.9153 </r>
       <r>     1.2372     0.8225     1.9595 </r>
       <r>     1.3078     0.3135     1.9811 </r>
       <r>     1.3784     0.3276     2.0037 </r>
       <r>     1.4491     0.3404     2.0273 </r>
       <r>     1.5197     0.3520     2.0518 </r>
       <r>     1.5903     0.3623     2.0770 </r>
       <r>     1.6610     0.3714     2.1029 </r>
       <r>     1.7316     0.3792     2.1295 </r>
       <r>     1.8022     0.3857     2.1565 </r>
       <r>     1.8729     0.3910     2.1839 </r>
       <r>     1.9435     0.3950     2.2117 </r>
       <r>     2.0141     0.3978     2.2397 </r>
       <r>     2.0848     0.3993     2.2678 </r>
       <r>     2.1554     0.3995     2.2961 </r>
       <r>     2.2260     0.3985     2.3243 </r>
       <r>     2.2967     0.3963     2.3523 </r>
       <r>     2.3673     0.3927     2.3802 </r>
       <r>     2.4379     0.3879     2.4078 </r>
       <r>     2.5086     0.3819     2.4350 </r>
       <r>     2.5792     0.3746     2.4617 </r>
       <r>     2.6498     0.3660     2.4879 </r>
       <r>     2.7205     0.3562     2.5134 </r>
       <r>     2.7911     0.3451     2.5382 </r>
       <r>     2.8617     0.3328     2.5621 </r>
       <r>     2.9324     0.3192     2.5851 </r>
       <r>     3.0030     0.3044     2.6072 </r>
       <r>     3.0736     0.2882     2.6281 </r>
       <r>     3.1443     0.4818     2.6532 </r>
       <r>     3.2149     0.9220     2.7019 </r>
       <r>     3.2856     1.4682     2.7857 </r>
       <r>     3.3562     2.1103     2.9116 </r>
       <r>     3.4268     1.8142     3.0625 </r>
       <r>     3.4975     0.9591     3.1380 </r>
       <r>     3.5681     0.9496     3.2054 </r>
       <r>     3.6387     0.9354     3.2720 </r>
       <r>     3.7094     0.9164     3.3374 </r>
       <r>     3.7800     0.8927     3.4014 </r>
       <r>     3.8506     0.8643     3.4634 </r>
       <r>     3.9213     0.8311     3.5234 </r>
       <r>     3.9919     0.7931     3.5807 </r>
       <r>     4.0625     0.7505     3.6353 </r>
       <r>     4.1332     0.7030     3.6866 </r>
       <r>     4.2038     0.6509     3.7345 </r>
       <r>     4.2744     0.5940     3.7785 </r>
       <r>     4.3451     0.5324     3.8183 </r>
       <r>     4.4157     0.4660     3.8536 </r>
       <r>     4.4863     0.3715     3.8832 </r>
       <r>     4.5570     0.3121     3.9071 </r>
       <r>     4.6276     0.2646     3.9274 </r>
       <r>     4.6982     0.2211     3.9446 </r>
       <r>     4.7689     0.1815     3.9588 </r>
       <r>     4.8395     0.1458     3.9703 </r>
       <r>     4.9101     0.1140     3.9795 </r>
       <r>     4.9808     0.0862     3.9865 </r>
       <r>     5.0514     0.0622     3.9917 </r>
       <r>     5.1220     0.0421     3.9954 </r>
       <r>     5.1927     0.0259     3.9978 </r>
       <r>     5.2633     0.0136     3.9991 </r>
       <r>     5.3340     0.0053     3.9998 </r>
       <r>     5.4046     0.0008     4.0000 </r>
       <r>     5.4752     0.0000     4.0000 </r>
       <r>     5.5459     0.0000     4.0000 </r>
       <r>     5.6165     0.0000     4.0000 </r>
       <r>     5.6871     0.0000     4.0000 </r>
       <r>     5.7578     0.0000     4.0000 </r>
       <r>     5.8284     0.0000     4.0000 </r>
       <r>     5.8990     0.0000     4.0000 </r>
       <r>     5.9697     0.0000     4.0000 </r>
       <r>     6.0403     0.0000     4.0000 </r>
       <r>     6.1109     0.0000     4.0000 </r>
       <r>     6.1816     0.0087     4.0001 </r>
       <r>     6.2522     0.0542     4.0022 </r>
       <r>     6.3228     0.1391     4.0088 </r>
       <r>     6.3935     0.2538     4.0225 </r>
       <r>     6.4641     0.3982     4.0454 </r>
       <r>     6.5347     0.5723     4.0795 </r>
       <r>     6.6054     0.7762     4.1269 </r>
       <r>     6.6760     1.0098     4.1898 </r>
       <r>     6.7466     1.2731     4.2703 </r>
       <r>     6.8173     1.5662     4.3704 </r>
       <r>     6.8879     1.8890     4.4922 </r>
       <r>     6.9585     2.2416     4.6379 </r>
       <r>     7.0292     2.6322     4.9096 </r>
       <r>     7.0998     0.2032     4.9447 </r>
       <r>     7.1705     0.1695     4.9579 </r>
       <r>     7.2411     0.1389     4.9687 </r>
       <r>     7.3117     0.1114     4.9776 </r>
       <r>     7.3824     0.0869     4.9845 </r>
       <r>     7.4530     0.0658     4.9899 </r>
       <r>     7.5236     0.0531     4.9940 </r>
       <r>     7.5943     0.0492     4.9976 </r>
       <r>     7.6649     0.0543     5.0012 </r>
       <r>     7.7355     0.0682     5.0055 </r>
       <r>     7.8062     0.0910     5.0111 </r>
       <r>     7.8768     0.1226     5.0185 </r>
       <r>     7.9474     0.1618     5.0286 </r>
       <r>     8.0181     0.1987     5.0413 </r>
       <r>     8.0887     0.2317     5.0565 </r>
       <r>     8.1593     0.2610     5.0740 </r>
       <r>     8.2300     0.2865     5.0933 </r>
       <r>     8.3006     0.3082     5.1144 </r>
       <r>     8.3712     0.3262     5.1368 </r>
       <r>     8.4419     0.3404     5.1604 </r>
       <r>     8.5125     0.3509     5.1848 </r>
       <r>     8.5831     0.3576     5.2098 </r>
       <r>     8.6538     0.3606     5.2352 </r>
       <r>     8.7244     0.3598     5.2607 </r>
       <r>     8.7950     0.3553     5.2860 </r>
       <r>     8.8657     0.3535     5.3108 </r>
       <r>     8.9363     0.3818     5.3368 </r>
       <r>     9.0069     0.4065     5.3647 </r>
       <r>     9.0776     0.4296     5.3942 </r>
       <r>     9.1482     0.4512     5.4254 </r>
       <r>     9.2189     0.4714     5.4579 </r>
       <r>     9.2895     0.4900     5.4919 </r>
       <r>     9.3601     0.5072     5.5271 </r>
       <r>     9.4308     0.5228     5.5635 </r>
       <r>     9.5014     0.5370     5.6010 </r>
       <r>     9.5720     0.5496     5.6393 </r>
       <r>     9.6427     0.5608     5.6786 </r>
       <r>     9.7133     0.5704     5.7185 </r>
       <r>     9.7839     0.5786     5.7591 </r>
       <r>     9.8546     0.5852     5.8002 </r>
       <r>     9.9252     0.5904     5.8417 </r>
       <r>     9.9958     0.5941     5.8836 </r>
       <r>    10.0665     0.5962     5.9256 </r>
       <r>    10.1371     0.5969     5.9678 </r>
       <r>    10.2077     0.5961     6.0099 </r>
       <r>    10.2784     0.5937     6.0519 </r>
       <r>    10.3490     0.5899     6.0938 </r>
       <r>    10.4196     0.5846     6.1353 </r>
       <r>    10.4903     0.5778     6.1763 </r>
       <r>    10.5609     0.5695     6.2168 </r>
       <r>    10.6315     0.5597     6.2567 </r>
       <r>    10.7022     0.5483     6.2959 </r>
       <r>    10.7728     0.5355     6.3342 </r>
       <r>    10.8434     0.5212     6.3715 </r>
       <r>    10.9141     0.5054     6.4078 </r>
       <r>    10.9847     0.4881     6.4428 </r>
       <r>    11.0553     0.4693     6.4767 </r>
       <r>    11.1260     0.7249     6.5222 </r>
       <r>    11.1966     0.5868     6.5659 </r>
       <r>    11.2673     0.3275     6.5952 </r>
       <r>    11.3379     0.3299     6.6184 </r>
       <r>    11.4085     0.3321     6.6418 </r>
       <r>    11.4792     0.3340     6.6653 </r>
       <r>    11.5498     0.3356     6.6889 </r>
       <r>    11.6204     0.3370     6.7127 </r>
       <r>    11.6911     2.6946     6.7637 </r>
       <r>    11.7617     0.8510     6.8398 </r>
       <r>    11.8323     0.7404     6.8960 </r>
       <r>    11.9030     0.6358     6.9445 </r>
       <r>    11.9736     0.5371     6.9859 </r>
       <r>    12.0442     0.4442     7.0206 </r>
       <r>    12.1149     0.3573     7.0488 </r>
       <r>    12.1855     0.2763     7.0712 </r>
       <r>    12.2561     1.4729     7.1430 </r>
       <r>    12.3268     2.0738     7.2833 </r>
       <r>    12.3974     1.7473     7.4127 </r>
       <r>    12.4680     1.5007     7.5270 </r>
       <r>    12.5387     1.2236     7.6240 </r>
       <r>    12.6093     1.1289     7.7068 </r>
       <r>    12.6799     1.0213     7.7829 </r>
       <r>    12.7506     0.8876     7.8505 </r>
       <r>    12.8212     0.7280     7.9077 </r>
       <r>    12.8918     0.5423     7.9527 </r>
       <r>    12.9625     0.3306     7.9837 </r>
       <r>    13.0331     0.0929     7.9988 </r>
       <r>    13.1038     0.0000     8.0000 </r>
       <r>    13.1744     0.0000     8.0000 </r>
       <r>    13.2450     0.0000     8.0000 </r>
       <r>    13.3157     0.0000     8.0000 </r>
       <r>    13.3863     0.0000     8.0000 </r>
       <r>    13.4569     0.0000     8.0000 </r>
       <r>    13.5276     0.0000     8.0000 </r>
       <r>    13.5982     0.0000     8.0000 </r>
       <r>    13.6688     0.0000     8.0000 </r>
       <r>    13.7395     0.0000     8.0000 </r>
       <r>    13.8101     0.0000     8.0000 </r>
       <r>    13.8807     0.0000     8.0000 </r>
       <r>    13.9514     0.0000     8.0000 </r>
       <r>    14.0220     0.0000     8.0000 </r>
      </set>
     </set>
    </array>
   </total>
   <partial>
    <array>
     <dimension dim="1">gridpoints</dimension>
     <dimension dim="2">spin</dimension>
     <dimension dim="3">ion</dimension>
     <field>energy</field>
     <field>    s</field>
     <field>   py</field>
     <field>   pz</field>
     <field>   px</field>
     <field>  dxy</field>
     <field>  dyz</field>
     <field>  dz2</field>
     <field>  dxz</field>
     <field>x2-y2</field>
     <set>
      <set comment="ion 1">
       <set comment="spin 1">
        <r>    -7.1684     0.0000     0.0000     0.0000     0.0000     0.0000     0.0000     0.0000     0.0000     0.0000 </r>
        <r>    -7.0977     0.0000     0.0000     0.0000     0.0000     0.0000     0.0000     0.0000     0.0000     0.0000 </r>
        <r>    -7.0271     0.0000     0.0000     0.0000     0.0000     0.0000     0.0000     0.0000     0.0000     0.0000 </r>
        <r>    -6.9565     0.0000     0.0000     0.0000     0.0000     0.0000     0.0000     0.0000     0.0000     0.0000 </r>
        <r>    -6.8858     0.0000     0.0000     0.0000     0.0000     0.0000     0.0000     0.0000     0.0000     0.0000 </r>
        <r>    -6.8152     0.0000     0.0000     0.0000     0.0000     0.0000     0.0000     0.0000     0.0000     0.0000 </r>
        <r>    -6.7446     0.0000     0.0000     0.0000     0.0000     0.0000     0.0000     0.0000     0.0000     0.0000 </r>
        <r>    -6.6739     0.0000     0.0000     0.0000     0.0000     0.0000     0.0000     0.0000     0.0000     0.0000 </r>
        <r>    -6.6033     0.0000     0.0000     0.0000     0.0000     0.0000     0.0000     0.0000     0.0000     0.0000 </r>
        <r>    -6.5326     0.0000     0.0000     0.0000     0.0000     0.0000     0.0000     0.0000     0.0000     0.0000 </r>
        <r>    -6.4620     0.0000     0.0000     0.0000     0.0000     0.0000     0.0000     0.0000     0.0000     0.0000 </r>
        <r>    -6.3914     0.0000     0.0000     0.0000     0.0000     0.0000     0.0000     0.0000     0.0000     0.0000 </r>
        <r>    -6.3207     0.0000     0.0000     0.0000     0.0000     0.0000     0.0000     0.0000     0.0000     0.0000 </r>
        <r>    -6.2501     0.0000     0.0000     0.0000     0.0000     0.0000     0.0000     0.0000     0.0000     0.0000 </r>
        <r>    -6.1795     0.0000     0.0000     0.0000     0.0000     0.0000     0.0000     0.0000     0.0000     0.0000 </r>
        <r>    -6.1088     0.0003     0.0000     0.0000     0.0000     0.0000     0.0000     0.0000     0.0000     0.0000 </r>
        <r>    -6.0382     0.0008     0.0000     0.0000     0.0000     0.0000     0.0000     0.0000     0.0000     0.0000 </r>
        <r>    -5.9676     0.0016     0.0000     0.0000     0.0000     0.0000     0.0000     0.0000     0.0000     0.0000 </r>
        <r>    -5.8969     0.0028     0.0000     0.0000     0.0000     0.0000     0.0000     0.0000     0.0000     0.0000 </r>
        <r>    -5.8263     0.0042     0.0001     0.0001     0.0001     0.0000     0.0000     0.0000     0.0000     0.0000 </r>
        <r>    -5.7557     0.0059     0.0001     0.0001     0.0001     0.0000     0.0000     0.0000     0.0000     0.0000 </r>
        <r>    -5.6850     0.0079     0.0001     0.0001     0.0001     0.0000     0.0000     0.0000     0.0000     0.0000 </r>
        <r>    -5.6144     0.0102     0.0002     0.0002     0.0002     0.0000     0.0000     0.0000     0.0000     0.0000 </r>
        <r>    -5.5438     0.0127     0.0002     0.0002     0.0002     0.0000     0.0000     0.0000     0.0000     0.0000 </r>
        <r>    -5.4731     0.0156     0.0003     0.0003     0.0003     0.0000     0.0000     0.0000     0.0000     0.0000 </r>
        <r>    -5.4025     0.0187     0.0003     0.0003     0.0003     0.0000     0.0000     0.0000     0.0000     0.0000 </r>
        <r>    -5.3319     0.0222     0.0004     0.0004     0.0004     0.0000     0.0000     0.0000     0.0000     0.0000 </r>
        <r>    -5.2612     0.0259     0.0004     0.0004     0.0004     0.0000     0.0000     0.0000     0.0000     0.0000 </r>
        <r>    -5.1906     0.0299     0.0005     0.0005     0.0005     0.0000     0.0000     0.0000     0.0000     0.0000 </r>
        <r>    -5.1200     0.0343     0.0006     0.0006     0.0006     0.0000     0.0000     0.0000     0.0000     0.0000 </r>
        <r>    -5.0493     0.0389     0.0007     0.0007     0.0007     0.0000     0.0000     0.0000     0.0000     0.0000 </r>
        <r>    -4.9787     0.0438     0.0007     0.0007     0.0008     0.0000     0.0000     0.0000     0.0000     0.0000 </r>
        <r>    -4.9081     0.0489     0.0008     0.0008     0.0008     0.0000     0.0000     0.0000     0.0000     0.0000 </r>
        <r>    -4.8374     0.0536     0.0011     0.0011     0.0011     0.0000     0.0000     0.0000     0.0000     0.0000 </r>
        <r>    -4.7668     0.0582     0.0013     0.0013     0.0013     0.0000     0.0000     0.0000     0.0000     0.0000 </r>
        <r>    -4.6962     0.0630     0.0016     0.0016     0.0016     0.0000     0.0000     0.0000     0.0000     0.0000 </r>
        <r>    -4.6255     0.0681     0.0018     0.0018     0.0018     0.0000     0.0000     0.0000     0.0000     0.0000 </r>
        <r>    -4.5549     0.0733     0.0020     0.0020     0.0021     0.0000     0.0000     0.0000     0.0000     0.0000 </r>
        <r>    -4.4842     0.0787     0.0023     0.0023     0.0023     0.0000     0.0000     0.0000     0.0000     0.0000 </r>
        <r>    -4.4136     0.0844     0.0025     0.0025     0.0025     0.0000     0.0000     0.0000     0.0000     0.0000 </r>
        <r>    -4.3430     0.0921     0.0027     0.0027     0.0028     0.0000     0.0000     0.0000     0.0000     0.0000 </r>
        <r>    -4.2723     0.1006     0.0031     0.0031     0.0031     0.0000     0.0000     0.0000     0.0000     0.0000 </r>
        <r>    -4.2017     0.1080     0.0033     0.0033     0.0034     0.0000     0.0000     0.0000     0.0000     0.0000 </r>
        <r>    -4.1311     0.1143     0.0036     0.0036     0.0037     0.0000     0.0000     0.0000     0.0000     0.0000 </r>
        <r>    -4.0604     0.1194     0.0038     0.0038     0.0038     0.0000     0.0000     0.0000     0.0000     0.0000 </r>
        <r>    -3.9898     0.1233     0.0039     0.0039     0.0040     0.0000     0.0000     0.0000     0.0000     0.0000 </r>
        <r>    -3.9192     0.1260     0.0041     0.0041     0.0041     0.0000     0.0000     0.0000     0.0000     0.0000 </r>
        <r>    -3.8485     0.1276     0.0041     0.0041     0.0042     0.0000     0.0000     0.0000     0.0000     0.0000 </r>
        <r>    -3.7779     0.1280     0.0042     0.0042     0.0043     0.0000     0.0000     0.0000     0.0000     0.0000 </r>
        <r>    -3.7073     0.1273     0.0042     0.0042     0.0043     0.0000     0.0000     0.0000     0.0000     0.0000 </r>
        <r>    -3.6366     0.1254     0.0042     0.0042     0.0043     0.0000     0.0000     0.0000     0.0000     0.0000 </r>
        <r>    -3.5660     0.1223     0.0041     0.0041     0.0042     0.0000     0.0000     0.0000     0.0000     0.0000 </r>
        <r>    -3.4954     0.1181     0.0040     0.0040     0.0041     0.0000     0.0000     0.0000     0.0000     0.0000 </r>
        <r>    -3.4247     0.1127     0.0039     0.0039     0.0039     0.0000     0.0000     0.0000     0.0000     0.0000 </r>
        <r>    -3.3541     0.1061     0.0037     0.0037     0.0038     0.0000     0.0000     0.0000     0.0000     0.0000 </r>
        <r>    -3.2835     0.0984     0.0035     0.0035     0.0036     0.0000     0.0000     0.0000     0.0000     0.0000 </r>
        <r>    -3.2128     0.0895     0.0033     0.0033     0.0033     0.0000     0.0000     0.0000     0.0000     0.0000 </r>
        <r>    -3.1422     0.0795     0.0030     0.0030     0.0030     0.0000     0.0000     0.0000     0.0000     0.0000 </r>
        <r>    -3.0716     0.1109     0.0044     0.0044     0.0046     0.0000     0.0000     0.0000     0.0000     0.0000 </r>
        <r>    -3.0009     0.0000     0.0000     0.0000     0.0000     0.0000     0.0000     0.0000     0.0000     0.0000 </r>
        <r>    -2.9303     0.0000     0.0000     0.0000     0.0000     0.0000     0.0000     0.0000     0.0000     0.0000 </r>
        <r>    -2.8597     0.0000     0.0000     0.0000     0.0000     0.0000     0.0000     0.0000     0.0000     0.0000 </r>
        <r>    -2.7890     0.0000     0.0000     0.0000     0.0000     0.0000     0.0000     0.0000     0.0000     0.0000 </r>
        <r>    -2.7184     0.0000     0.0000     0.0000     0.0000     0.0000     0.0000     0.0000     0.0000     0.0000 </r>
        <r>    -2.6477     0.0000     0.0000     0.0000     0.0000     0.0000     0.0000     0.0000     0.0000     0.0000 </r>
        <r>    -2.5771     0.0000     0.0000     0.0000     0.0000     0.0000     0.0000     0.0000     0.0000     0.0000 </r>
        <r>    -2.5065     0.0000     0.0000     0.0000     0.0000     0.0000     0.0000     0.0000     0.0000     0.0000 </r>
        <r>    -2.4358     0.0000     0.0000     0.0000     0.0000     0.0000     0.0000     0.0000     0.0000     0.0000 </r>
        <r>    -2.3652     0.0000     0.0000     0.0000     0.0000     0.0000     0.0000     0.0000     0.0000     0.0000 </r>
        <r>    -2.2946     0.0000     0.0000     0.0000     0.0000     0.0000     0.0000     0.0000     0.0000     0.0000 </r>
        <r>    -2.2239     0.0000     0.0000     0.0000     0.0000     0.0000     0.0000     0.0000     0.0000     0.0000 </r>
        <r>    -2.1533     0.0000     0.0000     0.0000     0.0000     0.0000     0.0000     0.0000     0.0000     0.0000 </r>
        <r>    -2.0827     0.0000     0.0000     0.0000     0.0000     0.0000     0.0000     0.0000     0.0000     0.0000 </r>
        <r>    -2.0120     0.0000     0.0000     0.0000     0.0000     0.0000     0.0000     0.0000     0.0000     0.0000 </r>
        <r>    -1.9414     0.0000     0.0000     0.0000     0.0000     0.0000     0.0000     0.0000     0.0000     0.0000 </r>
        <r>    -1.8708     0.0000     0.0000     0.0000     0.0000     0.0000     0.0000     0.0000     0.0000     0.0000 </r>
        <r>    -1.8001     0.0000     0.0000     0.0000     0.0000     0.0000     0.0000     0.0000     0.0000     0.0000 </r>
        <r>    -1.7295     0.0000     0.0000     0.0000     0.0000     0.0000     0.0000     0.0000     0.0000     0.0000 </r>
        <r>    -1.6589     0.0000     0.0000     0.0000     0.0000     0.0000     0.0000     0.0000     0.0000     0.0000 </r>
        <r>    -1.5882     0.0000     0.0000     0.0000     0.0000     0.0000     0.0000     0.0000     0.0000     0.0000 </r>
        <r>    -1.5176     0.0000     0.0000     0.0000     0.0000     0.0000     0.0000     0.0000     0.0000     0.0000 </r>
        <r>    -1.4470     0.0000     0.0000     0.0000     0.0000     0.0000     0.0000     0.0000     0.0000     0.0000 </r>
        <r>    -1.3763     0.0000     0.0000     0.0000     0.0000     0.0000     0.0000     0.0000     0.0000     0.0000 </r>
        <r>    -1.3057     0.0000     0.0000     0.0000     0.0000     0.0000     0.0000     0.0000     0.0000     0.0000 </r>
        <r>    -1.2351     0.1509     0.0141     0.0141     0.0218     0.0000     0.0000     0.0000     0.0000     0.0000 </r>
        <r>    -1.1644     0.0859     0.0110     0.0110     0.0087     0.0000     0.0000     0.0000     0.0000     0.0000 </r>
        <r>    -1.0938     0.0642     0.0084     0.0084     0.0086     0.0000     0.0000     0.0000     0.0000     0.0000 </r>
        <r>    -1.0232     0.0724     0.0098     0.0098     0.0101     0.0000     0.0000     0.0000     0.0000     0.0000 </r>
        <r>    -0.9525     0.0797     0.0111     0.0111     0.0114     0.0000     0.0000     0.0000     0.0000     0.0000 </r>
        <r>    -0.8819     0.0860     0.0122     0.0122     0.0125     0.0000     0.0000     0.0000     0.0000     0.0000 </r>
        <r>    -0.8113     0.0913     0.0132     0.0132     0.0134     0.0000     0.0000     0.0000     0.0000     0.0000 </r>
        <r>    -0.7406     0.0956     0.0140     0.0140     0.0142     0.0000     0.0000     0.0000     0.0000     0.0000 </r>
        <r>    -0.6700     0.0989     0.0147     0.0147     0.0149     0.0000     0.0000     0.0000     0.0000     0.0000 </r>
        <r>    -0.5993     0.1013     0.0152     0.0152     0.0154     0.0000     0.0000     0.0000     0.0000     0.0000 </r>
        <r>    -0.5287     0.1026     0.0155     0.0155     0.0157     0.0000     0.0000     0.0000     0.0000     0.0000 </r>
        <r>    -0.4581     0.1030     0.0158     0.0158     0.0159     0.0000     0.0000     0.0000     0.0000     0.0000 </r>
        <r>    -0.3874     0.1024     0.0158     0.0158     0.0159     0.0000     0.0000     0.0000     0.0000     0.0000 </r>
        <r>    -0.3168     0.1008     0.0157     0.0157     0.0158     0.0000     0.0000     0.0000     0.0000     0.0000 </r>
        <r>    -0.2462     0.0982     0.0154     0.0154     0.0155     0.0000     0.0000     0.0000     0.0000     0.0000 </r>
        <r>    -0.1755     0.0946     0.0150     0.0150     0.0151     0.0000     0.0000     0.0000     0.0000     0.0000 </r>
        <r>    -0.1049     0.0900     0.0145     0.0145     0.0145     0.0000     0.0000     0.0000     0.0000     0.0000 </r>
        <r>    -0.0343     0.0845     0.0137     0.0137     0.0137     0.0000     0.0000     0.0000     0.0000     0.0000 </r>
        <r>     0.0364     0.0780     0.0129     0.0129     0.0128     0.0000     0.0000     0.0000     0.0000     0.0000 </r>
        <r>     0.1070     0.0705     0.0118     0.0118     0.0118     0.0000     0.0000     0.0000     0.0000     0.0000 </r>
        <r>     0.1776     0.0620     0.0106     0.0106     0.0105     0.0000     0.0000     0.0000     0.0000     0.0000 </r>
        <r>     0.2483     0.0472     0.0084     0.0084     0.0090     0.0000     0.0000     0.0000     0.0000     0.0000 </r>
        <r>     0.3189     0.0263     0.0049     0.0049     0.0075     0.0000     0.0000     0.0000     0.0000     0.0000 </r>
        <r>     0.3895     0.0136     0.0028     0.0028     0.0066     0.0000     0.0000     0.0000     0.0000     0.0000 </r>
        <r>     0.4602     0.0085     0.0019     0.0019     0.0062     0.0000     0.0000     0.0000     0.0000     0.0000 </r>
        <r>     0.5308     0.0078     0.0018     0.0018     0.0060     0.0000     0.0000     0.0000     0.0000     0.0000 </r>
        <r>     0.6014     0.0076     0.0017     0.0017     0.0058     0.0000     0.0000     0.0000     0.0000     0.0000 </r>
        <r>     0.6721     0.0074     0.0017     0.0017     0.0057     0.0000     0.0000     0.0000     0.0000     0.0000 </r>
        <r>     0.7427     0.0072     0.0016     0.0016     0.0055     0.0000     0.0000     0.0000     0.0000     0.0000 </r>
        <r>     0.8133     0.0069     0.0016     0.0016     0.0053     0.0000     0.0000     0.0000     0.0000     0.0000 </r>
        <r>     0.8840     0.0067     0.0015     0.0015     0.0052     0.0000     0.0000     0.0000     0.0000     0.0000 </r>
        <r>     0.9546     0.0065     0.0015     0.0015     0.0050     0.0000     0.0000     0.0000     0.0000     0.0000 </r>
        <r>     1.0252     0.0063     0.0014     0.0014     0.0048     0.0000     0.0000     0.0000     0.0000     0.0000 </r>
        <r>     1.0959     0.0061     0.0014     0.0014     0.0047     0.0000     0.0000     0.0000     0.0000     0.0000 </r>
        <r>     1.1665     0.0059     0.0013     0.0013     0.0045     0.0000     0.0000     0.0000     0.0000     0.0000 </r>
        <r>     1.2372     0.0080     0.0396     0.0396     0.0435     0.0000     0.0000     0.0000     0.0000     0.0000 </r>
        <r>     1.3078     0.0061     0.0144     0.0144     0.0194     0.0000     0.0000     0.0000     0.0000     0.0000 </r>
        <r>     1.3784     0.0059     0.0150     0.0150     0.0209     0.0000     0.0000     0.0000     0.0000     0.0000 </r>
        <r>     1.4491     0.0058     0.0156     0.0156     0.0222     0.0000     0.0000     0.0000     0.0000     0.0000 </r>
        <r>     1.5197     0.0056     0.0162     0.0162     0.0235     0.0000     0.0000     0.0000     0.0000     0.0000 </r>
        <r>     1.5903     0.0054     0.0167     0.0167     0.0247     0.0000     0.0000     0.0000     0.0000     0.0000 </r>
        <r>     1.6610     0.0052     0.0171     0.0171     0.0257     0.0000     0.0000     0.0000     0.0000     0.0000 </r>
        <r>     1.7316     0.0051     0.0175     0.0175     0.0267     0.0000     0.0000     0.0000     0.0000     0.0000 </r>
        <r>     1.8022     0.0049     0.0178     0.0178     0.0275     0.0000     0.0000     0.0000     0.0000     0.0000 </r>
        <r>     1.8729     0.0047     0.0180     0.0180     0.0283     0.0000     0.0000     0.0000     0.0000     0.0000 </r>
        <r>     1.9435     0.0046     0.0182     0.0182     0.0289     0.0000     0.0000     0.0000     0.0000     0.0000 </r>
        <r>     2.0141     0.0044     0.0183     0.0183     0.0294     0.0000     0.0000     0.0000     0.0000     0.0000 </r>
        <r>     2.0848     0.0043     0.0184     0.0184     0.0299     0.0000     0.0000     0.0000     0.0000     0.0000 </r>
        <r>     2.1554     0.0041     0.0184     0.0184     0.0302     0.0000     0.0000     0.0000     0.0000     0.0000 </r>
        <r>     2.2260     0.0039     0.0183     0.0183     0.0304     0.0000     0.0000     0.0000     0.0000     0.0000 </r>
        <r>     2.2967     0.0038     0.0182     0.0182     0.0306     0.0000     0.0000     0.0000     0.0000     0.0000 </r>
        <r>     2.3673     0.0036     0.0180     0.0180     0.0306     0.0000     0.0000     0.0000     0.0000     0.0000 </r>
        <r>     2.4379     0.0035     0.0177     0.0177     0.0305     0.0000     0.0000     0.0000     0.0000     0.0000 </r>
        <r>     2.5086     0.0033     0.0174     0.0174     0.0303     0.0000     0.0000     0.0000     0.0000     0.0000 </r>
        <r>     2.5792     0.0032     0.0170     0.0170     0.0300     0.0000     0.0000     0.0000     0.0000     0.0000 </r>
        <r>     2.6498     0.0030     0.0166     0.0166     0.0297     0.0000     0.0000     0.0000     0.0000     0.0000 </r>
        <r>     2.7205     0.0029     0.0161     0.0161     0.0292     0.0000     0.0000     0.0000     0.0000     0.0000 </r>
        <r>     2.7911     0.0027     0.0156     0.0156     0.0286     0.0000     0.0000     0.0000     0.0000     0.0000 </r>
        <r>     2.8617     0.0026     0.0149     0.0149     0.0279     0.0000     0.0000     0.0000     0.0000     0.0000 </r>
        <r>     2.9324     0.0024     0.0143     0.0143     0.0271     0.0000     0.0000     0.0000     0.0000     0.0000 </r>
        <r>     3.0030     0.0023     0.0135     0.0135     0.0262     0.0000     0.0000     0.0000     0.0000     0.0000 </r>
        <r>     3.0736     0.0021     0.0127     0.0127     0.0252     0.0000     0.0000     0.0000     0.0000     0.0000 </r>
        <r>     3.1443     0.0020     0.0233     0.0233     0.0419     0.0000     0.0000     0.0000     0.0000     0.0000 </r>
        <r>     3.2149     0.0019     0.0537     0.0537     0.0673     0.0000     0.0000     0.0000     0.0000     0.0000 </r>
        <r>     3.2856     0.0018     0.0929     0.0929     0.0965     0.0000     0.0000     0.0000     0.0000     0.0000 </r>
        <r>     3.3562     0.0017     0.1398     0.1398     0.1294     0.0000     0.0000     0.0000     0.0000     0.0000 </r>
        <r>     3.4268     0.0016     0.1283     0.1283     0.0969     0.0000     0.0000     0.0000     0.0000     0.0000 </r>
        <r>     3.4975     0.0014     0.0675     0.0675     0.0515     0.0000     0.0000     0.0000     0.0000     0.0000 </r>
        <r>     3.5681     0.0013     0.0678     0.0678     0.0498     0.0000     0.0000     0.0000     0.0000     0.0000 </r>
        <r>     3.6387     0.0012     0.0676     0.0676     0.0480     0.0000     0.0000     0.0000     0.0000     0.0000 </r>
        <r>     3.7094     0.0011     0.0669     0.0669     0.0461     0.0000     0.0000     0.0000     0.0000     0.0000 </r>
[...]
       </set>
       <set comment="band 5">
        <r>  0.1717  0.0123  0.0123  0.0097  0.0000  0.0000  0.0000  0.0000  0.0000 </r>
        <r>  0.1717  0.0123  0.0123  0.0097  0.0000  0.0000  0.0000  0.0000  0.0000 </r>
       </set>
       <set comment="band 6">
        <r>  0.0003  0.0180  0.0180  0.0778  0.0000  0.0000  0.0000  0.0000  0.0000 </r>
        <r>  0.0003  0.0180  0.0180  0.0778  0.0000  0.0000  0.0000  0.0000  0.0000 </r>
       </set>
       <set comment="band 7">
        <r>  0.0000  0.0586  0.0586  0.0000  0.0000  0.0000  0.0000  0.0000  0.0000 </r>
        <r>  0.0000  0.0586  0.0586  0.0000  0.0000  0.0000  0.0000  0.0000  0.0000 </r>
       </set>
       <set comment="band 8">
        <r>  0.0269  0.0472  0.0472  0.0489  0.0000  0.0000  0.0000  0.0000  0.0000 </r>
        <r>  0.0269  0.0472  0.0472  0.0489  0.0000  0.0000  0.0000  0.0000  0.0000 </r>
       </set>
      </set>
      <set comment="kpoint 3">
       <set comment="band 1">
        <r>  0.2015  0.0000  0.0191  0.0000  0.0000  0.0000  0.0000  0.0000  0.0000 </r>
        <r>  0.2015  0.0000  0.0191  0.0000  0.0000  0.0000  0.0000  0.0000  0.0000 </r>
       </set>
       <set comment="band 2">
        <r>  0.1766  0.0000  0.0723  0.0000  0.0000  0.0000  0.0000  0.0000  0.0000 </r>
        <r>  0.1766  0.0000  0.0723  0.0000  0.0000  0.0000  0.0000  0.0000  0.0000 </r>
       </set>
       <set comment="band 3">
        <r>  0.0000  0.0781  0.0000  0.1130  0.0000  0.0000  0.0000  0.0000  0.0000 </r>
        <r>  0.0000  0.0781  0.0000  0.1130  0.0000  0.0000  0.0000  0.0000  0.0000 </r>
       </set>
       <set comment="band 4">
        <r>  0.0000  0.1130  0.0000  0.0777  0.0000  0.0000  0.0000  0.0000  0.0000 </r>
        <r>  0.0000  0.1130  0.0000  0.0777  0.0000  0.0000  0.0000  0.0000  0.0000 </r>
       </set>
       <set comment="band 5">
        <r>  0.0487  0.0000  0.0594  0.0000  0.0000  0.0000  0.0000  0.0000  0.0000 </r>
        <r>  0.0487  0.0000  0.0594  0.0000  0.0000  0.0000  0.0000  0.0000  0.0000 </r>
       </set>
       <set comment="band 6">
        <r>  0.0450  0.0000  0.0357  0.0000  0.0000  0.0000  0.0000  0.0000  0.0000 </r>
        <r>  0.0450  0.0000  0.0357  0.0000  0.0000  0.0000  0.0000  0.0000  0.0000 </r>
       </set>
       <set comment="band 7">
        <r>  0.0000  0.0653  0.0000  0.1016  0.0000  0.0000  0.0000  0.0000  0.0000 </r>
        <r>  0.0000  0.0653  0.0000  0.1016  0.0000  0.0000  0.0000  0.0000  0.0000 </r>
       </set>
       <set comment="band 8">
        <r>  0.0000  0.1013  0.0000  0.0658  0.0000  0.0000  0.0000  0.0000  0.0000 </r>
        <r>  0.0000  0.1013  0.0000  0.0658  0.0000  0.0000  0.0000  0.0000  0.0000 </r>
       </set>
      </set>
      <set comment="kpoint 4">
       <set comment="band 1">
        <r>  0.2112  0.0073  0.0112  0.0073  0.0000  0.0000  0.0000  0.0000  0.0000 </r>
        <r>  0.2112  0.0073  0.0112  0.0073  0.0000  0.0000  0.0000  0.0000  0.0000 </r>
       </set>
       <set comment="band 2">
        <r>  0.1768  0.0091  0.0393  0.0096  0.0000  0.0000  0.0000  0.0000  0.0000 </r>
        <r>  0.1768  0.0091  0.0393  0.0096  0.0000  0.0000  0.0000  0.0000  0.0000 </r>
       </set>
       <set comment="band 3">
        <r>  0.0034  0.0454  0.0575  0.0451  0.0000  0.0000  0.0000  0.0000  0.0000 </r>
        <r>  0.0034  0.0454  0.0575  0.0451  0.0000  0.0000  0.0000  0.0000  0.0000 </r>
       </set>
       <set comment="band 4">
        <r>  0.0000  0.0982  0.0000  0.0980  0.0000  0.0000  0.0000  0.0000  0.0000 </r>
        <r>  0.0000  0.0982  0.0000  0.0980  0.0000  0.0000  0.0000  0.0000  0.0000 </r>
       </set>
       <set comment="band 5">
        <r>  0.0541  0.0012  0.0469  0.0007  0.0000  0.0000  0.0000  0.0000  0.0000 </r>
        <r>  0.0541  0.0012  0.0469  0.0007  0.0000  0.0000  0.0000  0.0000  0.0000 </r>
       </set>
       <set comment="band 6">
        <r>  0.0095  0.0337  0.0038  0.0436  0.0000  0.0000  0.0000  0.0000  0.0000 </r>
        <r>  0.0095  0.0337  0.0038  0.0436  0.0000  0.0000  0.0000  0.0000  0.0000 </r>
       </set>
       <set comment="band 7">
        <r>  0.0013  0.0837  0.0028  0.0659  0.0000  0.0000  0.0000  0.0000  0.0000 </r>
        <r>  0.0013  0.0837  0.0028  0.0659  0.0000  0.0000  0.0000  0.0000  0.0000 </r>
       </set>
       <set comment="band 8">
        <r>  0.0407  0.0001  0.1191  0.0079  0.0000  0.0000  0.0000  0.0000  0.0000 </r>
        <r>  0.0407  0.0001  0.1190  0.0079  0.0000  0.0000  0.0000  0.0000  0.0000 </r>
       </set>
      </set>
      <set comment="kpoint 5">
       <set comment="band 1">
        <r>  0.2010  0.0000  0.0000  0.0191  0.0000  0.0000  0.0000  0.0000  0.0000 </r>
        <r>  0.2010  0.0000  0.0000  0.0191  0.0000  0.0000  0.0000  0.0000  0.0000 </r>
       </set>
       <set comment="band 2">
        <r>  0.1748  0.0000  0.0000  0.0730  0.0000  0.0000  0.0000  0.0000  0.0000 </r>
        <r>  0.1748  0.0000  0.0000  0.0730  0.0000  0.0000  0.0000  0.0000  0.0000 </r>
       </set>
       <set comment="band 3">
        <r>  0.0000  0.0957  0.0957  0.0000  0.0000  0.0000  0.0000  0.0000  0.0000 </r>
        <r>  0.0000  0.0957  0.0957  0.0000  0.0000  0.0000  0.0000  0.0000  0.0000 </r>
       </set>
       <set comment="band 4">
        <r>  0.0000  0.0957  0.0957  0.0000  0.0000  0.0000  0.0000  0.0000  0.0000 </r>
        <r>  0.0000  0.0957  0.0957  0.0000  0.0000  0.0000  0.0000  0.0000  0.0000 </r>
       </set>
       <set comment="band 5">
        <r>  0.0486  0.0000  0.0000  0.0587  0.0000  0.0000  0.0000  0.0000  0.0000 </r>
        <r>  0.0486  0.0000  0.0000  0.0587  0.0000  0.0000  0.0000  0.0000  0.0000 </r>
       </set>
       <set comment="band 6">
        <r>  0.0461  0.0000  0.0000  0.0334  0.0000  0.0000  0.0000  0.0000  0.0000 </r>
        <r>  0.0461  0.0000  0.0000  0.0334  0.0000  0.0000  0.0000  0.0000  0.0000 </r>
       </set>
       <set comment="band 7">
        <r>  0.0000  0.0836  0.0838  0.0000  0.0000  0.0000  0.0000  0.0000  0.0000 </r>
        <r>  0.0000  0.0839  0.0835  0.0000  0.0000  0.0000  0.0000  0.0000  0.0000 </r>
       </set>
       <set comment="band 8">
        <r>  0.0000  0.0838  0.0836  0.0000  0.0000  0.0000  0.0000  0.0000  0.0000 </r>
        <r>  0.0000  0.0835  0.0839  0.0000  0.0000  0.0000  0.0000  0.0000  0.0000 </r>
       </set>
      </set>
      <set comment="kpoint 6">
       <set comment="band 1">
        <r>  0.2118  0.0069  0.0069  0.0117  0.0000  0.0000  0.0000  0.0000  0.0000 </r>
        <r>  0.2118  0.0069  0.0069  0.0117  0.0000  0.0000  0.0000  0.0000  0.0000 </r>
       </set>
       <set comment="band 2">
        <r>  0.1758  0.0093  0.0093  0.0394  0.0000  0.0000  0.0000  0.0000  0.0000 </r>
        <r>  0.1758  0.0093  0.0093  0.0394  0.0000  0.0000  0.0000  0.0000  0.0000 </r>
       </set>
       <set comment="band 3">
        <r>  0.0029  0.0456  0.0456  0.0565  0.0000  0.0000  0.0000  0.0000  0.0000 </r>
        <r>  0.0029  0.0456  0.0456  0.0565  0.0000  0.0000  0.0000  0.0000  0.0000 </r>
       </set>
       <set comment="band 4">
        <r>  0.0000  0.0985  0.0985  0.0000  0.0000  0.0000  0.0000  0.0000  0.0000 </r>
        <r>  0.0000  0.0985  0.0985  0.0000  0.0000  0.0000  0.0000  0.0000  0.0000 </r>
       </set>
       <set comment="band 5">
        <r>  0.0546  0.0010  0.0010  0.0457  0.0000  0.0000  0.0000  0.0000  0.0000 </r>
        <r>  0.0546  0.0010  0.0010  0.0457  0.0000  0.0000  0.0000  0.0000  0.0000 </r>
       </set>
       <set comment="band 6">
        <r>  0.0078  0.0378  0.0378  0.0021  0.0000  0.0000  0.0000  0.0000  0.0000 </r>
        <r>  0.0078  0.0378  0.0378  0.0021  0.0000  0.0000  0.0000  0.0000  0.0000 </r>
       </set>
       <set comment="band 7">
        <r>  0.0000  0.0770  0.0770  0.0000  0.0000  0.0000  0.0000  0.0000  0.0000 </r>
        <r>  0.0000  0.0770  0.0770  0.0000  0.0000  0.0000  0.0000  0.0000  0.0000 </r>
       </set>
       <set comment="band 8">
        <r>  0.0423  0.0035  0.0035  0.1247  0.0000  0.0000  0.0000  0.0000  0.0000 </r>
        <r>  0.0423  0.0035  0.0035  0.1247  0.0000  0.0000  0.0000  0.0000  0.0000 </r>
       </set>
      </set>
     </set>
     <set comment="spin2">
      <set comment="kpoint 1">
       <set comment="band 1">
        <r>  0.2092  0.0000  0.0000  0.0000  0.0000  0.0000  0.0000  0.0000  0.0000 </r>
        <r>  0.2092  0.0000  0.0000  0.0000  0.0000  0.0000  0.0000  0.0000  0.0000 </r>
       </set>
       <set comment="band 2">
        <r>  0.0000  0.0000  0.0000  0.2107  0.0000  0.0000  0.0000  0.0000  0.0000 </r>
        <r>  0.0000  0.0000  0.0000  0.2107  0.0000  0.0000  0.0000  0.0000  0.0000 </r>
       </set>
       <set comment="band 3">
        <r>  0.0000  0.1049  0.1049  0.0000  0.0000  0.0000  0.0000  0.0000  0.0000 </r>
        <r>  0.0000  0.1049  0.1049  0.0000  0.0000  0.0000  0.0000  0.0000  0.0000 </r>
       </set>
       <set comment="band 4">
        <r>  0.0000  0.1049  0.1049  0.0000  0.0000  0.0000  0.0000  0.0000  0.0000 </r>
        <r>  0.0000  0.1049  0.1049  0.0000  0.0000  0.0000  0.0000  0.0000  0.0000 </r>
       </set>
       <set comment="band 5">
        <r>  0.0000  0.0748  0.0748  0.0000  0.0000  0.0000  0.0000  0.0000  0.0000 </r>
        <r>  0.0000  0.0748  0.0748  0.0000  0.0000  0.0000  0.0000  0.0000  0.0000 </r>
       </set>
       <set comment="band 6">
        <r>  0.0000  0.0748  0.0748  0.0000  0.0000  0.0000  0.0000  0.0000  0.0000 </r>
        <r>  0.0000  0.0748  0.0748  0.0000  0.0000  0.0000  0.0000  0.0000  0.0000 </r>
       </set>
       <set comment="band 7">
        <r>  0.0000  0.0000  0.0000  0.1478  0.0000  0.0000  0.0000  0.0000  0.0000 </r>
        <r>  0.0000  0.0000  0.0000  0.1478  0.0000  0.0000  0.0000  0.0000  0.0000 </r>
       </set>
       <set comment="band 8">
        <r>  0.3575  0.0000  0.0000  0.0000  0.0000  0.0000  0.0000  0.0000  0.0000 </r>
        <r>  0.3575  0.0000  0.0000  0.0000  0.0000  0.0000  0.0000  0.0000  0.0000 </r>
       </set>
      </set>
      <set comment="kpoint 2">
       <set comment="band 1">
        <r>  0.2076  0.0039  0.0039  0.0039  0.0000  0.0000  0.0000  0.0000  0.0000 </r>
        <r>  0.2076  0.0039  0.0039  0.0039  0.0000  0.0000  0.0000  0.0000  0.0000 </r>
       </set>
       <set comment="band 2">
        <r>  0.1082  0.0325  0.0325  0.0327  0.0000  0.0000  0.0000  0.0000  0.0000 </r>
        <r>  0.1082  0.0325  0.0325  0.0327  0.0000  0.0000  0.0000  0.0000  0.0000 </r>
       </set>
       <set comment="band 3">
        <r>  0.0000  0.0347  0.0347  0.1391  0.0000  0.0000  0.0000  0.0000  0.0000 </r>
        <r>  0.0000  0.0347  0.0347  0.1391  0.0000  0.0000  0.0000  0.0000  0.0000 </r>
       </set>
       <set comment="band 4">
        <r>  0.0000  0.1045  0.1045  0.0000  0.0000  0.0000  0.0000  0.0000  0.0000 </r>
        <r>  0.0000  0.1045  0.1045  0.0000  0.0000  0.0000  0.0000  0.0000  0.0000 </r>
       </set>
       <set comment="band 5">
        <r>  0.1717  0.0123  0.0123  0.0097  0.0000  0.0000  0.0000  0.0000  0.0000 </r>
        <r>  0.1717  0.0123  0.0123  0.0097  0.0000  0.0000  0.0000  0.0000  0.0000 </r>
       </set>
       <set comment="band 6">
        <r>  0.0003  0.0180  0.0180  0.0778  0.0000  0.0000  0.0000  0.0000  0.0000 </r>
        <r>  0.0003  0.0180  0.0180  0.0778  0.0000  0.0000  0.0000  0.0000  0.0000 </r>
       </set>
       <set comment="band 7">
        <r>  0.0000  0.0586  0.0586  0.0000  0.0000  0.0000  0.0000  0.0000  0.0000 </r>
        <r>  0.0000  0.0586  0.0586  0.0000  0.0000  0.0000  0.0000  0.0000  0.0000 </r>
       </set>
       <set comment="band 8">
        <r>  0.0269  0.0472  0.0472  0.0489  0.0000  0.0000  0.0000  0.0000  0.0000 </r>
        <r>  0.0269  0.0472  0.0472  0.0489  0.0000  0.0000  0.0000  0.0000  0.0000 </r>
       </set>
      </set>
      <set comment="kpoint 3">
       <set comment="band 1">
        <r>  0.2015  0.0000  0.0191  0.0000  0.0000  0.0000  0.0000  0.0000  0.0000 </r>
        <r>  0.2015  0.0000  0.0191  0.0000  0.0000  0.0000  0.0000  0.0000  0.0000 </r>
       </set>
       <set comment="band 2">
        <r>  0.1766  0.0000  0.0723  0.0000  0.0000  0.0000  0.0000  0.0000  0.0000 </r>
        <r>  0.1766  0.0000  0.0723  0.0000  0.0000  0.0000  0.0000  0.0000  0.0000 </r>
       </set>
       <set comment="band 3">
        <r>  0.0000  0.0781  0.0000  0.1130  0.0000  0.0000  0.0000  0.0000  0.0000 </r>
        <r>  0.0000  0.0781  0.0000  0.1130  0.0000  0.0000  0.0000  0.0000  0.0000 </r>
       </set>
       <set comment="band 4">
        <r>  0.0000  0.1130  0.0000  0.0777  0.0000  0.0000  0.0000  0.0000  0.0000 </r>
        <r>  0.0000  0.1130  0.0000  0.0777  0.0000  0.0000  0.0000  0.0000  0.0000 </r>
       </set>
       <set comment="band 5">
        <r>  0.0487  0.0000  0.0594  0.0000  0.0000  0.0000  0.0000  0.0000  0.0000 </r>
        <r>  0.0487  0.0000  0.0594  0.0000  0.0000  0.0000  0.0000  0.0000  0.0000 </r>
       </set>
       <set comment="band 6">
        <r>  0.0450  0.0000  0.0357  0.0000  0.0000  0.0000  0.0000  0.0000  0.0000 </r>
        <r>  0.0450  0.0000  0.0357  0.0000  0.0000  0.0000  0.0000  0.0000  0.0000 </r>
       </set>
       <set comment="band 7">
        <r>  0.0000  0.0653  0.0000  0.1016  0.0000  0.0000  0.0000  0.0000  0.0000 </r>
        <r>  0.0000  0.0653  0.0000  0.1016  0.0000  0.0000  0.0000  0.0000  0.0000 </r>
       </set>
       <set comment="band 8">
        <r>  0.0000  0.1013  0.0000  0.0658  0.0000  0.0000  0.0000  0.0000  0.0000 </r>
        <r>  0.0000  0.1013  0.0000  0.0658  0.0000  0.0000  0.0000  0.0000  0.0000 </r>
       </set>
      </set>
      <set comment="kpoint 4">
       <set comment="band 1">
        <r>  0.2112  0.0073  0.0112  0.0073  0.0000  0.0000  0.0000  0.0000  0.0000 </r>
        <r>  0.2112  0.0073  0.0112  0.0073  0.0000  0.0000  0.0000  0.0000  0.0000 </r>
       </set>
       <set comment="band 2">
        <r>  0.1768  0.0091  0.0393  0.0096  0.0000  0.0000  0.0000  0.0000  0.0000 </r>
        <r>  0.1768  0.0091  0.0393  0.0096  0.0000  0.0000  0.0000  0.0000  0.0000 </r>
       </set>
       <set comment="band 3">
        <r>  0.0034  0.0454  0.0575  0.0451  0.0000  0.0000  0.0000  0.0000  0.0000 </r>
        <r>  0.0034  0.0454  0.0575  0.0451  0.0000  0.0000  0.0000  0.0000  0.0000 </r>
       </set>
       <set comment="band 4">
        <r>  0.0000  0.0982  0.0000  0.0980  0.0000  0.0000  0.0000  0.0000  0.0000 </r>
        <r>  0.0000  0.0982  0.0000  0.0980  0.0000  0.0000  0.0000  0.0000  0.0000 </r>
       </set>
       <set comment="band 5">
        <r>  0.0541  0.0012  0.0469  0.0007  0.0000  0.0000  0.0000  0.0000  0.0000 </r>
        <r>  0.0541  0.0012  0.0469  0.0007  0.0000  0.0000  0.0000  0.0000  0.0000 </r>
       </set>
       <set comment="band 6">
        <r>  0.0095  0.0337  0.0038  0.0436  0.0000  0.0000  0.0000  0.0000  0.0000 </r>
        <r>  0.0095  0.0337  0.0038  0.0436  0.0000  0.0000  0.0000  0.0000  0.0000 </r>
       </set>
       <set comment="band 7">
        <r>  0.0013  0.0837  0.0028  0.0659  0.0000  0.0000  0.0000  0.0000  0.0000 </r>
        <r>  0.0013  0.0837  0.0028  0.0659  0.0000  0.0000  0.0000  0.0000  0.0000 </r>
       </set>
       <set comment="band 8">
        <r>  0.0408  0.0001  0.1190  0.0078  0.0000  0.0000  0.0000  0.0000  0.0000 </r>
        <r>  0.0407  0.0001  0.1191  0.0079  0.0000  0.0000  0.0000  0.0000  0.0000 </r>
       </set>
      </set>
      <set comment="kpoint 5">
       <set comment="band 1">
        <r>  0.2010  0.0000  0.0000  0.0191  0.0000  0.0000  0.0000  0.0000  0.0000 </r>
        <r>  0.2010  0.0000  0.0000  0.0191  0.0000  0.0000  0.0000  0.0000  0.0000 </r>
       </set>
       <set comment="band 2">
        <r>  0.1748  0.0000  0.0000  0.0730  0.0000  0.0000  0.0000  0.0000  0.0000 </r>
        <r>  0.1748  0.0000  0.0000  0.0730  0.0000  0.0000  0.0000  0.0000  0.0000 </r>
       </set>
       <set comment="band 3">
        <r>  0.0000  0.0957  0.0957  0.0000  0.0000  0.0000  0.0000  0.0000  0.0000 </r>
        <r>  0.0000  0.0957  0.0957  0.0000  0.0000  0.0000  0.0000  0.0000  0.0000 </r>
       </set>
       <set comment="band 4">
        <r>  0.0000  0.0957  0.0957  0.0000  0.0000  0.0000  0.0000  0.0000  0.0000 </r>
        <r>  0.0000  0.0957  0.0957  0.0000  0.0000  0.0000  0.0000  0.0000  0.0000 </r>
       </set>
       <set comment="band 5">
        <r>  0.0486  0.0000  0.0000  0.0587  0.0000  0.0000  0.0000  0.0000  0.0000 </r>
        <r>  0.0486  0.0000  0.0000  0.0587  0.0000  0.0000  0.0000  0.0000  0.0000 </r>
       </set>
       <set comment="band 6">
        <r>  0.0461  0.0000  0.0000  0.0334  0.0000  0.0000  0.0000  0.0000  0.0000 </r>
        <r>  0.0461  0.0000  0.0000  0.0334  0.0000  0.0000  0.0000  0.0000  0.0000 </r>
       </set>
       <set comment="band 7">
        <r>  0.0000  0.0838  0.0836  0.0000  0.0000  0.0000  0.0000  0.0000  0.0000 </r>
        <r>  0.0000  0.0835  0.0838  0.0000  0.0000  0.0000  0.0000  0.0000  0.0000 </r>
       </set>
       <set comment="band 8">
        <r>  0.0000  0.0836  0.0838  0.0000  0.0000  0.0000  0.0000  0.0000  0.0000 </r>
        <r>  0.0000  0.0838  0.0835  0.0000  0.0000  0.0000  0.0000  0.0000  0.0000 </r>
       </set>
      </set>
      <set comment="kpoint 6">
       <set comment="band 1">
        <r>  0.2118  0.0069  0.0069  0.0117  0.0000  0.0000  0.0000  0.0000  0.0000 </r>
        <r>  0.2118  0.0069  0.0069  0.0117  0.0000  0.0000  0.0000  0.0000  0.0000 </r>
       </set>
       <set comment="band 2">
        <r>  0.1758  0.0093  0.0093  0.0394  0.0000  0.0000  0.0000  0.0000  0.0000 </r>
        <r>  0.1758  0.0093  0.0093  0.0394  0.0000  0.0000  0.0000  0.0000  0.0000 </r>
       </set>
       <set comment="band 3">
        <r>  0.0029  0.0456  0.0456  0.0565  0.0000  0.0000  0.0000  0.0000  0.0000 </r>
        <r>  0.0029  0.0456  0.0456  0.0565  0.0000  0.0000  0.0000  0.0000  0.0000 </r>
       </set>
       <set comment="band 4">
        <r>  0.0000  0.0985  0.0985  0.0000  0.0000  0.0000  0.0000  0.0000  0.0000 </r>
        <r>  0.0000  0.0985  0.0985  0.0000  0.0000  0.0000  0.0000  0.0000  0.0000 </r>
       </set>
       <set comment="band 5">
        <r>  0.0546  0.0010  0.0010  0.0457  0.0000  0.0000  0.0000  0.0000  0.0000 </r>
        <r>  0.0546  0.0010  0.0010  0.0457  0.0000  0.0000  0.0000  0.0000  0.0000 </r>
       </set>
       <set comment="band 6">
        <r>  0.0078  0.0378  0.0378  0.0021  0.0000  0.0000  0.0000  0.0000  0.0000 </r>
        <r>  0.0078  0.0378  0.0378  0.0021  0.0000  0.0000  0.0000  0.0000  0.0000 </r>
       </set>
       <set comment="band 7">
        <r>  0.0000  0.0770  0.0770  0.0000  0.0000  0.0000  0.0000  0.0000  0.0000 </r>
        <r>  0.0000  0.0770  0.0770  0.0000  0.0000  0.0000  0.0000  0.0000  0.0000 </r>
       </set>
       <set comment="band 8">
        <r>  0.0423  0.0035  0.0035  0.1247  0.0000  0.0000  0.0000  0.0000  0.0000 </r>
        <r>  0.0423  0.0035  0.0035  0.1247  0.0000  0.0000  0.0000  0.0000  0.0000 </r>
       </set>
      </set>
     </set>
    </set>
   </array>
  </projected>
 </calculation>
 <structure name="finalpos" >
  <crystal>
   <varray name="basis" >
    <v>       0.00000000       2.75277700       2.75277700 </v>
    <v>       2.78016800       0.00000000       2.75277700 </v>
    <v>       2.78016800       2.75277700       0.00000000 </v>
   </varray>
   <i name="volume">     42.13500967 </i>
   <varray name="rec_basis" >
    <v>      -0.17984525       0.18163476       0.18163476 </v>
    <v>       0.17984525      -0.18163476       0.18163476 </v>
    <v>       0.17984525       0.18163476      -0.18163476 </v>
   </varray>
  </crystal>
  <varray name="positions" >
   <v>       0.75000000       0.75000000       0.75000000 </v>
   <v>       0.50000000       0.50000000       0.50000000 </v>
  </varray>
 </structure>
</modeling>
