 vasp.6.3.0 20Jan22 (build Feb 02 2022 18:12:33) complex

 executed on             LinuxIFC date 2022.04.15  08:42:10
 running on  144 total cores
 distrk:  each k-point on  144 cores,    1 groups
 distr:  one band on NCORE=   1 cores,  144 groups


--------------------------------------------------------------------------------------------------------


 INCAR:
   ALGO = Fast
   EDIFF = 1e-05
   ENAUG = 1360.0
   ENCUT = 500
   GGA = Ps
   ISMEAR = 0
   ISPIN = 2
   LAECHG = False
   LASPH = True
   LCHARG = True
   LELF = False
   LMIXTAU = True
   LORBIT = 11
   LREAL = False
   LVTOT = True
   LWAVE = True
   MAGMOM = 1*0.001 1*0.0 1*0.001 1*0.0 1*0.001 1*0.0 1*0.001
   NELECT = 28.0
   NELM = 200
   NELMIN = 6
   NSW = 0
   PREC = Accurate
   SIGMA = 0.05

 POTCAR:    PAW_PBE Si 05Jan2001
 WARNING: For LVTOT=.TRUE., VASP.5.x writes the TOTAL local potential to the
     file LOCPOT. If you want only the Hartree contributions, use LVHAR=.TRUE.
     instead.

 -----------------------------------------------------------------------------
|                                                                             |
|           W    W    AA    RRRRR   N    N  II  N    N   GGGG   !!!           |
|           W    W   A  A   R    R  NN   N  II  NN   N  G    G  !!!           |
|           W    W  A    A  R    R  N N  N  II  N N  N  G       !!!           |
|           W WW W  AAAAAA  RRRRR   N  N N  II  N  N N  G  GGG   !            |
|           WW  WW  A    A  R   R   N   NN  II  N   NN  G    G                |
|           W    W  A    A  R    R  N    N  II  N    N   GGGG   !!!           |
|                                                                             |
|     For optimal performance we recommend to set                             |
|       NCORE = 2 up to number-of-cores-per-socket                            |
|     NCORE specifies how many cores store one orbital (NPAR=cpu/NCORE).      |
|     This setting can greatly improve the performance of VASP for DFT.       |
|     The default, NCORE=1 might be grossly inefficient on modern             |
|     multi-core architectures or massively parallel machines. Do your        |
|     own testing! More info at https://www.vasp.at/wiki/index.php/NCORE      |
|     Unfortunately you need to use the default for GW and RPA                |
|     calculations (for HF NCORE is supported but not extensively tested      |
|     yet).                                                                   |
|                                                                             |
 -----------------------------------------------------------------------------

 POTCAR:    PAW_PBE Si 05Jan2001
   VRHFIN =Si: s2p2
   LEXCH  = PE
   EATOM  =   103.0669 eV,    7.5752 Ry

   TITEL  = PAW_PBE Si 05Jan2001
   LULTRA =        F    use ultrasoft PP ?
   IUNSCR =        1    unscreen: 0-lin 1-nonlin 2-no
   RPACOR =    1.500    partial core radius
   POMASS =   28.085; ZVAL   =    4.000    mass and valenz
   RCORE  =    1.900    outmost cutoff radius
   RWIGS  =    2.480; RWIGS  =    1.312    wigner-seitz radius (au A)
   ENMAX  =  245.345; ENMIN  =  184.009 eV
   ICORE  =        2    local potential
   LCOR   =        T    correct aug charges
   LPAW   =        T    paw PP
   EAUG   =  322.069
   DEXC   =    0.000
   RMAX   =    1.950    core radius for proj-oper
   RAUG   =    1.300    factor for augmentation sphere
   RDEP   =    1.993    radius for radial grids
   RDEPT  =    1.837    core radius for aug-charge

   Atomic configuration
    6 entries
     n  l   j            E        occ.
     1  0  0.50     -1785.8828   2.0000
     2  0  0.50      -139.4969   2.0000
     2  1  1.50       -95.5546   6.0000
     3  0  0.50       -10.8127   2.0000
     3  1  0.50        -4.0811   2.0000
     3  2  1.50        -4.0817   0.0000
   Description
     l       E           TYP  RCUT    TYP  RCUT
     0    -10.8127223     23  1.900
     0     -7.6451159     23  1.900
     1     -4.0811372     23  1.900
     1      2.4879257     23  1.900
     2     -4.0817478      7  1.900
  local pseudopotential read in
  partial core-charges read in
  partial kinetic energy density read in
  atomic valenz-charges read in
  non local Contribution for L=           0  read in
    real space projection operators read in
  non local Contribution for L=           0  read in
    real space projection operators read in
  non local Contribution for L=           1  read in
    real space projection operators read in
  non local Contribution for L=           1  read in
    real space projection operators read in
    PAW grid and wavefunctions read in

   number of l-projection  operators is LMAX  =           4
   number of lm-projection operators is LMMAX =           8

 -----------------------------------------------------------------------------
|                                                                             |
|               ----> ADVICE to this user running VASP <----                  |
|                                                                             |
|     You enforced a specific xc type in the INCAR file but a different       |
|     type was found in the POTCAR file.                                      |
|     I HOPE YOU KNOW WHAT YOU ARE DOING!                                     |
|                                                                             |
 -----------------------------------------------------------------------------

  PAW_PBE Si 05Jan2001                  :
 energy of atom  1       EATOM= -103.0669
 kinetic energy error for atom=    0.0006 (will be added to EATOM!!)


 POSCAR: Si7
  positions in direct lattice
  No initial velocities read in
 exchange correlation table for  LEXCH =       14
   RHO(1)=    0.500       N(1)  =     2000
   RHO(2)= 2000.500       N(2)  =     4000



--------------------------------------------------------------------------------------------------------


 ion  position               nearest neighbor table
   1  0.254  0.746  0.254-   2 2.37   4 2.37   6 2.37
   2  0.000  0.000  0.500-   1 2.37   3 2.37   5 2.37   7 2.37
   3  0.254  0.254  0.746-   2 2.37   4 2.37   6 2.37
   4  0.000  0.500  0.000-   1 2.37   3 2.37   5 2.37   7 2.37
   5  0.746  0.746  0.746-   2 2.37   4 2.37   6 2.37
   6  0.500  0.000  0.000-   1 2.37   3 2.37   5 2.37   7 2.37
   7  0.746  0.254  0.254-   2 2.37   4 2.37   6 2.37

  LATTYP: Found a simple cubic cell.
 ALAT       =     5.4378483500

  Lattice vectors:

 A1 = (   5.4378483500,   0.0000000000,   0.0000000000)
 A2 = (   0.0000000000,   5.4378483500,   0.0000000000)
 A3 = (   0.0000000000,   0.0000000000,   5.4378483500)


Analysis of symmetry for initial positions (statically):
=====================================================================
 Subroutine PRICEL returns:
 Original cell was already a primitive cell.


 Routine SETGRP: Setting up the symmetry group for a
 simple cubic supercell.


 Subroutine GETGRP returns: Found 24 space group operations
 (whereof 24 operations were pure point group operations)
 out of a pool of 48 trial point group operations.


The static configuration has the point symmetry T_d .


Analysis of symmetry for dynamics (positions and initial velocities):
=====================================================================
 Subroutine PRICEL returns:
 Original cell was already a primitive cell.


 Routine SETGRP: Setting up the symmetry group for a
 simple cubic supercell.


 Subroutine GETGRP returns: Found 24 space group operations
 (whereof 24 operations were pure point group operations)
 out of a pool of 48 trial point group operations.


The dynamic configuration has the point symmetry T_d .


Analysis of structural, dynamic, and magnetic symmetry:
=====================================================================
 Subroutine PRICEL returns:
 Original cell was already a primitive cell.


 Routine SETGRP: Setting up the symmetry group for a
 simple cubic supercell.


 Subroutine GETGRP returns: Found 24 space group operations
 (whereof 24 operations were pure point group operations)
 out of a pool of 48 trial point group operations.


The overall configuration has the point symmetry T_d .


 Subroutine INISYM returns: Found 24 space group operations
 (whereof 24 operations are pure point group operations),
 and found     1 'primitive' translations


----------------------------------------------------------------------------------------

                                     Primitive cell

  volume of cell :     160.7982

  direct lattice vectors                    reciprocal lattice vectors
     5.437848350  0.000000000  0.000000000     0.183896265  0.000000000  0.000000000
     0.000000000  5.437848350  0.000000000     0.000000000  0.183896265  0.000000000
     0.000000000  0.000000000  5.437848350     0.000000000  0.000000000  0.183896265

  length of vectors
     5.437848350  5.437848350  5.437848350     0.183896265  0.183896265  0.183896265

  position of ions in fractional coordinates (direct lattice)
     0.254342930  0.745657070  0.254342930
     0.000000000  0.000000000  0.500000000
     0.254342930  0.254342930  0.745657070
     0.000000000  0.500000000  0.000000000
     0.745657070  0.745657070  0.745657070
     0.500000000  0.000000000  0.000000000
     0.745657070  0.254342930  0.254342930

  ion indices of the primitive-cell ions
   primitive index   ion index
                 1           1
                 2           2
                 3           3
                 4           4
                 5           5
                 6           6
                 7           7

----------------------------------------------------------------------------------------



 KPOINTS: pymatgen with grid density = 691 / numbe

Automatic generation of k-mesh.
 Grid dimensions read from file:
 generate k-points for:    4    4    4

 Generating k-lattice:

  Cartesian coordinates                     Fractional coordinates (reciprocal lattice)
     0.045974066  0.000000000  0.000000000     0.250000000  0.000000000  0.000000000
     0.000000000  0.045974066  0.000000000     0.000000000  0.250000000  0.000000000
     0.000000000  0.000000000  0.045974066     0.000000000  0.000000000  0.250000000

  Length of vectors
     0.045974066  0.045974066  0.045974066

  Shift w.r.t. Gamma in fractional coordinates (k-lattice)
     0.000000000  0.000000000  0.000000000


 Subroutine IBZKPT returns following result:
 ===========================================

 Found     10 irreducible k-points:

 Following reciprocal coordinates:
            Coordinates               Weight
  0.000000  0.000000  0.000000      1.000000
  0.250000  0.000000  0.000000      6.000000
  0.500000  0.000000  0.000000      3.000000
  0.250000  0.250000  0.000000     12.000000
  0.500000  0.250000  0.000000     12.000000
  0.500000  0.500000  0.000000      3.000000
  0.250000  0.250000  0.250000      8.000000
  0.500000  0.250000  0.250000     12.000000
  0.500000  0.500000  0.250000      6.000000
  0.500000  0.500000  0.500000      1.000000

 Following cartesian coordinates:
            Coordinates               Weight
  0.000000  0.000000  0.000000      1.000000
  0.045974  0.000000  0.000000      6.000000
  0.091948  0.000000  0.000000      3.000000
  0.045974  0.045974  0.000000     12.000000
  0.091948  0.045974  0.000000     12.000000
  0.091948  0.091948  0.000000      3.000000
  0.045974  0.045974  0.045974      8.000000
  0.091948  0.045974  0.045974     12.000000
  0.091948  0.091948  0.045974      6.000000
  0.091948  0.091948  0.091948      1.000000



--------------------------------------------------------------------------------------------------------




 Dimension of arrays:
   k-points           NKPTS =     10   k-points in BZ     NKDIM =     10   number of bands    NBANDS=    144
   number of dos      NEDOS =    301   number of ions     NIONS =      7
   non local maximal  LDIM  =      4   non local SUM 2l+1 LMDIM =      8
   total plane-waves  NPLWV =  64000
   max r-space proj   IRMAX =      1   max aug-charges    IRDMAX=  13506
   dimension x,y,z NGX =    40 NGY =   40 NGZ =   40
   dimension x,y,z NGXF=    80 NGYF=   80 NGZF=   80
   support grid    NGXF=    80 NGYF=   80 NGZF=   80
   ions per type =               7
   NGX,Y,Z   is equivalent  to a cutoff of  12.23, 12.23, 12.23 a.u.
   NGXF,Y,Z  is equivalent  to a cutoff of  24.46, 24.46, 24.46 a.u.

 SYSTEM =  unknown system
 POSCAR =  Si7

 Startparameter for this run:
   NWRITE =      2    write-flag & timer
   PREC   = accura    normal or accurate (medium, high low for compatibility)
   ISTART =      0    job   : 0-new  1-cont  2-samecut
   ICHARG =      2    charge: 1-file 2-atom 10-const
   ISPIN  =      2    spin polarized calculation?
   LNONCOLLINEAR =      F non collinear calculations
   LSORBIT =      F    spin-orbit coupling
   INIWAV =      1    electr: 0-lowe 1-rand  2-diag
   LASPH  =      T    aspherical Exc in radial PAW
 Electronic Relaxation 1
   ENCUT  =  500.0 eV  36.75 Ry    6.06 a.u.   9.91  9.91  9.91*2*pi/ulx,y,z
   ENINI  =  500.0     initial cutoff
   ENAUG  = 1360.0 eV  augmentation charge cutoff
   NELM   =    200;   NELMIN=  6; NELMDL= -5     # of ELM steps
   EDIFF  = 0.1E-04   stopping-criterion for ELM
   LREAL  =      F    real-space projection
   NLSPLINE    = F    spline interpolate recip. space projectors
   LCOMPAT=      F    compatible to vasp.4.4
   GGA_COMPAT  = T    GGA compatible to vasp.4.4-vasp.4.6
   LMAXPAW     = -100 max onsite density
   LMAXMIX     =    2 max onsite mixed and CHGCAR
   VOSKOWN=      0    Vosko Wilk Nusair interpolation
   ROPT   =    0.00000
 Ionic relaxation
   EDIFFG = 0.1E-03   stopping-criterion for IOM
   NSW    =      0    number of steps for IOM
   NBLOCK =      1;   KBLOCK =      1    inner block; outer block
   IBRION =     -1    ionic relax: 0-MD 1-quasi-New 2-CG
   NFREE  =      0    steps in history (QN), initial steepest desc. (CG)
   ISIF   =      2    stress and relaxation
   IWAVPR =     10    prediction:  0-non 1-charg 2-wave 3-comb
   ISYM   =      2    0-nonsym 1-usesym 2-fastsym
   LCORR  =      T    Harris-Foulkes like correction to forces

   POTIM  = 0.5000    time-step for ionic-motion
   TEIN   =    0.0    initial temperature
   TEBEG  =    0.0;   TEEND  =   0.0 temperature during run
   SMASS  =  -3.00    Nose mass-parameter (am)
   estimated Nose-frequenzy (Omega)   =  0.10E-29 period in steps = 0.13E+47 mass=  -0.676E-27a.u.
   SCALEE = 1.0000    scale energy and forces
   NPACO  =    256;   APACO  = 10.0  distance and # of slots for P.C.
   PSTRESS=    0.0 pullay stress

  Mass of Ions in am
   POMASS =  28.09
  Ionic Valenz
   ZVAL   =   4.00
  Atomic Wigner-Seitz radii
   RWIGS  =  -1.00
  virtual crystal weights
   VCA    =   1.00
   NELECT =      28.0000    total number of electrons
   NUPDOWN=      -1.0000    fix difference up-down

 DOS related values:
   EMIN   =  10.00;   EMAX   =-10.00  energy-range for DOS
   EFERMI =   0.00
   ISMEAR =     0;   SIGMA  =   0.05  broadening in eV -4-tet -1-fermi 0-gaus

 Electronic relaxation 2 (details)
   IALGO  =     68    algorithm
   LDIAG  =      T    sub-space diagonalisation (order eigenvalues)
   LSUBROT=      F    optimize rotation matrix (better conditioning)
   TURBO    =      0    0=normal 1=particle mesh
   IRESTART =      0    0=no restart 2=restart with 2 vectors
   NREBOOT  =      0    no. of reboots
   NMIN     =      0    reboot dimension
   EREF     =   0.00    reference energy to select bands
   IMIX   =      4    mixing-type and parameters
     AMIX     =   0.40;   BMIX     =  1.00
     AMIX_MAG =   1.60;   BMIX_MAG =  1.00
     AMIN     =   0.10
     WC   =   100.;   INIMIX=   1;  MIXPRE=   1;  MAXMIX= -45

 Intra band minimization:
   WEIMIN = 0.0000     energy-eigenvalue tresh-hold
   EBREAK =  0.17E-07  absolut break condition
   DEPER  =   0.30     relativ break condition

   TIME   =   0.40     timestep for ELM

  volume/ion in A,a.u.               =      22.97       155.02
  Fermi-wavevector in a.u.,A,eV,Ry     =   0.914184  1.727558 11.370836  0.835733
  Thomas-Fermi vector in A             =   2.038782

 Write flags
   LWAVE        =      T    write WAVECAR
   LDOWNSAMPLE  =      F    k-point downsampling of WAVECAR
   LCHARG       =      T    write CHGCAR
   LVTOT        =      T    write LOCPOT, total local potential
   LVHAR        =      F    write LOCPOT, Hartree potential only
   LELF         =      F    write electronic localiz. function (ELF)
   LORBIT       =     11    0 simple, 1 ext, 2 COOP (PROOUT), +10 PAW based schemes


 Dipole corrections
   LMONO  =      F    monopole corrections only (constant potential shift)
   LDIPOL =      F    correct potential (dipole corrections)
   IDIPOL =      0    1-x, 2-y, 3-z, 4-all directions
   EPSILON=  1.0000000 bulk dielectric constant

 Exchange correlation treatment:
   GGA     =    PS    GGA type
   LEXCH   =    14    internal setting for exchange type
   LIBXC   =     F    Libxc
   VOSKOWN =     0    Vosko Wilk Nusair interpolation
   LHFCALC =     F    Hartree Fock is set to
   LHFONE  =     F    Hartree Fock one center treatment
   AEXX    =    0.0000 exact exchange contribution

 Linear response parameters
   LEPSILON=     F    determine dielectric tensor
   LRPA    =     F    only Hartree local field effects (RPA)
   LNABLA  =     F    use nabla operator in PAW spheres
   LVEL    =     F    velocity operator in full k-point grid
   CSHIFT  =0.1000    complex shift for real part using Kramers Kronig
   OMEGAMAX=  -1.0    maximum frequency
   DEG_THRESHOLD= 0.2000000E-02 threshold for treating states as degnerate
   RTIME   =   -0.100 relaxation time in fs
  (WPLASMAI=    0.000 imaginary part of plasma frequency in eV, 0.658/RTIME)
   DFIELD  = 0.0000000 0.0000000 0.0000000 field for delta impulse in time

  Optional k-point grid parameters
   LKPOINTS_OPT  =     F    use optional k-point grid
   KPOINTS_OPT_MODE=     1    mode for optional k-point grid

 Orbital magnetization related:
   ORBITALMAG=     F  switch on orbital magnetization
   LCHIMAG   =     F  perturbation theory with respect to B field
   DQ        =  0.001000  dq finite difference perturbation B field
   LLRAUG    =     F  two centre corrections for induced B field



--------------------------------------------------------------------------------------------------------


 Static calculation
 charge density and potential will be updated during run
 spin polarized calculation
 RMM-DIIS sequential band-by-band and
  variant of blocked Davidson during initial phase
 perform sub-space diagonalisation
    before iterative eigenvector-optimisation
 modified Broyden-mixing scheme, WC =      100.0
 initial mixing is a Kerker type mixing with AMIX =  0.4000 and BMIX =      1.0000
 Hartree-type preconditioning will be used
 using additional bands          130
 reciprocal scheme for non local part
 use partial core corrections
 calculate Harris-corrections to forces
   (improved forces if not selfconsistent)
 use gradient corrections
 use of overlap-Matrix (Vanderbilt PP)
 Gauss-broadening in eV      SIGMA  =   0.05


--------------------------------------------------------------------------------------------------------


  energy-cutoff  :      500.00
  volume of cell :      160.80
      direct lattice vectors                 reciprocal lattice vectors
     5.437848350  0.000000000  0.000000000     0.183896265  0.000000000  0.000000000
     0.000000000  5.437848350  0.000000000     0.000000000  0.183896265  0.000000000
     0.000000000  0.000000000  5.437848350     0.000000000  0.000000000  0.183896265

  length of vectors
     5.437848350  5.437848350  5.437848350     0.183896265  0.183896265  0.183896265



 k-points in units of 2pi/SCALE and weight: pymatgen with grid density = 691 / numbe
   0.00000000  0.00000000  0.00000000       0.016
   0.04597407  0.00000000  0.00000000       0.094
   0.09194813  0.00000000  0.00000000       0.047
   0.04597407  0.04597407  0.00000000       0.188
   0.09194813  0.04597407  0.00000000       0.188
   0.09194813  0.09194813  0.00000000       0.047
   0.04597407  0.04597407  0.04597407       0.125
   0.09194813  0.04597407  0.04597407       0.188
   0.09194813  0.09194813  0.04597407       0.094
   0.09194813  0.09194813  0.09194813       0.016

 k-points in reciprocal lattice and weights: pymatgen with grid density = 691 / numbe
   0.00000000  0.00000000  0.00000000       0.016
   0.25000000  0.00000000  0.00000000       0.094
   0.50000000  0.00000000  0.00000000       0.047
   0.25000000  0.25000000  0.00000000       0.188
   0.50000000  0.25000000  0.00000000       0.188
   0.50000000  0.50000000  0.00000000       0.047
   0.25000000  0.25000000  0.25000000       0.125
   0.50000000  0.25000000  0.25000000       0.188
   0.50000000  0.50000000  0.25000000       0.094
   0.50000000  0.50000000  0.50000000       0.016

 position of ions in fractional coordinates (direct lattice)
   0.25434293  0.74565707  0.25434293
   0.00000000  0.00000000  0.50000000
   0.25434293  0.25434293  0.74565707
   0.00000000  0.50000000  0.00000000
   0.74565707  0.74565707  0.74565707
   0.50000000  0.00000000  0.00000000
   0.74565707  0.25434293  0.25434293

 position of ions in cartesian coordinates  (Angst):
   1.38307828  4.05477007  1.38307828
   0.00000000  0.00000000  2.71892418
   1.38307828  1.38307828  4.05477007
   0.00000000  2.71892418  0.00000000
   4.05477007  4.05477007  4.05477007
   2.71892418  0.00000000  0.00000000
   4.05477007  1.38307828  1.38307828



--------------------------------------------------------------------------------------------------------


 k-point   1 :   0.0000 0.0000 0.0000  plane waves:    4067
 k-point   2 :   0.2500 0.0000 0.0000  plane waves:    4072
 k-point   3 :   0.5000 0.0000 0.0000  plane waves:    4116
 k-point   4 :   0.2500 0.2500 0.0000  plane waves:    4080
 k-point   5 :   0.5000 0.2500 0.0000  plane waves:    4072
 k-point   6 :   0.5000 0.5000 0.0000  plane waves:    4076
 k-point   7 :   0.2500 0.2500 0.2500  plane waves:    4094
 k-point   8 :   0.5000 0.2500 0.2500  plane waves:    4076
 k-point   9 :   0.5000 0.5000 0.2500  plane waves:    4092
 k-point  10 :   0.5000 0.5000 0.5000  plane waves:    4032

 maximum and minimum number of plane-waves per node :      4116     4032

 maximum number of plane-waves:      4116
 maximum index in each direction:
   IXMAX=    9   IYMAX=    9   IZMAX=    9
   IXMIN=  -10   IYMIN=  -10   IZMIN=  -10


 serial   3D FFT for wavefunctions
 parallel 3D FFT for charge:
    minimum data exchange during FFTs selected (reduces bandwidth)


 total amount of memory used by VASP MPI-rank0    40713. kBytes
=======================================================================

   base      :      30000. kBytes
   nonl-proj :       3140. kBytes
   fftplans  :        508. kBytes
   grid      :       5640. kBytes
   one-center:         43. kBytes
   wavefun   :       1382. kBytes

     INWAV:  cpu time      0.0000: real time      0.0000
 Broyden mixing: mesh for mixing (old mesh)
   NGX = 19   NGY = 19   NGZ = 19
  (NGX  = 80   NGY  = 80   NGZ  = 80)
  gives a total of   6859 points

 initial charge density was supplied:
 charge density of overlapping atoms calculated
 number of electron      28.0000000 magnetization       0.0040000
 keeping initial charge density in first step


--------------------------------------------------------------------------------------------------------


 Maximum index for augmentation-charges          665 (set IRDMAX)


--------------------------------------------------------------------------------------------------------


 First call to EWALD:  gamma=   0.326
 Maximum number of real-space cells 3x 3x 3
 Maximum number of reciprocal cells 3x 3x 3

    FEWALD:  cpu time      0.0016: real time      0.0028


--------------------------------------- Iteration      1(   1)  ---------------------------------------


    POTLOK:  cpu time      0.0254: real time      0.0302
    SETDIJ:  cpu time      0.2009: real time      0.2009
     EDDAV:  cpu time      5.2121: real time      5.2129
       DOS:  cpu time      0.0031: real time      0.0031
    --------------------------------------------
      LOOP:  cpu time      5.4416: real time      5.4472

 eigenvalue-minimisations  :  5760
 total energy-change (2. order) :-0.1913143E+02  (-0.1139164E+04)
 number of electron      28.0000000 magnetization       0.0040000
 augmentation part       28.0000000 magnetization       0.0040000

 Free energy of the ion-electron system (eV)
  ---------------------------------------------------
  alpha Z        PSCENC =        10.25815623
  Ewald energy   TEWEN  =      -749.89179359
  -Hartree energ DENC   =       -55.71548111
  -exchange      EXHF   =         0.00000000
  -V(xc)+E(xc)   XCENC  =       -62.61623131
  PAW double counting   =       612.34974622     -491.33201668
  entropy T*S    EENTRO =        -0.00786853
  eigenvalues    EBANDS =        -0.20405984
  atomic energy  EATOM  =       718.02812073
  Solvation  Ediel_sol  =         0.00000000
  ---------------------------------------------------
  free energy    TOTEN  =       -19.13142788 eV

  energy without entropy =      -19.12355935  energy(sigma->0) =      -19.12749362


--------------------------------------------------------------------------------------------------------




--------------------------------------- Iteration      1(   2)  ---------------------------------------


     EDDAV:  cpu time     12.3765: real time     12.3882
       DOS:  cpu time      0.0027: real time      0.0027
    --------------------------------------------
      LOOP:  cpu time     12.3792: real time     12.3909

 eigenvalue-minimisations  :  8640
 total energy-change (2. order) :-0.1862045E+02  (-0.1861431E+02)
 number of electron      28.0000000 magnetization       0.0040000
 augmentation part       28.0000000 magnetization       0.0040000

 Free energy of the ion-electron system (eV)
  ---------------------------------------------------
  alpha Z        PSCENC =        10.25815623
  Ewald energy   TEWEN  =      -749.89179359
  -Hartree energ DENC   =       -55.71548111
  -exchange      EXHF   =         0.00000000
  -V(xc)+E(xc)   XCENC  =       -62.61623131
  PAW double counting   =       612.34974622     -491.33201668
  entropy T*S    EENTRO =        -0.01027034
  eigenvalues    EBANDS =       -18.82210603
  atomic energy  EATOM  =       718.02812073
  Solvation  Ediel_sol  =         0.00000000
  ---------------------------------------------------
  free energy    TOTEN  =       -37.75187588 eV

  energy without entropy =      -37.74160554  energy(sigma->0) =      -37.74674071


--------------------------------------------------------------------------------------------------------




--------------------------------------- Iteration      1(   3)  ---------------------------------------


     EDDAV:  cpu time      5.3352: real time      5.3553
       DOS:  cpu time      0.0026: real time      0.0026
    --------------------------------------------
      LOOP:  cpu time      5.3378: real time      5.3578

 eigenvalue-minimisations  :  5760
 total energy-change (2. order) :-0.1493799E-01  (-0.1493794E-01)
 number of electron      28.0000000 magnetization       0.0040000
 augmentation part       28.0000000 magnetization       0.0040000

 Free energy of the ion-electron system (eV)
  ---------------------------------------------------
  alpha Z        PSCENC =        10.25815623
  Ewald energy   TEWEN  =      -749.89179359
  -Hartree energ DENC   =       -55.71548111
  -exchange      EXHF   =         0.00000000
  -V(xc)+E(xc)   XCENC  =       -62.61623131
  PAW double counting   =       612.34974622     -491.33201668
  entropy T*S    EENTRO =        -0.01027135
  eigenvalues    EBANDS =       -18.83704301
  atomic energy  EATOM  =       718.02812073
  Solvation  Ediel_sol  =         0.00000000
  ---------------------------------------------------
  free energy    TOTEN  =       -37.76681387 eV

  energy without entropy =      -37.75654252  energy(sigma->0) =      -37.76167820


--------------------------------------------------------------------------------------------------------




--------------------------------------- Iteration      1(   4)  ---------------------------------------


     EDDAV:  cpu time     25.4758: real time     25.4972
       DOS:  cpu time      0.0031: real time      0.0031
    --------------------------------------------
      LOOP:  cpu time     25.4789: real time     25.5004

 eigenvalue-minimisations  : 11520
 total energy-change (2. order) :-0.7561014E-05  (-0.7561042E-05)
 number of electron      28.0000000 magnetization       0.0040000
 augmentation part       28.0000000 magnetization       0.0040000

 Free energy of the ion-electron system (eV)
  ---------------------------------------------------
  alpha Z        PSCENC =        10.25815623
  Ewald energy   TEWEN  =      -749.89179359
  -Hartree energ DENC   =       -55.71548111
  -exchange      EXHF   =         0.00000000
  -V(xc)+E(xc)   XCENC  =       -62.61623131
  PAW double counting   =       612.34974622     -491.33201668
  entropy T*S    EENTRO =        -0.01027135
  eigenvalues    EBANDS =       -18.83705057
  atomic energy  EATOM  =       718.02812073
  Solvation  Ediel_sol  =         0.00000000
  ---------------------------------------------------
  free energy    TOTEN  =       -37.76682143 eV

  energy without entropy =      -37.75655008  energy(sigma->0) =      -37.76168576


--------------------------------------------------------------------------------------------------------




--------------------------------------- Iteration      1(   5)  ---------------------------------------


     EDDAV:  cpu time      5.6513: real time      5.6718
       DOS:  cpu time      0.0029: real time      0.0029
    CHARGE:  cpu time      0.0453: real time      0.0454
    MIXING:  cpu time      0.0020: real time      0.0021
    --------------------------------------------
      LOOP:  cpu time      5.7016: real time      5.7222

 eigenvalue-minimisations  :  5760
 total energy-change (2. order) :-0.1297167E-09  (-0.2727867E-11)
 number of electron      28.0000001 magnetization       0.0030018
 augmentation part       -1.6669561 magnetization      -0.0000153

 Broyden mixing:
  rms(total) = 0.81784E+00    rms(broyden)= 0.81784E+00
  rms(prec ) = 0.11924E+01
  weight for this iteration     100.00

 Free energy of the ion-electron system (eV)
  ---------------------------------------------------
  alpha Z        PSCENC =        10.25815623
  Ewald energy   TEWEN  =      -749.89179359
  -Hartree energ DENC   =       -55.71548111
  -exchange      EXHF   =         0.00000000
  -V(xc)+E(xc)   XCENC  =       -62.61623131
  PAW double counting   =       612.34974622     -491.33201668
  entropy T*S    EENTRO =        -0.01027135
  eigenvalues    EBANDS =       -18.83705057
  atomic energy  EATOM  =       718.02812073
  Solvation  Ediel_sol  =         0.00000000
  ---------------------------------------------------
  free energy    TOTEN  =       -37.76682143 eV

  energy without entropy =      -37.75655008  energy(sigma->0) =      -37.76168576


--------------------------------------------------------------------------------------------------------




--------------------------------------- Iteration      1(   6)  ---------------------------------------


    POTLOK:  cpu time      0.0246: real time      0.0452
    SETDIJ:  cpu time      0.2024: real time      0.2024
    EDDIAG:  cpu time      0.8090: real time      0.8096
  RMM-DIIS:  cpu time      0.1948: real time      0.1954
    ORTHCH:  cpu time      0.1133: real time      0.1133
       DOS:  cpu time      0.0025: real time      0.0025
    CHARGE:  cpu time      0.0382: real time      0.0382
    MIXING:  cpu time      0.0005: real time      0.0006
    --------------------------------------------
      LOOP:  cpu time      1.3852: real time      1.4070

 eigenvalue-minimisations  :  5818
 total energy-change (2. order) : 0.5751279E+00  (-0.1029280E-02)
 number of electron      28.0000001 magnetization       0.0018195
 augmentation part       -1.6562910 magnetization      -0.0006033

 Broyden mixing:
  rms(total) = 0.47760E+00    rms(broyden)= 0.47760E+00
  rms(prec ) = 0.64162E+00
  weight for this iteration     100.00

 eigenvalues of (default mixing * dielectric matrix)
  average eigenvalue GAMMA=   2.3481
  2.3481

 Free energy of the ion-electron system (eV)
  ---------------------------------------------------
  alpha Z        PSCENC =        10.25815623
  Ewald energy   TEWEN  =      -749.89179359
  -Hartree energ DENC   =       -60.50551023
  -exchange      EXHF   =         0.00000000
  -V(xc)+E(xc)   XCENC  =       -62.01363661
  PAW double counting   =      1198.35523779    -1077.58003043
  entropy T*S    EENTRO =        -0.00723177
  eigenvalues    EBANDS =       -13.83500566
  atomic energy  EATOM  =       718.02812073
  Solvation  Ediel_sol  =         0.00000000
  ---------------------------------------------------
  free energy    TOTEN  =       -37.19169353 eV

  energy without entropy =      -37.18446176  energy(sigma->0) =      -37.18807764


--------------------------------------------------------------------------------------------------------




--------------------------------------- Iteration      1(   7)  ---------------------------------------


    POTLOK:  cpu time      0.0228: real time      0.0385
    SETDIJ:  cpu time      0.2007: real time      0.2007
    EDDIAG:  cpu time      0.7866: real time      0.7867
  RMM-DIIS:  cpu time      0.2876: real time      0.2876
    ORTHCH:  cpu time      0.1121: real time      0.1121
       DOS:  cpu time      0.0024: real time      0.0024
    CHARGE:  cpu time      0.0382: real time      0.0382
    MIXING:  cpu time      0.0004: real time      0.0004
    --------------------------------------------
      LOOP:  cpu time      1.4509: real time      1.4667

 eigenvalue-minimisations  :  6381
 total energy-change (2. order) : 0.1637169E+00  (-0.1864822E-02)
 number of electron      28.0000001 magnetization       0.0012890
 augmentation part       -1.6479789 magnetization      -0.0002708

 Broyden mixing:
  rms(total) = 0.88514E-01    rms(broyden)= 0.88514E-01
  rms(prec ) = 0.13017E+00
  weight for this iteration     100.00

 eigenvalues of (default mixing * dielectric matrix)
  average eigenvalue GAMMA=   1.8546
  1.3773  2.3319

 Free energy of the ion-electron system (eV)
  ---------------------------------------------------
  alpha Z        PSCENC =        10.25815623
  Ewald energy   TEWEN  =      -749.89179359
  -Hartree energ DENC   =       -65.52421582
  -exchange      EXHF   =         0.00000000
  -V(xc)+E(xc)   XCENC  =       -61.24621417
  PAW double counting   =      2209.52560792    -2089.00313869
  entropy T*S    EENTRO =        -0.00663650
  eigenvalues    EBANDS =        -9.16786275
  atomic energy  EATOM  =       718.02812073
  Solvation  Ediel_sol  =         0.00000000
  ---------------------------------------------------
  free energy    TOTEN  =       -37.02797665 eV

  energy without entropy =      -37.02134015  energy(sigma->0) =      -37.02465840


--------------------------------------------------------------------------------------------------------




--------------------------------------- Iteration      1(   8)  ---------------------------------------


    POTLOK:  cpu time      0.0194: real time      0.0404
    SETDIJ:  cpu time      0.2004: real time      0.2004
    EDDIAG:  cpu time      0.7794: real time      0.7795
  RMM-DIIS:  cpu time      0.2823: real time      0.2823
    ORTHCH:  cpu time      0.1121: real time      0.1121
       DOS:  cpu time      0.0025: real time      0.0025
    CHARGE:  cpu time      0.0371: real time      0.0371
    MIXING:  cpu time      0.0004: real time      0.0004
    --------------------------------------------
      LOOP:  cpu time      1.4337: real time      1.4548

 eigenvalue-minimisations  :  6259
 total energy-change (2. order) : 0.5998423E-02  (-0.2621781E-03)
 number of electron      28.0000001 magnetization       0.0008790
 augmentation part       -1.6495915 magnetization      -0.0001810

 Broyden mixing:
  rms(total) = 0.17543E-01    rms(broyden)= 0.17543E-01
  rms(prec ) = 0.25730E-01
  weight for this iteration     100.00

 eigenvalues of (default mixing * dielectric matrix)
  average eigenvalue GAMMA=   1.7984
  1.6168  1.6168  2.1616

 Free energy of the ion-electron system (eV)
  ---------------------------------------------------
  alpha Z        PSCENC =        10.25815623
  Ewald energy   TEWEN  =      -749.89179359
  -Hartree energ DENC   =       -65.81540646
  -exchange      EXHF   =         0.00000000
  -V(xc)+E(xc)   XCENC  =       -61.10346988
  PAW double counting   =      2447.37925753    -2326.87831882
  entropy T*S    EENTRO =        -0.00660854
  eigenvalues    EBANDS =        -8.99191543
  atomic energy  EATOM  =       718.02812073
  Solvation  Ediel_sol  =         0.00000000
  ---------------------------------------------------
  free energy    TOTEN  =       -37.02197823 eV

  energy without entropy =      -37.01536969  energy(sigma->0) =      -37.01867396


--------------------------------------------------------------------------------------------------------




--------------------------------------- Iteration      1(   9)  ---------------------------------------


    POTLOK:  cpu time      0.0213: real time      0.0415
    SETDIJ:  cpu time      0.2001: real time      0.2001
    EDDIAG:  cpu time      0.7691: real time      0.7691
  RMM-DIIS:  cpu time      0.3058: real time      0.3058
    ORTHCH:  cpu time      0.1120: real time      0.1120
       DOS:  cpu time      0.0025: real time      0.0026
    CHARGE:  cpu time      0.0371: real time      0.0371
    MIXING:  cpu time      0.0004: real time      0.0004
    --------------------------------------------
      LOOP:  cpu time      1.4484: real time      1.4685

 eigenvalue-minimisations  :  6776
 total energy-change (2. order) : 0.3469961E-04  (-0.2211914E-04)
 number of electron      28.0000001 magnetization       0.0004669
 augmentation part       -1.6505495 magnetization      -0.0002252

 Broyden mixing:
  rms(total) = 0.93132E-02    rms(broyden)= 0.93132E-02
  rms(prec ) = 0.11600E-01
  weight for this iteration     100.00

 eigenvalues of (default mixing * dielectric matrix)
  average eigenvalue GAMMA=   1.9400
  2.4240  2.4240  1.4560  1.4560

 Free energy of the ion-electron system (eV)
  ---------------------------------------------------
  alpha Z        PSCENC =        10.25815623
  Ewald energy   TEWEN  =      -749.89179359
  -Hartree energ DENC   =       -65.80458270
  -exchange      EXHF   =         0.00000000
  -V(xc)+E(xc)   XCENC  =       -61.08954808
  PAW double counting   =      2430.91713140    -2310.41080225
  entropy T*S    EENTRO =        -0.00663286
  eigenvalues    EBANDS =        -9.02199241
  atomic energy  EATOM  =       718.02812073
  Solvation  Ediel_sol  =         0.00000000
  ---------------------------------------------------
  free energy    TOTEN  =       -37.02194353 eV

  energy without entropy =      -37.01531066  energy(sigma->0) =      -37.01862710


--------------------------------------------------------------------------------------------------------




--------------------------------------- Iteration      1(  10)  ---------------------------------------


    POTLOK:  cpu time      0.0207: real time      0.0413
    SETDIJ:  cpu time      0.2001: real time      0.2002
    EDDIAG:  cpu time      0.7603: real time      0.7604
  RMM-DIIS:  cpu time      0.3093: real time      0.3093
    ORTHCH:  cpu time      0.1108: real time      0.1108
       DOS:  cpu time      0.0025: real time      0.0025
    CHARGE:  cpu time      0.0371: real time      0.0371
    MIXING:  cpu time      0.0005: real time      0.0005
    --------------------------------------------
      LOOP:  cpu time      1.4413: real time      1.4622

 eigenvalue-minimisations  :  6582
 total energy-change (2. order) :-0.3251122E-04  (-0.3618109E-05)
 number of electron      28.0000001 magnetization       0.0003684
 augmentation part       -1.6509148 magnetization      -0.0000685

 Broyden mixing:
  rms(total) = 0.26665E-02    rms(broyden)= 0.26665E-02
  rms(prec ) = 0.42228E-02
  weight for this iteration     100.00

 eigenvalues of (default mixing * dielectric matrix)
  average eigenvalue GAMMA=   1.7611
  2.5022  2.5022  1.5511  1.5511  0.6993

 Free energy of the ion-electron system (eV)
  ---------------------------------------------------
  alpha Z        PSCENC =        10.25815623
  Ewald energy   TEWEN  =      -749.89179359
  -Hartree energ DENC   =       -65.78417560
  -exchange      EXHF   =         0.00000000
  -V(xc)+E(xc)   XCENC  =       -61.08350005
  PAW double counting   =      2407.50858334    -2286.99973136
  entropy T*S    EENTRO =        -0.00664472
  eigenvalues    EBANDS =        -9.05099102
  atomic energy  EATOM  =       718.02812073
  Solvation  Ediel_sol  =         0.00000000
  ---------------------------------------------------
  free energy    TOTEN  =       -37.02197604 eV

  energy without entropy =      -37.01533132  energy(sigma->0) =      -37.01865368


--------------------------------------------------------------------------------------------------------




--------------------------------------- Iteration      1(  11)  ---------------------------------------


    POTLOK:  cpu time      0.0204: real time      0.0390
    SETDIJ:  cpu time      0.2004: real time      0.2004
    EDDIAG:  cpu time      0.7496: real time      0.7497
  RMM-DIIS:  cpu time      0.3181: real time      0.3181
    ORTHCH:  cpu time      0.1115: real time      0.1115
       DOS:  cpu time      0.0025: real time      0.0025
    --------------------------------------------
      LOOP:  cpu time      1.4025: real time      1.4213

 eigenvalue-minimisations  :  6524
 total energy-change (2. order) : 0.6222283E-05  (-0.5480953E-06)
 number of electron      28.0000001 magnetization       0.0003684
 augmentation part       -1.6509148 magnetization      -0.0000685

 Free energy of the ion-electron system (eV)
  ---------------------------------------------------
  alpha Z        PSCENC =        10.25815623
  Ewald energy   TEWEN  =      -749.89179359
  -Hartree energ DENC   =       -65.82568297
  -exchange      EXHF   =         0.00000000
  -V(xc)+E(xc)   XCENC  =       -61.07837838
  PAW double counting   =      2403.36355440    -2282.85608986
  entropy T*S    EENTRO =        -0.00664346
  eigenvalues    EBANDS =        -9.01321292
  atomic energy  EATOM  =       718.02812073
  Solvation  Ediel_sol  =         0.00000000
  ---------------------------------------------------
  free energy    TOTEN  =       -37.02196982 eV

  energy without entropy =      -37.01532636  energy(sigma->0) =      -37.01864809


--------------------------------------------------------------------------------------------------------




 average (electrostatic) potential at core
  the test charge radii are     0.9892
  (the norm of the test charge is              1.0000)
       1 -84.6978       2 -84.4884       3 -84.6978       4 -84.4884       5 -84.6978
       6 -84.4884       7 -84.6978



 E-fermi :   4.7500     XC(G=0):  -9.0788     alpha+bet :-10.4411

 Fermi energy:         4.7499743182

 spin component 1

 k-point     1 :       0.0000    0.0000    0.0000
  band No.  band energies     occupation
      1      -6.9296      1.00000
      2      -3.2568      1.00000
      3      -3.2568      1.00000
      4      -2.8923      1.00000
      5      -2.8923      1.00000
      6      -2.8923      1.00000
      7       1.2182      1.00000
      8       1.6925      1.00000
      9       1.6925      1.00000
     10       1.6925      1.00000
     11       2.9313      1.00000
     12       2.9313      1.00000
     13       2.9313      1.00000
     14       5.5788      0.00000
     15       5.5788      0.00000
     16       5.5828      0.00000
     17       5.5828      0.00000
     18       5.5828      0.00000
     19       6.1582      0.00000
     20       6.1582      0.00000
     21       6.1582      0.00000
     22       6.2847      0.00000
     23       8.5362      0.00000
     24       8.5362      0.00000
     25       8.5362      0.00000
     26      10.1543      0.00000
     27      12.9514      0.00000
     28      12.9514      0.00000
     29      13.1394      0.00000
     30      14.5874      0.00000
     31      14.5874      0.00000
     32      14.5874      0.00000
     33      15.6186      0.00000
     34      15.6186      0.00000
     35      15.6186      0.00000
     36      15.6764      0.00000
     37      15.6764      0.00000
     38      15.6764      0.00000
     39      16.2997      0.00000
     40      16.2997      0.00000
     41      16.2997      0.00000
     42      17.0000      0.00000
     43      17.4443      0.00000
     44      17.4443      0.00000
     45      17.4835      0.00000
     46      17.4835      0.00000
     47      17.4835      0.00000
     48      18.1585      0.00000
     49      18.1585      0.00000
     50      18.1585      0.00000
     51      19.1654      0.00000
     52      19.1654      0.00000
     53      19.1824      0.00000
     54      20.2810      0.00000
     55      20.9377      0.00000
     56      20.9377      0.00000
     57      20.9377      0.00000
     58      23.5735      0.00000
     59      23.6942      0.00000
     60      23.6942      0.00000
     61      23.6942      0.00000
     62      24.3982      0.00000
     63      24.3982      0.00000
     64      24.3982      0.00000
     65      24.8402      0.00000
     66      24.8402      0.00000
     67      24.8402      0.00000
     68      24.9424      0.00000
     69      24.9424      0.00000
     70      24.9424      0.00000
     71      25.3015      0.00000
     72      25.3015      0.00000
     73      26.0991      0.00000
     74      26.0991      0.00000
     75      26.2392      0.00000
     76      26.2392      0.00000
     77      26.2392      0.00000
     78      27.1331      0.00000
     79      27.1331      0.00000
     80      27.1331      0.00000
     81      27.5294      0.00000
     82      28.4634      0.00000
     83      28.4634      0.00000
     84      28.4634      0.00000
     85      29.3743      0.00000
     86      29.3743      0.00000
     87      30.8525      0.00000
     88      31.6816      0.00000
     89      31.6816      0.00000
     90      31.6816      0.00000
     91      32.9697      0.00000
     92      32.9697      0.00000
     93      33.1414      0.00000
     94      33.1414      0.00000
     95      33.1414      0.00000
     96      33.8723      0.00000
     97      33.8723      0.00000
     98      33.8723      0.00000
     99      35.0384      0.00000
    100      35.0384      0.00000
    101      35.0384      0.00000
    102      37.5803      0.00000
    103      37.5803      0.00000
    104      37.5803      0.00000
    105      38.8828      0.00000
    106      38.8828      0.00000
    107      38.8828      0.00000
    108      39.0678      0.00000
    109      39.0678      0.00000
    110      39.0678      0.00000
    111      39.1639      0.00000
    112      39.1639      0.00000
    113      39.3297      0.00000
    114      40.1844      0.00000
    115      40.3676      0.00000
    116      40.3676      0.00000
    117      40.3676      0.00000
    118      40.8810      0.00000
    119      40.8810      0.00000
    120      40.8810      0.00000
    121      41.8465      0.00000
    122      41.8465      0.00000
    123      41.8465      0.00000
    124      42.2283      0.00000
    125      42.2283      0.00000
    126      42.5625      0.00000
    127      42.7961      0.00000
    128      42.9518      0.00000
    129      42.9518      0.00000
    130      43.2106      0.00000
    131      43.2106      0.00000
    132      43.2106      0.00000
    133      44.2574      0.00000
    134      44.2574      0.00000
    135      44.2574      0.00000
    136      44.8053      0.00000
    137      44.8056      0.00000
    138      45.1388      0.00000
    139      45.1388      0.00000
    140      45.1388      0.00000
    141      45.8020      0.00000
    142      45.8021      0.00000
    143      45.8021      0.00000
    144      46.1690      0.00000

 k-point     2 :       0.2500    0.0000    0.0000
  band No.  band energies     occupation
      1      -6.6850      1.00000
      2      -4.5933      1.00000
      3      -3.1855      1.00000
      4      -2.8250      1.00000
      5      -2.8250      1.00000
      6      -1.5138      1.00000
      7       1.1899      1.00000
      8       1.4496      1.00000
      9       1.4496      1.00000
     10       1.5377      1.00000
     11       2.1793      1.00000
     12       2.7336      1.00000
     13       2.7336      1.00000
     14       4.8828      0.00009
     15       5.3056      0.00000
     16       5.3056      0.00000
     17       5.6911      0.00000
     18       6.3869      0.00000
     19       6.7783      0.00000
     20       7.0192      0.00000
     21       7.0192      0.00000
     22       7.5033      0.00000
     23       8.1038      0.00000
     24       9.5842      0.00000
     25       9.5842      0.00000
     26      10.7184      0.00000
     27      11.9556      0.00000
     28      12.4215      0.00000
     29      12.4906      0.00000
     30      12.4906      0.00000
     31      13.2978      0.00000
     32      13.6293      0.00000
     33      14.2563      0.00000
     34      14.3138      0.00000
     35      14.3138      0.00000
     36      15.0899      0.00000
     37      15.9105      0.00000
     38      15.9808      0.00000
     39      15.9808      0.00000
     40      16.7394      0.00000
     41      16.7844      0.00000
     42      16.7844      0.00000
     43      16.9809      0.00000
     44      17.5134      0.00000
     45      17.6683      0.00000
     46      18.3670      0.00000
     47      18.3670      0.00000
     48      18.9814      0.00000
     49      18.9814      0.00000
     50      19.4251      0.00000
     51      19.8978      0.00000
     52      19.9386      0.00000
     53      20.6414      0.00000
     54      21.0697      0.00000
     55      21.4042      0.00000
     56      21.4042      0.00000
     57      21.6085      0.00000
     58      22.0342      0.00000
     59      22.2135      0.00000
     60      22.2135      0.00000
     61      22.9012      0.00000
     62      23.3000      0.00000
     63      23.3000      0.00000
     64      23.4446      0.00000
     65      23.8810      0.00000
     66      24.2894      0.00000
     67      24.2894      0.00000
     68      24.5504      0.00000
     69      24.8427      0.00000
     70      25.8031      0.00000
     71      25.8031      0.00000
     72      26.3397      0.00000
     73      26.8282      0.00000
     74      26.9881      0.00000
     75      26.9881      0.00000
     76      27.5280      0.00000
     77      28.1069      0.00000
     78      28.2150      0.00000
     79      28.3687      0.00000
     80      28.4924      0.00000
     81      28.5902      0.00000
     82      28.5902      0.00000
     83      29.3023      0.00000
     84      29.4520      0.00000
     85      29.4520      0.00000
     86      29.9559      0.00000
     87      30.1898      0.00000
     88      30.7475      0.00000
     89      31.1078      0.00000
     90      31.1078      0.00000
     91      31.4535      0.00000
     92      32.8037      0.00000
     93      32.8037      0.00000
     94      32.8743      0.00000
     95      33.8577      0.00000
     96      34.6392      0.00000
     97      34.6392      0.00000
     98      34.7489      0.00000
     99      35.1781      0.00000
    100      36.1056      0.00000
    101      36.1056      0.00000
    102      36.3595      0.00000
    103      36.3595      0.00000
    104      36.7415      0.00000
    105      36.8527      0.00000
    106      36.9599      0.00000
    107      37.5478      0.00000
    108      37.5478      0.00000
    109      37.5967      0.00000
    110      38.2217      0.00000
    111      38.2217      0.00000
    112      38.3135      0.00000
    113      38.6500      0.00000
    114      39.7792      0.00000
    115      39.7792      0.00000
    116      39.9534      0.00000
    117      40.4407      0.00000
    118      40.5340      0.00000
    119      40.5340      0.00000
    120      40.7110      0.00000
    121      40.9304      0.00000
    122      41.3397      0.00000
    123      41.8868      0.00000
    124      42.0593      0.00000
    125      42.3695      0.00000
    126      42.3695      0.00000
    127      42.8073      0.00000
    128      43.3409      0.00000
    129      43.3409      0.00000
    130      43.3607      0.00000
    131      44.1328      0.00000
    132      44.1490      0.00000
    133      44.4820      0.00000
    134      44.7023      0.00000
    135      44.7023      0.00000
    136      44.8741      0.00000
    137      45.0479      0.00000
    138      45.0479      0.00000
    139      45.2260      0.00000
    140      45.3487      0.00000
    141      45.6171      0.00000
    142      45.6171      0.00000
    143      45.9937      0.00000
    144      45.9940      0.00000

 k-point     3 :       0.5000    0.0000    0.0000
  band No.  band energies     occupation
      1      -6.1883      1.00000
      2      -5.5346      1.00000
      3      -3.1077      1.00000
      4      -2.7521      1.00000
      5      -2.7521      1.00000
      6      -0.5724      1.00000
      7       0.7894      1.00000
      8       0.9502      1.00000
      9       1.1562      1.00000
     10       1.1562      1.00000
     11       2.7634      1.00000
     12       2.7634      1.00000
     13       2.9205      1.00000
     14       3.4839      1.00000
     15       4.8112      0.04175
     16       4.8112      0.04175
     17       6.1388      0.00000
     18       6.4122      0.00000
     19       8.1799      0.00000
     20       8.7975      0.00000
     21       9.1626      0.00000
     22       9.1807      0.00000
     23       9.1807      0.00000
     24       9.5492      0.00000
     25       9.8224      0.00000
     26       9.8224      0.00000
     27      10.5002      0.00000
     28      10.6865      0.00000
     29      11.0331      0.00000
     30      11.0331      0.00000
     31      12.8361      0.00000
     32      12.8361      0.00000
     33      13.6504      0.00000
     34      13.6816      0.00000
     35      14.8618      0.00000
     36      14.9463      0.00000
     37      15.1369      0.00000
     38      15.9768      0.00000
     39      15.9768      0.00000
     40      16.2739      0.00000
     41      16.5853      0.00000
     42      17.5391      0.00000
     43      17.5832      0.00000
     44      17.5832      0.00000
     45      18.1737      0.00000
     46      18.3846      0.00000
     47      18.5139      0.00000
     48      18.5139      0.00000
     49      19.2224      0.00000
     50      19.3962      0.00000
     51      19.3962      0.00000
     52      20.3779      0.00000
     53      21.3467      0.00000
     54      21.3525      0.00000
     55      21.3525      0.00000
     56      21.6194      0.00000
     57      22.5698      0.00000
     58      22.5698      0.00000
     59      22.6334      0.00000
     60      22.6334      0.00000
     61      23.1003      0.00000
     62      23.1111      0.00000
     63      23.4900      0.00000
     64      23.4900      0.00000
     65      23.5001      0.00000
     66      23.9649      0.00000
     67      24.1495      0.00000
     68      24.2923      0.00000
     69      24.8179      0.00000
     70      25.7070      0.00000
     71      26.0979      0.00000
     72      26.0979      0.00000
     73      26.4453      0.00000
     74      26.6658      0.00000
     75      26.6658      0.00000
     76      26.8603      0.00000
     77      26.9989      0.00000
     78      27.6407      0.00000
     79      28.8363      0.00000
     80      29.5588      0.00000
     81      29.7371      0.00000
     82      29.7371      0.00000
     83      30.0035      0.00000
     84      31.3666      0.00000
     85      31.7607      0.00000
     86      31.7607      0.00000
     87      31.8541      0.00000
     88      32.0134      0.00000
     89      32.0917      0.00000
     90      32.3514      0.00000
     91      32.3514      0.00000
     92      32.3969      0.00000
     93      32.5010      0.00000
     94      32.5010      0.00000
     95      33.5742      0.00000
     96      33.8791      0.00000
     97      33.8791      0.00000
     98      34.0947      0.00000
     99      34.2926      0.00000
    100      34.5047      0.00000
    101      34.8074      0.00000
    102      34.8182      0.00000
    103      34.8182      0.00000
    104      35.3091      0.00000
    105      35.3091      0.00000
    106      35.8316      0.00000
    107      35.9383      0.00000
    108      35.9383      0.00000
    109      36.5302      0.00000
    110      37.8694      0.00000
    111      38.4130      0.00000
    112      38.6132      0.00000
    113      38.6132      0.00000
    114      39.7868      0.00000
    115      39.8719      0.00000
    116      40.0576      0.00000
    117      40.4135      0.00000
    118      40.4135      0.00000
    119      40.4545      0.00000
    120      41.3979      0.00000
    121      41.6414      0.00000
    122      41.6414      0.00000
    123      41.6438      0.00000
    124      41.8905      0.00000
    125      41.8905      0.00000
    126      42.4433      0.00000
    127      42.4487      0.00000
    128      42.4487      0.00000
    129      42.4504      0.00000
    130      42.6698      0.00000
    131      43.1674      0.00000
    132      43.1674      0.00000
    133      44.4979      0.00000
    134      44.8354      0.00000
    135      44.8354      0.00000
    136      44.9510      0.00000
    137      45.2248      0.00000
    138      45.3612      0.00000
    139      45.3614      0.00000
    140      45.3874      0.00000
    141      45.5320      0.00000
    142      45.9510      0.00000
    143      46.4358      0.00000
    144      46.6030      0.00000

 k-point     4 :       0.2500    0.2500    0.0000
  band No.  band energies     occupation
      1      -6.4446      1.00000
      2      -4.6553      1.00000
      3      -4.1721      1.00000
      4      -2.9152      1.00000
      5      -1.9996      1.00000
      6      -1.1375      1.00000
      7       0.5045      1.00000
      8       1.3136      1.00000
      9       1.4553      1.00000
     10       1.8606      1.00000
     11       1.8645      1.00000
     12       2.8193      1.00000
     13       2.9440      1.00000
     14       3.9450      1.00000
     15       4.7283      0.73035
     16       5.7661      0.00000
     17       6.1951      0.00000
     18       6.7866      0.00000
     19       7.1909      0.00000
     20       7.4656      0.00000
     21       7.5973      0.00000
     22       9.0317      0.00000
     23       9.1112      0.00000
     24       9.2916      0.00000
     25       9.4488      0.00000
     26      10.3291      0.00000
     27      11.4894      0.00000
     28      11.5232      0.00000
     29      11.9724      0.00000
     30      12.4082      0.00000
     31      12.6399      0.00000
     32      13.2014      0.00000
     33      13.3109      0.00000
     34      13.9884      0.00000
     35      14.1470      0.00000
     36      14.7672      0.00000
     37      15.0289      0.00000
     38      15.5646      0.00000
     39      15.7838      0.00000
     40      16.1066      0.00000
     41      16.3480      0.00000
     42      16.7015      0.00000
     43      17.4728      0.00000
     44      18.1515      0.00000
     45      18.5743      0.00000
     46      18.6250      0.00000
     47      18.9755      0.00000
     48      19.2218      0.00000
     49      19.4970      0.00000
     50      19.5564      0.00000
     51      19.7204      0.00000
     52      19.9119      0.00000
     53      20.3637      0.00000
     54      20.6719      0.00000
     55      21.1409      0.00000
     56      21.2468      0.00000
     57      21.3978      0.00000
     58      22.2947      0.00000
     59      22.3489      0.00000
     60      22.6600      0.00000
     61      22.9500      0.00000
     62      23.0335      0.00000
     63      23.2577      0.00000
     64      23.8340      0.00000
     65      24.4390      0.00000
     66      24.6856      0.00000
     67      24.8881      0.00000
     68      25.0674      0.00000
     69      25.9568      0.00000
     70      26.0570      0.00000
     71      26.2577      0.00000
     72      26.3449      0.00000
     73      26.4176      0.00000
     74      26.9736      0.00000
     75      27.0509      0.00000
     76      27.1967      0.00000
     77      27.3967      0.00000
     78      27.7782      0.00000
     79      28.3027      0.00000
     80      28.5473      0.00000
     81      28.6546      0.00000
     82      29.0513      0.00000
     83      29.3012      0.00000
     84      29.9204      0.00000
     85      30.2799      0.00000
     86      30.5105      0.00000
     87      30.8794      0.00000
     88      31.0479      0.00000
     89      31.9453      0.00000
     90      32.1962      0.00000
     91      32.5425      0.00000
     92      32.7645      0.00000
     93      32.9814      0.00000
     94      33.2634      0.00000
     95      33.3517      0.00000
     96      33.5868      0.00000
     97      34.2285      0.00000
     98      34.5494      0.00000
     99      34.6767      0.00000
    100      35.0785      0.00000
    101      35.5328      0.00000
    102      35.5963      0.00000
    103      36.0754      0.00000
    104      36.3179      0.00000
    105      36.9596      0.00000
    106      37.0785      0.00000
    107      37.3237      0.00000
    108      37.6078      0.00000
    109      37.7527      0.00000
    110      37.7738      0.00000
    111      37.9083      0.00000
    112      38.3072      0.00000
    113      38.5082      0.00000
    114      38.7733      0.00000
    115      38.9145      0.00000
    116      39.2026      0.00000
    117      39.4688      0.00000
    118      39.5374      0.00000
    119      40.0600      0.00000
    120      40.1151      0.00000
    121      40.4617      0.00000
    122      40.9025      0.00000
    123      41.4613      0.00000
    124      42.0148      0.00000
    125      42.0474      0.00000
    126      42.2833      0.00000
    127      42.4387      0.00000
    128      42.9928      0.00000
    129      43.0663      0.00000
    130      43.2739      0.00000
    131      43.3637      0.00000
    132      43.4369      0.00000
    133      44.1362      0.00000
    134      44.2969      0.00000
    135      44.6071      0.00000
    136      44.7597      0.00000
    137      44.8313      0.00000
    138      44.9569      0.00000
    139      45.2909      0.00000
    140      45.7568      0.00000
    141      45.8102      0.00000
    142      46.1039      0.00000
    143      46.2900      0.00000
    144      46.5263      0.00000

 k-point     5 :       0.5000    0.2500    0.0000
  band No.  band energies     occupation
      1      -5.9455      1.00000
      2      -5.3909      1.00000
      3      -4.1779      1.00000
      4      -3.0646      1.00000
      5      -1.7260      1.00000
      6      -0.6721      1.00000
      7       0.3778      1.00000
      8       0.6001      1.00000
      9       1.4150      1.00000
     10       1.7838      1.00000
     11       2.4229      1.00000
     12       2.5824      1.00000
     13       3.0052      1.00000
     14       3.4303      1.00000
     15       4.9066      0.00000
     16       4.9258      0.00000
     17       7.3685      0.00000
     18       7.6153      0.00000
     19       7.7586      0.00000
     20       7.8666      0.00000
     21       8.9874      0.00000
     22       9.3490      0.00000
     23       9.3971      0.00000
     24       9.7572      0.00000
     25       9.8480      0.00000
     26       9.8963      0.00000
     27      10.2989      0.00000
     28      10.6429      0.00000
     29      11.4171      0.00000
     30      11.9842      0.00000
     31      12.3589      0.00000
     32      12.4803      0.00000
     33      12.8685      0.00000
     34      12.9998      0.00000
     35      13.6032      0.00000
     36      14.1649      0.00000
     37      15.0221      0.00000
     38      15.3059      0.00000
     39      15.9890      0.00000
     40      16.2506      0.00000
     41      16.8045      0.00000
     42      16.8140      0.00000
     43      17.0998      0.00000
     44      17.5971      0.00000
     45      18.7068      0.00000
     46      18.9542      0.00000
     47      19.0262      0.00000
     48      19.2512      0.00000
     49      19.6339      0.00000
     50      19.6343      0.00000
     51      19.8049      0.00000
     52      20.2192      0.00000
     53      20.2590      0.00000
     54      20.3376      0.00000
     55      21.0168      0.00000
     56      21.3437      0.00000
     57      21.9587      0.00000
     58      22.0127      0.00000
     59      22.2263      0.00000
     60      22.9261      0.00000
     61      23.1510      0.00000
     62      23.7284      0.00000
     63      23.8417      0.00000
     64      23.9610      0.00000
     65      24.4880      0.00000
     66      24.5073      0.00000
     67      25.2835      0.00000
     68      25.4357      0.00000
     69      25.5462      0.00000
     70      25.9548      0.00000
     71      26.2040      0.00000
     72      26.5046      0.00000
     73      26.9655      0.00000
     74      27.2176      0.00000
     75      27.3512      0.00000
     76      27.3740      0.00000
     77      27.8433      0.00000
     78      28.2505      0.00000
     79      28.5203      0.00000
     80      28.9818      0.00000
     81      29.1019      0.00000
     82      29.5578      0.00000
     83      29.5831      0.00000
     84      30.0665      0.00000
     85      30.7662      0.00000
     86      30.8520      0.00000
     87      31.4380      0.00000
     88      31.7827      0.00000
     89      32.0634      0.00000
     90      32.1543      0.00000
     91      32.4261      0.00000
     92      32.7056      0.00000
     93      32.7122      0.00000
     94      33.3361      0.00000
     95      33.3466      0.00000
     96      33.7347      0.00000
     97      33.8316      0.00000
     98      34.1637      0.00000
     99      34.4966      0.00000
    100      34.6848      0.00000
    101      35.0154      0.00000
    102      35.0577      0.00000
    103      35.5923      0.00000
    104      36.1707      0.00000
    105      36.1819      0.00000
    106      36.1966      0.00000
    107      36.4362      0.00000
    108      36.9388      0.00000
    109      37.1748      0.00000
    110      37.3198      0.00000
    111      37.3837      0.00000
    112      38.0955      0.00000
    113      38.1450      0.00000
    114      38.3305      0.00000
    115      38.7285      0.00000
    116      38.9888      0.00000
    117      39.2529      0.00000
    118      39.4596      0.00000
    119      40.2438      0.00000
    120      40.4157      0.00000
    121      40.6181      0.00000
    122      40.7879      0.00000
    123      41.2081      0.00000
    124      41.4881      0.00000
    125      41.7718      0.00000
    126      41.9600      0.00000
    127      42.1520      0.00000
    128      42.4626      0.00000
    129      42.6396      0.00000
    130      42.9503      0.00000
    131      43.2005      0.00000
    132      43.6213      0.00000
    133      43.8569      0.00000
    134      44.1054      0.00000
    135      44.2519      0.00000
    136      44.6848      0.00000
    137      44.9428      0.00000
    138      45.1974      0.00000
    139      45.3494      0.00000
    140      45.4142      0.00000
    141      45.7757      0.00000
    142      45.9368      0.00000
    143      46.2233      0.00000
    144      46.6656      0.00000

 k-point     6 :       0.5000    0.5000    0.0000
  band No.  band energies     occupation
      1      -5.2785      1.00000
      2      -5.2057      1.00000
      3      -5.2057      1.00000
      4      -3.4261      1.00000
      5      -0.6270      1.00000
      6      -0.6270      1.00000
      7      -0.5472      1.00000
      8       0.7181      1.00000
      9       1.2248      1.00000
     10       1.2248      1.00000
     11       2.6015      1.00000
     12       3.0207      1.00000
     13       3.2832      1.00000
     14       3.2924      1.00000
     15       5.3940      0.00000
     16       5.3940      0.00000
     17       7.0157      0.00000
     18       7.0157      0.00000
     19       8.4300      0.00000
     20       8.4543      0.00000
     21       9.3774      0.00000
     22       9.4920      0.00000
     23       9.8038      0.00000
     24       9.8038      0.00000
     25      10.0037      0.00000
     26      10.2263      0.00000
     27      10.2263      0.00000
     28      10.5924      0.00000
     29      11.0279      0.00000
     30      11.8232      0.00000
     31      11.8232      0.00000
     32      12.5561      0.00000
     33      12.6478      0.00000
     34      12.6478      0.00000
     35      12.7192      0.00000
     36      12.9650      0.00000
     37      14.5230      0.00000
     38      15.4518      0.00000
     39      15.4518      0.00000
     40      15.6274      0.00000
     41      17.3996      0.00000
     42      17.5347      0.00000
     43      17.5347      0.00000
     44      18.1922      0.00000
     45      18.1922      0.00000
     46      18.1997      0.00000
     47      18.4481      0.00000
     48      18.8494      0.00000
     49      19.1000      0.00000
     50      19.1000      0.00000
     51      19.1256      0.00000
     52      20.5444      0.00000
     53      21.3508      0.00000
     54      21.7230      0.00000
     55      21.7230      0.00000
     56      21.8509      0.00000
     57      21.8517      0.00000
     58      21.8517      0.00000
     59      21.9142      0.00000
     60      22.4495      0.00000
     61      23.0756      0.00000
     62      23.3003      0.00000
     63      23.5719      0.00000
     64      23.5719      0.00000
     65      24.4097      0.00000
     66      25.2228      0.00000
     67      26.3081      0.00000
     68      26.3081      0.00000
     69      26.5169      0.00000
     70      26.5169      0.00000
     71      26.7357      0.00000
     72      26.8704      0.00000
     73      26.8704      0.00000
     74      27.4353      0.00000
     75      27.5996      0.00000
     76      27.6941      0.00000
     77      28.8202      0.00000
     78      28.9670      0.00000
     79      28.9670      0.00000
     80      29.5020      0.00000
     81      29.7215      0.00000
     82      29.7475      0.00000
     83      29.7475      0.00000
     84      31.0639      0.00000
     85      31.1423      0.00000
     86      31.1647      0.00000
     87      31.3004      0.00000
     88      31.3004      0.00000
     89      31.3640      0.00000
     90      31.6526      0.00000
     91      31.9849      0.00000
     92      31.9849      0.00000
     93      32.6672      0.00000
     94      32.6672      0.00000
     95      32.8006      0.00000
     96      32.8019      0.00000
     97      32.8019      0.00000
     98      33.4081      0.00000
     99      33.7973      0.00000
    100      34.0553      0.00000
    101      34.1443      0.00000
    102      34.5251      0.00000
    103      35.4238      0.00000
    104      35.5686      0.00000
    105      35.5686      0.00000
    106      36.1962      0.00000
    107      36.5890      0.00000
    108      36.5890      0.00000
    109      37.1709      0.00000
    110      37.1709      0.00000
    111      37.6356      0.00000
    112      38.4119      0.00000
    113      38.9974      0.00000
    114      38.9974      0.00000
    115      39.0839      0.00000
    116      39.8639      0.00000
    117      40.3464      0.00000
    118      40.7708      0.00000
    119      40.8530      0.00000
    120      40.8530      0.00000
    121      40.9127      0.00000
    122      41.4340      0.00000
    123      41.7567      0.00000
    124      41.8901      0.00000
    125      41.8901      0.00000
    126      42.2188      0.00000
    127      42.4601      0.00000
    128      42.6584      0.00000
    129      42.7437      0.00000
    130      42.7437      0.00000
    131      42.7768      0.00000
    132      42.7768      0.00000
    133      42.9156      0.00000
    134      43.0425      0.00000
    135      43.0425      0.00000
    136      43.3712      0.00000
    137      43.6271      0.00000
    138      43.8570      0.00000
    139      43.8570      0.00000
    140      44.2920      0.00000
    141      44.2920      0.00000
    142      44.5117      0.00000
    143      44.9068      0.00000
    144      45.0454      0.00000

 k-point     7 :       0.2500    0.2500    0.2500
  band No.  band energies     occupation
      1      -6.2121      1.00000
      2      -4.5518      1.00000
      3      -4.5518      1.00000
      4      -3.2373      1.00000
      5      -1.4796      1.00000
      6      -1.4796      1.00000
      7       0.1177      1.00000
      8       1.1853      1.00000
      9       1.1853      1.00000
     10       2.2156      1.00000
     11       2.3358      1.00000
     12       3.1013      1.00000
     13       3.1013      1.00000
     14       3.5687      1.00000
     15       5.5130      0.00000
     16       5.5130      0.00000
     17       6.4041      0.00000
     18       6.4578      0.00000
     19       6.4578      0.00000
     20       8.5557      0.00000
     21       8.7278      0.00000
     22       8.7278      0.00000
     23       9.7223      0.00000
     24       9.7223      0.00000
     25       9.9532      0.00000
     26      10.3437      0.00000
     27      10.3437      0.00000
     28      10.4333      0.00000
     29      11.7709      0.00000
     30      11.7709      0.00000
     31      12.4932      0.00000
     32      12.9436      0.00000
     33      12.9436      0.00000
     34      13.9379      0.00000
     35      14.0243      0.00000
     36      15.2391      0.00000
     37      15.3444      0.00000
     38      15.3444      0.00000
     39      15.7911      0.00000
     40      15.9851      0.00000
     41      15.9851      0.00000
     42      16.9537      0.00000
     43      17.3248      0.00000
     44      17.4853      0.00000
     45      17.4853      0.00000
     46      17.7634      0.00000
     47      18.5214      0.00000
     48      18.5214      0.00000
     49      19.4330      0.00000
     50      19.4330      0.00000
     51      19.4645      0.00000
     52      20.2130      0.00000
     53      20.2130      0.00000
     54      22.0323      0.00000
     55      22.0323      0.00000
     56      22.3020      0.00000
     57      22.3628      0.00000
     58      22.8180      0.00000
     59      22.8180      0.00000
     60      23.1673      0.00000
     61      23.2013      0.00000
     62      23.2013      0.00000
     63      24.0080      0.00000
     64      24.0080      0.00000
     65      24.0107      0.00000
     66      24.3961      0.00000
     67      24.6527      0.00000
     68      24.6527      0.00000
     69      24.7583      0.00000
     70      25.8970      0.00000
     71      25.8970      0.00000
     72      26.2929      0.00000
     73      26.5719      0.00000
     74      26.6852      0.00000
     75      26.6852      0.00000
     76      27.7323      0.00000
     77      27.7323      0.00000
     78      28.8221      0.00000
     79      28.9589      0.00000
     80      28.9589      0.00000
     81      29.6939      0.00000
     82      29.8500      0.00000
     83      29.8500      0.00000
     84      29.9737      0.00000
     85      30.3837      0.00000
     86      30.3837      0.00000
     87      31.3433      0.00000
     88      32.2662      0.00000
     89      32.2662      0.00000
     90      32.5141      0.00000
     91      32.9326      0.00000
     92      32.9326      0.00000
     93      33.3784      0.00000
     94      33.5690      0.00000
     95      33.5690      0.00000
     96      33.6394      0.00000
     97      34.1263      0.00000
     98      34.1962      0.00000
     99      34.1962      0.00000
    100      34.5975      0.00000
    101      34.8998      0.00000
    102      34.8998      0.00000
    103      35.6825      0.00000
    104      35.8467      0.00000
    105      35.8467      0.00000
    106      36.1650      0.00000
    107      36.4073      0.00000
    108      36.4073      0.00000
    109      37.0392      0.00000
    110      37.3809      0.00000
    111      37.3809      0.00000
    112      37.8102      0.00000
    113      37.8102      0.00000
    114      38.8983      0.00000
    115      39.2206      0.00000
    116      39.2206      0.00000
    117      39.2883      0.00000
    118      39.8579      0.00000
    119      39.8579      0.00000
    120      40.5416      0.00000
    121      40.5416      0.00000
    122      41.0913      0.00000
    123      41.1385      0.00000
    124      41.1385      0.00000
    125      41.6410      0.00000
    126      41.8842      0.00000
    127      41.8842      0.00000
    128      42.0244      0.00000
    129      42.8245      0.00000
    130      42.8245      0.00000
    131      42.9212      0.00000
    132      43.3076      0.00000
    133      43.3291      0.00000
    134      43.3291      0.00000
    135      43.7762      0.00000
    136      44.6967      0.00000
    137      44.7684      0.00000
    138      44.7684      0.00000
    139      45.2664      0.00000
    140      45.6491      0.00000
    141      45.6491      0.00000
    142      46.7209      0.00000
    143      46.7214      0.00000
    144      46.8343      0.00000

 k-point     8 :       0.5000    0.2500    0.2500
  band No.  band energies     occupation
      1      -5.7239      1.00000
      2      -5.2607      1.00000
      3      -4.4316      1.00000
      4      -3.2273      1.00000
      5      -1.8167      1.00000
      6      -1.1953      1.00000
      7      -0.4149      1.00000
      8       1.1964      1.00000
      9       1.7757      1.00000
     10       2.1335      1.00000
     11       2.5268      1.00000
     12       2.6304      1.00000
     13       3.0439      1.00000
     14       4.3946      1.00000
     15       4.9143      0.00000
     16       5.3037      0.00000
     17       6.9898      0.00000
     18       7.6035      0.00000
     19       7.9023      0.00000
     20       7.9578      0.00000
     21       7.9678      0.00000
     22       8.5179      0.00000
     23       9.5690      0.00000
     24       9.6002      0.00000
     25      10.0202      0.00000
     26      10.1889      0.00000
     27      10.2403      0.00000
     28      10.7862      0.00000
     29      11.6847      0.00000
     30      11.9127      0.00000
     31      12.4108      0.00000
     32      12.7579      0.00000
     33      12.7980      0.00000
     34      13.1955      0.00000
     35      14.2712      0.00000
     36      14.6181      0.00000
     37      14.8767      0.00000
     38      15.0522      0.00000
     39      15.4533      0.00000
     40      15.5043      0.00000
     41      16.0036      0.00000
     42      16.5472      0.00000
[...]
     37      14.2251      0.00000
     38      14.8921      0.00000
     39      14.8921      0.00000
     40      15.3118      0.00000
     41      16.1994      0.00000
     42      16.1994      0.00000
     43      16.2173      0.00000
     44      16.8839      0.00000
     45      18.1073      0.00000
     46      18.1073      0.00000
     47      18.2501      0.00000
     48      18.8130      0.00000
     49      19.0199      0.00000
     50      19.2550      0.00000
     51      19.2550      0.00000
     52      19.4820      0.00000
     53      20.0682      0.00000
     54      21.5456      0.00000
     55      21.5456      0.00000
     56      22.0202      0.00000
     57      22.3314      0.00000
     58      22.5248      0.00000
     59      22.6399      0.00000
     60      22.6399      0.00000
     61      23.6964      0.00000
     62      23.6964      0.00000
     63      23.7555      0.00000
     64      25.0329      0.00000
     65      25.2842      0.00000
     66      25.9243      0.00000
     67      25.9243      0.00000
     68      26.0808      0.00000
     69      26.9797      0.00000
     70      26.9797      0.00000
     71      27.1755      0.00000
     72      27.1898      0.00000
     73      27.3395      0.00000
     74      27.4976      0.00000
     75      27.4976      0.00000
     76      28.5244      0.00000
     77      28.7780      0.00000
     78      28.7780      0.00000
     79      29.2421      0.00000
     80      29.2428      0.00000
     81      29.4882      0.00000
     82      30.3616      0.00000
     83      30.3616      0.00000
     84      30.4028      0.00000
     85      30.4996      0.00000
     86      30.6971      0.00000
     87      30.6971      0.00000
     88      31.5049      0.00000
     89      32.0114      0.00000
     90      32.0114      0.00000
     91      32.1115      0.00000
     92      32.3803      0.00000
     93      32.7142      0.00000
     94      33.0289      0.00000
     95      33.0289      0.00000
     96      33.6169      0.00000
     97      33.6169      0.00000
     98      33.7281      0.00000
     99      33.7311      0.00000
    100      34.1556      0.00000
    101      34.9641      0.00000
    102      35.2153      0.00000
    103      35.2153      0.00000
    104      35.3154      0.00000
    105      35.6903      0.00000
    106      36.1576      0.00000
    107      36.2442      0.00000
    108      36.2442      0.00000
    109      36.8922      0.00000
    110      37.5076      0.00000
    111      37.5076      0.00000
    112      37.5171      0.00000
    113      37.8809      0.00000
    114      38.1652      0.00000
    115      38.1652      0.00000
    116      38.2664      0.00000
    117      39.0582      0.00000
    118      39.2326      0.00000
    119      39.2326      0.00000
    120      39.2341      0.00000
    121      39.6617      0.00000
    122      39.8062      0.00000
    123      39.8062      0.00000
    124      40.7982      0.00000
    125      41.0454      0.00000
    126      41.7442      0.00000
    127      41.7442      0.00000
    128      41.8308      0.00000
    129      42.1187      0.00000
    130      42.8407      0.00000
    131      42.8827      0.00000
    132      43.0207      0.00000
    133      43.0207      0.00000
    134      43.5097      0.00000
    135      44.1534      0.00000
    136      44.1534      0.00000
    137      44.3386      0.00000
    138      45.0276      0.00000
    139      45.0276      0.00000
    140      45.5312      0.00000
    141      45.5775      0.00000
    142      45.7242      0.00000
    143      45.7243      0.00000
    144      46.1885      0.00000

 k-point    10 :       0.5000    0.5000    0.5000
  band No.  band energies     occupation
      1      -4.9744      1.00000
      2      -4.9744      1.00000
      3      -4.9744      1.00000
      4      -3.4458      1.00000
      5      -1.9419      1.00000
      6      -1.9419      1.00000
      7      -1.9419      1.00000
      8       0.6748      1.00000
      9       3.3342      1.00000
     10       3.3342      1.00000
     11       3.3342      1.00000
     12       3.4546      1.00000
     13       3.4546      1.00000
     14       5.9132      0.00000
     15       5.9132      0.00000
     16       5.9132      0.00000
     17       6.2746      0.00000
     18       6.2746      0.00000
     19       6.2746      0.00000
     20       7.8707      0.00000
     21       7.8707      0.00000
     22       7.8707      0.00000
     23       8.6713      0.00000
     24       8.6713      0.00000
     25       9.7236      0.00000
     26       9.7260      0.00000
     27       9.7260      0.00000
     28       9.7260      0.00000
     29      12.5603      0.00000
     30      12.8291      0.00000
     31      12.8291      0.00000
     32      12.8291      0.00000
     33      15.2195      0.00000
     34      15.2195      0.00000
     35      15.2195      0.00000
     36      15.3443      0.00000
     37      15.3443      0.00000
     38      15.6718      0.00000
     39      15.6718      0.00000
     40      15.6718      0.00000
     41      16.1741      0.00000
     42      16.1741      0.00000
     43      16.1741      0.00000
     44      16.6617      0.00000
     45      16.7916      0.00000
     46      16.7916      0.00000
     47      16.7916      0.00000
     48      17.4480      0.00000
     49      17.4480      0.00000
     50      17.4480      0.00000
     51      17.7191      0.00000
     52      17.7191      0.00000
     53      18.9559      0.00000
     54      21.1696      0.00000
     55      21.1696      0.00000
     56      21.1696      0.00000
     57      24.6228      0.00000
     58      24.6553      0.00000
     59      24.6553      0.00000
     60      24.6553      0.00000
     61      25.1214      0.00000
     62      25.1214      0.00000
     63      25.1214      0.00000
     64      25.6789      0.00000
     65      26.2348      0.00000
     66      26.2348      0.00000
     67      26.2348      0.00000
     68      26.4187      0.00000
     69      26.4187      0.00000
     70      26.4223      0.00000
     71      26.4223      0.00000
     72      26.4223      0.00000
     73      26.7070      0.00000
     74      26.7070      0.00000
     75      26.7070      0.00000
     76      28.3340      0.00000
     77      28.3340      0.00000
     78      28.3340      0.00000
     79      29.5855      0.00000
     80      29.5855      0.00000
     81      30.3103      0.00000
     82      31.1277      0.00000
     83      31.1277      0.00000
     84      31.1277      0.00000
     85      31.3356      0.00000
     86      31.3356      0.00000
     87      31.3356      0.00000
     88      31.8517      0.00000
     89      31.8517      0.00000
     90      32.0249      0.00000
     91      32.0249      0.00000
     92      32.0249      0.00000
     93      32.4426      0.00000
     94      32.4426      0.00000
     95      32.4426      0.00000
     96      32.9226      0.00000
     97      32.9226      0.00000
     98      32.9226      0.00000
     99      33.8755      0.00000
    100      33.8755      0.00000
    101      33.8756      0.00000
    102      35.5386      0.00000
    103      36.3197      0.00000
    104      36.3197      0.00000
    105      36.3197      0.00000
    106      36.4288      0.00000
    107      36.4288      0.00000
    108      36.4288      0.00000
    109      36.9572      0.00000
    110      36.9572      0.00000
    111      36.9572      0.00000
    112      37.5118      0.00000
    113      37.5118      0.00000
    114      37.9413      0.00000
    115      37.9413      0.00000
    116      37.9413      0.00000
    117      38.2271      0.00000
    118      38.2641      0.00000
    119      38.2641      0.00000
    120      38.2641      0.00000
    121      39.7679      0.00000
    122      39.7679      0.00000
    123      39.7679      0.00000
    124      40.7015      0.00000
    125      40.7015      0.00000
    126      40.9024      0.00000
    127      41.5192      0.00000
    128      41.7336      0.00000
    129      41.7336      0.00000
    130      41.7336      0.00000
    131      41.8507      0.00000
    132      41.8507      0.00000
    133      41.8507      0.00000
    134      42.4832      0.00000
    135      42.4832      0.00000
    136      42.4832      0.00000
    137      45.4694      0.00000
    138      45.4694      0.00000
    139      45.7191      0.00000
    140      45.7191      0.00000
    141      45.7191      0.00000
    142      47.1920      0.00000
    143      47.1923      0.00000
    144      47.1927      0.00000


--------------------------------------------------------------------------------------------------------


 soft charge-density along one line, spin component           1
         0         1         2         3         4         5         6         7         8         9
 total charge-density along one line

 soft charge-density along one line, spin component           2
         0         1         2         3         4         5         6         7         8         9
 total charge-density along one line

 pseudopotential strength for first ion, spin component:           1
 18.576  25.916  -0.002   0.002   0.002  -0.003   0.003   0.003
 25.916  36.163  -0.002   0.002   0.002  -0.004   0.004   0.004
 -0.002  -0.002   4.196  -0.001  -0.001   7.820  -0.002  -0.002
  0.002   0.002  -0.001   4.196   0.001  -0.002   7.820   0.002
  0.002   0.002  -0.001   0.001   4.196  -0.002   0.002   7.820
 -0.003  -0.004   7.820  -0.002  -0.002  14.582  -0.003  -0.003
  0.003   0.004  -0.002   7.820   0.002  -0.003  14.582   0.003
  0.003   0.004  -0.002   0.002   7.820  -0.003   0.003  14.582
 pseudopotential strength for first ion, spin component:           2
 18.576  25.916  -0.002   0.002   0.002  -0.003   0.003   0.003
 25.916  36.163  -0.002   0.002   0.002  -0.004   0.004   0.004
 -0.002  -0.002   4.196  -0.001  -0.001   7.819  -0.002  -0.002
  0.002   0.002  -0.001   4.196   0.001  -0.002   7.819   0.002
  0.002   0.002  -0.001   0.001   4.196  -0.002   0.002   7.819
 -0.003  -0.004   7.819  -0.002  -0.002  14.582  -0.003  -0.003
  0.003   0.004  -0.002   7.819   0.002  -0.003  14.582   0.003
  0.003   0.004  -0.002   0.002   7.819  -0.003   0.003  14.582
 total augmentation occupancy for first ion, spin component:           1
  4.798  -1.681   0.507  -0.507  -0.507  -0.158   0.158   0.158
 -1.681   0.787  -0.326   0.326   0.326   0.078  -0.078  -0.078
  0.507  -0.326   2.277   0.368   0.368  -0.469  -0.098  -0.098
 -0.507   0.326   0.368   2.277  -0.368  -0.098  -0.469   0.098
 -0.507   0.326   0.368  -0.368   2.277  -0.098   0.098  -0.469
 -0.158   0.078  -0.469  -0.098  -0.098   0.105   0.025   0.025
  0.158  -0.078  -0.098  -0.469   0.098   0.025   0.105  -0.025
  0.158  -0.078  -0.098   0.098  -0.469   0.025  -0.025   0.105
 total augmentation occupancy for first ion, spin component:           2
  0.000  -0.000   0.000  -0.000  -0.000  -0.000   0.000   0.000
 -0.000   0.000  -0.000   0.000   0.000   0.000  -0.000  -0.000
  0.000  -0.000   0.000  -0.000  -0.000  -0.000   0.000   0.000
 -0.000   0.000  -0.000   0.000   0.000   0.000  -0.000  -0.000
 -0.000   0.000  -0.000   0.000   0.000   0.000  -0.000  -0.000
 -0.000   0.000  -0.000   0.000   0.000   0.000   0.000   0.000
  0.000  -0.000   0.000  -0.000  -0.000   0.000   0.000  -0.000
  0.000  -0.000   0.000  -0.000  -0.000   0.000  -0.000   0.000


------------------------ aborting loop because EDIFF is reached ----------------------------------------





 total charge

# of ion       s       p       d       tot
------------------------------------------
    1        0.806   0.805   0.000   1.611
    2        0.759   0.901   0.000   1.661
    3        0.806   0.805   0.000   1.611
    4        0.759   0.901   0.000   1.661
    5        0.806   0.805   0.000   1.611
    6        0.759   0.901   0.000   1.661
    7        0.806   0.805   0.000   1.611
--------------------------------------------------
tot          5.502   5.925   0.000  11.427



 magnetization (x)

# of ion       s       p       d       tot
------------------------------------------
    1        0.000   0.000   0.000   0.000
    2        0.000   0.000   0.000   0.000
    3        0.000   0.000   0.000   0.000
    4        0.000   0.000   0.000   0.000
    5        0.000   0.000   0.000   0.000
    6        0.000   0.000   0.000   0.000
    7        0.000   0.000   0.000   0.000
--------------------------------------------------
tot          0.000   0.000   0.000   0.000

    CHARGE:  cpu time      0.0373: real time      0.0373
    FORLOC:  cpu time      0.0003: real time      0.0003
    FORNL :  cpu time      0.0351: real time      0.0351
    STRESS:  cpu time      0.2408: real time      0.2408
    FORCOR:  cpu time      0.0151: real time      0.0152
    FORHAR:  cpu time      0.0018: real time      0.0018
    MIXING:  cpu time      0.0004: real time      0.0004
    OFIELD:  cpu time      0.0001: real time      0.0001

  FORCE on cell =-STRESS in cart. coord.  units (eV):
  Direction    XX          YY          ZZ          XY          YZ          ZX
  --------------------------------------------------------------------------------------
  Alpha Z    10.25816    10.25816    10.25816
  Ewald    -249.96432  -249.96432  -249.96432    -0.00000    -0.00000    -0.00000
  Hartree    21.94608    21.94608    21.94608    -0.00000    -0.00000    -0.00000
  E(xc)     -86.86166   -86.86166   -86.86166    -0.00000    -0.00000    -0.00000
  Local    -117.75971  -117.75971  -117.75971    -0.00000     0.00000    -0.00000
  n-local   270.68899   271.36620   270.02350    -0.02765    -0.28562    -0.17617
  augment   -41.59399   -41.59399   -41.59399    -0.00000    -0.00000    -0.00000
  Kinetic   181.06381   188.32295   197.39060     1.50758     0.94625     0.37212
  Fock        0.00000     0.00000     0.00000     0.00000     0.00000     0.00000
  -------------------------------------------------------------------------------------
  Total      -4.35676    -4.35676    -4.35676    -0.00000     0.00000    -0.00000
  in kB     -43.41036   -43.41036   -43.41036    -0.00000     0.00000    -0.00000
  external pressure =      -43.41 kB  Pullay stress =        0.00 kB


 VOLUME and BASIS-vectors are now :
 -----------------------------------------------------------------------------
  energy-cutoff  :      500.00
  volume of cell :      160.80
      direct lattice vectors                 reciprocal lattice vectors
     5.437848350  0.000000000  0.000000000     0.183896265  0.000000000  0.000000000
     0.000000000  5.437848350  0.000000000     0.000000000  0.183896265  0.000000000
     0.000000000  0.000000000  5.437848350     0.000000000  0.000000000  0.183896265

  length of vectors
     5.437848350  5.437848350  5.437848350     0.183896265  0.183896265  0.183896265


 FORCES acting on ions
    electron-ion (+dipol)            ewald-force                    non-local-force                 convergence-correction
 -----------------------------------------------------------------------------------------------
   -.186E+02 0.186E+02 -.186E+02   0.175E+02 -.175E+02 0.175E+02   0.113E+01 -.113E+01 0.113E+01   0.872E-03 -.872E-03 0.872E-03
   -.951E-13 -.663E-15 0.758E-14   0.000E+00 -.178E-13 0.711E-14   0.215E-16 0.176E-17 -.250E-16   -.305E-14 -.415E-15 -.139E-14
   -.186E+02 -.186E+02 0.186E+02   0.175E+02 0.175E+02 -.175E+02   0.113E+01 0.113E+01 -.113E+01   0.872E-03 0.872E-03 -.872E-03
   -.148E-12 0.853E-14 -.890E-15   -.355E-14 0.711E-14 -.142E-13   0.209E-16 0.987E-17 0.195E-17   -.178E-14 -.141E-14 -.651E-15
   0.186E+02 0.186E+02 0.186E+02   -.175E+02 -.175E+02 -.175E+02   -.113E+01 -.113E+01 -.113E+01   -.872E-03 -.872E-03 -.872E-03
   0.451E-13 -.422E-14 -.128E-12   -.711E-14 0.000E+00 -.711E-14   -.338E-16 0.496E-17 0.167E-16   0.131E-14 0.243E-14 0.134E-14
   0.186E+02 -.186E+02 -.186E+02   -.175E+02 0.175E+02 0.175E+02   -.113E+01 0.113E+01 0.113E+01   -.872E-03 0.872E-03 0.872E-03
 -----------------------------------------------------------------------------------------------
   0.285E-08 0.285E-08 -.782E-09   -.711E-14 0.000E+00 0.000E+00   -.444E-15 -.222E-15 -.444E-15   -.244E-14 0.317E-14 -.628E-15


 POSITION                                       TOTAL-FORCE (eV/Angst)
 -----------------------------------------------------------------------------------
      1.38308      4.05477      1.38308         0.010993     -0.010993      0.010993
      0.00000      0.00000      2.71892        -0.000000      0.000000     -0.000000
      1.38308      1.38308      4.05477         0.010993      0.010993     -0.010993
      0.00000      2.71892      0.00000        -0.000000      0.000000     -0.000000
      4.05477      4.05477      4.05477        -0.010993     -0.010993     -0.010993
      2.71892      0.00000      0.00000         0.000000      0.000000     -0.000000
      4.05477      1.38308      1.38308        -0.010993      0.010993      0.010993
 -----------------------------------------------------------------------------------
    total drift:                                0.000000      0.000000     -0.000000


--------------------------------------------------------------------------------------------------------



  FREE ENERGIE OF THE ION-ELECTRON SYSTEM (eV)
  ---------------------------------------------------
  free  energy   TOTEN  =       -37.02196982 eV

  energy  without entropy=      -37.01532636  energy(sigma->0) =      -37.01864809



--------------------------------------------------------------------------------------------------------


    POTLOK:  cpu time      0.2277: real time      0.2280


--------------------------------------------------------------------------------------------------------


 writing wavefunctions
     LOOP+:  cpu time     65.7691: real time     66.0660
    4ORBIT:  cpu time      0.0000: real time      0.0000



 total charge

# of ion       s       p       d       tot
------------------------------------------
    1        0.806   0.805   0.000   1.611
    2        0.759   0.901   0.000   1.661
    3        0.806   0.805   0.000   1.611
    4        0.759   0.901   0.000   1.661
    5        0.806   0.805   0.000   1.611
    6        0.759   0.901   0.000   1.661
    7        0.806   0.805   0.000   1.611
--------------------------------------------------
tot          5.502   5.925   0.000  11.427



 magnetization (x)

# of ion       s       p       d       tot
------------------------------------------
    1        0.000   0.000   0.000   0.000
    2        0.000   0.000   0.000   0.000
    3        0.000   0.000   0.000   0.000
    4        0.000   0.000   0.000   0.000
    5        0.000   0.000   0.000   0.000
    6        0.000   0.000   0.000   0.000
    7        0.000   0.000   0.000   0.000
--------------------------------------------------
tot          0.000   0.000   0.000   0.000


 total amount of memory used by VASP MPI-rank0    40713. kBytes
=======================================================================

   base      :      30000. kBytes
   nonl-proj :       3140. kBytes
   fftplans  :        508. kBytes
   grid      :       5640. kBytes
   one-center:         43. kBytes
   wavefun   :       1382. kBytes



 General timing and accounting informations for this job:
 ========================================================

                  Total CPU time used (sec):       72.488
                            User time (sec):       69.267
                          System time (sec):        3.221
                         Elapsed time (sec):       74.576

                   Maximum memory used (kb):      154668.
                   Average memory used (kb):          N/A

                          Minor page faults:       131977
                          Major page faults:            0
                 Voluntary context switches:         3966
