<?xml version="1.0" encoding="ISO-8859-1"?>
<modeling>
 <generator>
  <i name="program" type="string">vasp </i>
  <i name="version" type="string">6.3.0  </i>
  <i name="subversion" type="string">20Jan22 (build Feb 02 2022 18:12:33) complex                          parallel </i>
  <i name="platform" type="string">LinuxIFC </i>
  <i name="date" type="string">2022 04 15 </i>
  <i name="time" type="string">08:42:10 </i>
 </generator>
 <incar>
  <i type="string" name="PREC">Accurate</i>
  <i type="string" name="ALGO">Fast</i>
  <i type="int" name="ISPIN">     2</i>
  <i type="int" name="NELM">   200</i>
  <i type="int" name="NELMIN">     6</i>
  <i name="EDIFF">      0.00001000</i>
  <i type="int" name="NSW">     0</i>
  <i name="ENCUT">    500.00000000</i>
  <i name="ENAUG">   1360.00000000</i>
  <v name="MAGMOM">      0.00100000      0.00000000      0.00100000      0.00000000      0.00100000      0.00000000      0.00100000</v>
  <i name="NELECT">     28.00000000</i>
  <i type="logical" name="LREAL"> F  </i>
  <i type="int" name="ISMEAR">     0</i>
  <i name="SIGMA">      0.05000000</i>
  <i type="logical" name="LWAVE"> T  </i>
  <i type="logical" name="LCHARG"> T  </i>
  <i type="logical" name="LVTOT"> T  </i>
  <i type="int" name="LORBIT">    11</i>
  <i type="logical" name="LELF"> F  </i>
  <i type="logical" name="LASPH"> T  </i>
  <i type="logical" name="LAECHG"> F  </i>
  <i type="string" name="GGA">Ps</i>
  <i type="logical" name="LMIXTAU"> T  </i>
 </incar>
 <primitive_cell>
  <structure name="primitive_cell" >
   <crystal>
    <varray name="basis" >
     <v>       5.43784835       0.00000000       0.00000000 </v>
     <v>       0.00000000       5.43784835       0.00000000 </v>
     <v>       0.00000000       0.00000000       5.43784835 </v>
    </varray>
    <i name="volume">    160.79823434 </i>
    <varray name="rec_basis" >
     <v>       0.18389626       0.00000000       0.00000000 </v>
     <v>       0.00000000       0.18389626       0.00000000 </v>
     <v>       0.00000000       0.00000000       0.18389626 </v>
    </varray>
   </crystal>
   <varray name="positions" >
    <v>       0.25434293       0.74565707       0.25434293 </v>
    <v>       0.00000000       0.00000000       0.50000000 </v>
    <v>       0.25434293       0.25434293       0.74565707 </v>
    <v>       0.00000000       0.50000000       0.00000000 </v>
    <v>       0.74565707       0.74565707       0.74565707 </v>
    <v>       0.50000000       0.00000000       0.00000000 </v>
    <v>       0.74565707       0.25434293       0.25434293 </v>
   </varray>
  </structure>
  <varray name="primitive_index" >
   <v type="int" >        1 </v>
   <v type="int" >        2 </v>
   <v type="int" >        3 </v>
   <v type="int" >        4 </v>
   <v type="int" >        5 </v>
   <v type="int" >        6 </v>
   <v type="int" >        7 </v>
  </varray>
 </primitive_cell>
 <kpoints>
  <generation param="Gamma">
   <v type="int" name="divisions">       4        4        4 </v>
   <v name="usershift">      0.00000000       0.00000000       0.00000000 </v>
   <v name="genvec1">      0.25000000       0.00000000       0.00000000 </v>
   <v name="genvec2">      0.00000000       0.25000000       0.00000000 </v>
   <v name="genvec3">      0.00000000       0.00000000       0.25000000 </v>
   <v name="shift">      0.00000000       0.00000000       0.00000000 </v>
  </generation>
  <varray name="kpointlist" >
   <v>       0.00000000       0.00000000       0.00000000 </v>
   <v>       0.25000000       0.00000000       0.00000000 </v>
   <v>       0.50000000       0.00000000       0.00000000 </v>
   <v>       0.25000000       0.25000000       0.00000000 </v>
   <v>       0.50000000       0.25000000       0.00000000 </v>
   <v>       0.50000000       0.50000000       0.00000000 </v>
   <v>       0.25000000       0.25000000       0.25000000 </v>
   <v>       0.50000000       0.25000000       0.25000000 </v>
   <v>       0.50000000       0.50000000       0.25000000 </v>
   <v>       0.50000000       0.50000000       0.50000000 </v>
  </varray>
  <varray name="weights" >
   <v>       0.01562500 </v>
   <v>       0.09375000 </v>
   <v>       0.04687500 </v>
   <v>       0.18750000 </v>
   <v>       0.18750000 </v>
   <v>       0.04687500 </v>
   <v>       0.12500000 </v>
   <v>       0.18750000 </v>
   <v>       0.09375000 </v>
   <v>       0.01562500 </v>
  </varray>
 </kpoints>
 <parameters>
  <separator name="general" >
   <i type="string" name="SYSTEM">unknown system</i>
   <i type="logical" name="LCOMPAT"> F  </i>
  </separator>
  <separator name="electronic" >
   <i type="string" name="PREC">accura</i>
   <i name="ENMAX">    500.00000000</i>
   <i name="ENAUG">   1360.00000000</i>
   <i name="EDIFF">      0.00001000</i>
   <i type="int" name="IALGO">    68</i>
   <i type="int" name="IWAVPR">    10</i>
   <i type="int" name="NBANDS">   144</i>
   <i type="int" name="NBANDSLOW">    -1</i>
   <i type="int" name="NBANDSHIGH">    -1</i>
   <i name="NELECT">     28.00000000</i>
   <i type="int" name="TURBO">     0</i>
   <i type="int" name="IRESTART">     0</i>
   <i type="int" name="NREBOOT">     0</i>
   <i type="int" name="NMIN">     0</i>
   <i name="EREF">      0.00000000</i>
   <separator name="electronic smearing" >
    <i type="int" name="ISMEAR">     0</i>
    <i name="SIGMA">      0.05000000</i>
    <i name="KSPACING">      0.50000000</i>
    <i type="logical" name="KGAMMA"> T  </i>
    <i type="logical" name="KBLOWUP"> T  </i>
   </separator>
   <separator name="electronic projectors" >
    <i type="logical" name="LREAL"> F  </i>
    <v name="ROPT">      0.00000000</v>
    <i type="int" name="LMAXPAW">  -100</i>
    <i type="int" name="LMAXMIX">     2</i>
    <i type="logical" name="NLSPLINE"> F  </i>
   </separator>
   <separator name="electronic startup" >
    <i type="int" name="ISTART">     0</i>
    <i type="int" name="ICHARG">     2</i>
    <i type="int" name="INIWAV">     1</i>
   </separator>
   <separator name="electronic spin" >
    <i type="int" name="ISPIN">     2</i>
    <i type="logical" name="LNONCOLLINEAR"> F  </i>
    <v name="MAGMOM">      0.00100000      0.00000000      0.00100000      0.00000000      0.00100000      0.00000000      0.00100000</v>
    <i name="NUPDOWN">     -1.00000000</i>
    <i type="logical" name="LSORBIT"> F  </i>
    <v name="SAXIS">      0.00000000      0.00000000      1.00000000</v>
    <i type="logical" name="LSPIRAL"> F  </i>
    <v name="QSPIRAL">      0.00000000      0.00000000      0.00000000</v>
    <i type="logical" name="LZEROZ"> F  </i>
   </separator>
   <separator name="electronic exchange-correlation" >
    <i type="logical" name="LASPH"> T  </i>
    <i type="logical" name="LMETAGGA"> F  </i>
   </separator>
   <separator name="electronic convergence" >
    <i type="int" name="NELM">   200</i>
    <i type="int" name="NELMDL">    -5</i>
    <i type="int" name="NELMIN">     6</i>
    <i name="ENINI">    500.00000000</i>
    <separator name="electronic convergence detail" >
     <i type="logical" name="LDIAG"> T  </i>
     <i type="logical" name="LSUBROT"> F  </i>
     <i name="WEIMIN">      0.00000000</i>
     <i name="EBREAK">      0.00000002</i>
     <i name="DEPER">      0.30000000</i>
     <i type="int" name="NRMM">     4</i>
     <i name="TIME">      0.40000000</i>
    </separator>
   </separator>
   <separator name="electronic mixer" >
    <i name="AMIX">      0.40000000</i>
    <i name="BMIX">      1.00000000</i>
    <i name="AMIN">      0.10000000</i>
    <i name="AMIX_MAG">      1.60000000</i>
    <i name="BMIX_MAG">      1.00000000</i>
    <separator name="electronic mixer details" >
     <i type="int" name="IMIX">     4</i>
     <i type="logical" name="MIXFIRST"> F  </i>
     <i type="int" name="MAXMIX">   -45</i>
     <i name="WC">    100.00000000</i>
     <i type="int" name="INIMIX">     1</i>
     <i type="int" name="MIXPRE">     1</i>
     <i type="int" name="MREMOVE">     5</i>
    </separator>
   </separator>
   <separator name="electronic dipolcorrection" >
    <i type="logical" name="LDIPOL"> F  </i>
    <i type="logical" name="LMONO"> F  </i>
    <i type="int" name="IDIPOL">     0</i>
    <i name="EPSILON">      1.00000000</i>
    <v name="DIPOL">   -100.00000000   -100.00000000   -100.00000000</v>
    <i name="EFIELD">      0.00000000</i>
   </separator>
  </separator>
  <separator name="grids" >
   <i type="int" name="NGX">    40</i>
   <i type="int" name="NGY">    40</i>
   <i type="int" name="NGZ">    40</i>
   <i type="int" name="NGXF">    80</i>
   <i type="int" name="NGYF">    80</i>
   <i type="int" name="NGZF">    80</i>
   <i type="logical" name="ADDGRID"> F  </i>
  </separator>
  <separator name="ionic" >
   <i type="int" name="NSW">     0</i>
   <i type="int" name="IBRION">    -1</i>
   <i type="int" name="MDALGO">     0</i>
   <i type="int" name="ISIF">     2</i>
   <i name="PSTRESS">      0.00000000</i>
   <i name="EDIFFG">      0.00010000</i>
   <i type="int" name="NFREE">     0</i>
   <i name="POTIM">      0.50000000</i>
   <i name="SMASS">     -3.00000000</i>
   <i name="SCALEE">      1.00000000</i>
  </separator>
  <separator name="ionic md" >
   <i name="TEBEG">      0.00010000</i>
   <i name="TEEND">      0.00010000</i>
   <i type="int" name="NBLOCK">     1</i>
   <i type="int" name="KBLOCK">     1</i>
   <i type="int" name="NPACO">   256</i>
   <i name="APACO">     10.00000000</i>
  </separator>
  <separator name="symmetry" >
   <i type="int" name="ISYM">     2</i>
   <i name="SYMPREC">      0.00001000</i>
  </separator>
  <separator name="dos" >
   <i type="int" name="LORBIT">    11</i>
   <v name="RWIGS">     -1.00000000</v>
   <i type="int" name="NEDOS">   301</i>
   <i name="EMIN">     10.00000000</i>
   <i name="EMAX">    -10.00000000</i>
   <i name="EFERMI">      0.00000000</i>
  </separator>
  <separator name="writing" >
   <i type="int" name="NWRITE">     2</i>
   <i type="logical" name="LWAVE"> T  </i>
   <i type="logical" name="LDOWNSAMPLE"> F  </i>
   <i type="logical" name="LCHARG"> T  </i>
   <i type="logical" name="LPARD"> F  </i>
   <i type="logical" name="LVTOT"> T  </i>
   <i type="logical" name="LVHAR"> F  </i>
   <i type="logical" name="LELF"> F  </i>
   <i type="logical" name="LOPTICS"> F  </i>
   <v name="STM">      0.00000000      0.00000000      0.00000000      0.00000000      0.00000000      0.00000000      0.00000000</v>
  </separator>
  <separator name="performance" >
   <i type="int" name="NPAR">   144</i>
   <i type="int" name="NSIM">     4</i>
   <i type="int" name="NBLK">    -1</i>
   <i type="logical" name="LPLANE"> T  </i>
   <i type="logical" name="LSCALAPACK"> T  </i>
   <i type="logical" name="LSCAAWARE"> T  </i>
   <i type="logical" name="LSCALU"> F  </i>
   <i type="logical" name="LASYNC"> F  </i>
   <i type="logical" name="LORBITALREAL"> F  </i>
  </separator>
  <separator name="miscellaneous" >
   <i type="int" name="IDIOT">     3</i>
   <i type="int" name="PHON_NSTRUCT">    -1</i>
   <i type="logical" name="LMUSIC"> F  </i>
   <v name="POMASS">     28.08500000</v>
   <v name="DARWINR">      0.00000000</v>
   <v name="DARWINV">      1.00000000</v>
   <i type="logical" name="LCORR"> T  </i>
  </separator>
  <i type="logical" name="GGA_COMPAT"> T  </i>
  <i type="logical" name="LBERRY"> F  </i>
  <i type="int" name="ICORELEVEL">     0</i>
  <i type="logical" name="LDAU"> F  </i>
  <i type="int" name="I_CONSTRAINED_M">     0</i>
  <separator name="electronic exchange-correlation" >
   <i type="string" name="GGA">PS</i>
   <i type="int" name="VOSKOWN">     0</i>
   <i type="logical" name="LHFCALC"> F  </i>
   <i type="string" name="PRECFOCK"></i>
   <i type="logical" name="LSYMGRAD"> F  </i>
   <i type="logical" name="LHFONE"> F  </i>
   <i type="logical" name="LRHFCALC"> F  </i>
   <i type="logical" name="LTHOMAS"> F  </i>
   <i type="logical" name="LMODELHF"> F  </i>
   <i type="logical" name="LFOCKACE"> F  </i>
   <i name="ENCUT4O">     -1.00000000</i>
   <i type="int" name="EXXOEP">     0</i>
   <i type="int" name="FOURORBIT">     0</i>
   <i name="AEXX">      0.00000000</i>
   <i name="HFALPHA">      0.00000000</i>
   <i name="MCALPHA">      0.00000000</i>
   <i name="ALDAX">      1.00000000</i>
   <i name="AGGAX">      1.00000000</i>
   <i name="ALDAC">      1.00000000</i>
   <i name="AGGAC">      1.00000000</i>
   <i type="int" name="NKREDX">     1</i>
   <i type="int" name="NKREDY">     1</i>
   <i type="int" name="NKREDZ">     1</i>
   <i type="logical" name="SHIFTRED"> F  </i>
   <i type="logical" name="ODDONLY"> F  </i>
   <i type="logical" name="EVENONLY"> F  </i>
   <i type="int" name="LMAXFOCK">     0</i>
   <i type="int" name="NMAXFOCKAE">     0</i>
   <i type="logical" name="LFOCKAEDFT"> F  </i>
   <i name="HFSCREEN">      0.00000000</i>
   <i name="HFSCREENC">      0.00000000</i>
   <i type="int" name="NBANDSGWLOW">     0</i>
  </separator>
  <separator name="vdW DFT" >
   <i type="logical" name="LUSE_VDW"> F  </i>
   <i name="Zab_VDW">     -0.84910000</i>
   <i name="PARAM1">      0.12340000</i>
   <i name="PARAM2">      1.00000000</i>
   <i name="PARAM3">      0.00000000</i>
  </separator>
  <separator name="model GW" >
   <i type="int" name="MODEL_GW">     0</i>
   <i name="MODEL_EPS0">     13.78270580</i>
   <i name="MODEL_ALPHA">      1.00000000</i>
  </separator>
  <separator name="linear response parameters" >
   <i type="logical" name="LEPSILON"> F  </i>
   <i type="logical" name="LRPA"> F  </i>
   <i type="logical" name="LNABLA"> F  </i>
   <i type="logical" name="LVEL"> F  </i>
   <i name="CSHIFT">      0.10000000</i>
   <i name="OMEGAMAX">     -1.00000000</i>
   <i name="DEG_THRESHOLD">      0.00200000</i>
   <i name="RTIME">     -0.10000000</i>
   <i name="WPLASMAI">      0.00000000</i>
   <v name="DFIELD">      0.00000000      0.00000000      0.00000000</v>
   <v name="WPLASMA">      0.00000000      0.00000000      0.00000000      0.00000000      0.00000000      0.00000000      0.00000000      0.00000000      0.00000000</v>
  </separator>
  <separator name="orbital magnetization" >
   <i type="logical" name="NUCIND"> F  </i>
   <v name="MAGPOS">      0.00000000      0.00000000      0.00000000</v>
   <i type="logical" name="LNICSALL"> T  </i>
   <i type="logical" name="ORBITALMAG"> F  </i>
   <i type="logical" name="LMAGBLOCH"> F  </i>
   <i type="logical" name="LCHIMAG"> F  </i>
   <i type="logical" name="LGAUGE"> T  </i>
   <i type="int" name="MAGATOM">     0</i>
   <v name="MAGDIPOL">      0.00000000      0.00000000      0.00000000</v>
   <v name="AVECCONST">      0.00000000      0.00000000      0.00000000</v>
  </separator>
  <separator name="response functions" >
   <i type="logical" name="LFINITE_TEMPERATURE"> F  </i>
   <i type="logical" name="LADDER"> F  </i>
   <i type="logical" name="LRPAFORCE"> F  </i>
   <i type="logical" name="LFXC"> F  </i>
   <i type="logical" name="LHARTREE"> T  </i>
   <i type="int" name="IBSE">     0</i>
   <v type="int" name="KPOINT">    -1     0     0     0</v>
   <i type="logical" name="LTCTC"> F  </i>
   <i type="logical" name="LTCTE"> F  </i>
   <i type="logical" name="LTETE"> F  </i>
   <i type="logical" name="LTRIPLET"> F  </i>
   <i type="logical" name="LFXCEPS"> F  </i>
   <i type="logical" name="LFXHEG"> F  </i>
   <i type="int" name="NATURALO">     2</i>
   <i type="logical" name="LHOLEGF"> F  </i>
   <i type="logical" name="L2ORDER"> F  </i>
   <i type="logical" name="LDMP1"> F  </i>
   <i type="logical" name="LMP2LT"> F  </i>
   <i type="logical" name="LSMP2LT"> F  </i>
   <i type="logical" name="LGWLF"> F  </i>
   <i name="ENCUTGW">     -2.00000000</i>
   <i name="ENCUTGWSOFT">     -2.00000000</i>
   <i name="ENCUTLF">     -1.00000000</i>
   <i type="logical" name="LESF_SPLINES"> F  </i>
   <i type="int" name="LMAXMP2">    -1</i>
   <i name="SCISSOR">      0.00000000</i>
   <i type="int" name="NOMEGA">     0</i>
   <i type="int" name="NOMEGAR">     0</i>
   <i type="int" name="NBANDSGW">    -1</i>
   <i type="int" name="NBANDSO">    -1</i>
   <i type="int" name="NBANDSV">    -1</i>
   <i type="int" name="NELMGW">     1</i>
   <i type="int" name="NELMHF">     1</i>
   <i type="int" name="DIM">     3</i>
   <i type="int" name="IESPILON">     4</i>
   <i type="int" name="ANTIRES">     0</i>
   <i name="OMEGAMAX">    -30.00000000</i>
   <i name="OMEGAMIN">    -30.00000000</i>
   <i name="OMEGATL">   -200.00000000</i>
   <i type="int" name="OMEGAGRID">     0</i>
   <i name="CSHIFT">     -0.10000000</i>
   <i type="logical" name="LSELFENERGY"> F  </i>
   <i type="logical" name="LSPECTRAL"> F  </i>
   <i type="logical" name="LSPECTRALGW"> F  </i>
   <i type="logical" name="LSINGLES"> F  </i>
   <i type="logical" name="LFERMIGW"> F  </i>
   <i type="logical" name="ODDONLYGW"> F  </i>
   <i type="logical" name="EVENONLYGW"> F  </i>
   <i type="int" name="NKREDLFX">     1</i>
   <i type="int" name="NKREDLFY">     1</i>
   <i type="int" name="NKREDLFZ">     1</i>
   <i type="int" name="MAXMEM">  2800</i>
   <i type="int" name="TELESCOPE">     0</i>
   <i type="int" name="NTAUPAR">    -1</i>
   <i type="int" name="NOMEGAPAR">    -1</i>
   <i name="DAMP_NEWTON">      0.80000001</i>
   <i name="LAMBDA">      1.00000000</i>
  </separator>
  <separator name="External order field" >
   <i name="OFIELD_KAPPA">      0.00000000</i>
   <v name="OFIELD_K">      0.00000000      0.00000000      0.00000000</v>
   <i name="OFIELD_Q6_NEAR">      0.00000000</i>
   <i name="OFIELD_Q6_FAR">      0.00000000</i>
   <i name="OFIELD_A">      0.00000000</i>
  </separator>
  <separator name="optional k-points parameters" >
   <i type="int" name="KPOINTS_OPT_MODE">     1</i>
   <i type="logical" name="LKPOINTS_OPT"> F  </i>
  </separator>
 </parameters>
 <atominfo>
  <atoms>       7 </atoms>
  <types>       1 </types>
  <array name="atoms" >
   <dimension dim="1">ion</dimension>
   <field type="string">element</field>
   <field type="int">atomtype</field>
   <set>
    <rc><c>Si</c><c>   1</c></rc>
    <rc><c>Si</c><c>   1</c></rc>
    <rc><c>Si</c><c>   1</c></rc>
    <rc><c>Si</c><c>   1</c></rc>
    <rc><c>Si</c><c>   1</c></rc>
    <rc><c>Si</c><c>   1</c></rc>
    <rc><c>Si</c><c>   1</c></rc>
   </set>
  </array>
  <array name="atomtypes" >
   <dimension dim="1">type</dimension>
   <field type="int">atomspertype</field>
   <field type="string">element</field>
   <field>mass</field>
   <field>valence</field>
   <field type="string">pseudopotential</field>
   <set>
    <rc><c>   7</c><c>Si</c><c>     28.08500000</c><c>      4.00000000</c><c>  PAW_PBE Si 05Jan2001                  </c></rc>
   </set>
  </array>
 </atominfo>
 <structure name="initialpos" >
  <crystal>
   <varray name="basis" >
    <v>       5.43784835       0.00000000       0.00000000 </v>
    <v>       0.00000000       5.43784835       0.00000000 </v>
    <v>       0.00000000       0.00000000       5.43784835 </v>
   </varray>
   <i name="volume">    160.79823434 </i>
   <varray name="rec_basis" >
    <v>       0.18389626       0.00000000       0.00000000 </v>
    <v>       0.00000000       0.18389626       0.00000000 </v>
    <v>       0.00000000       0.00000000       0.18389626 </v>
   </varray>
  </crystal>
  <varray name="positions" >
   <v>       0.25434293       0.74565707       0.25434293 </v>
   <v>       0.00000000       0.00000000       0.50000000 </v>
   <v>       0.25434293       0.25434293       0.74565707 </v>
   <v>       0.00000000       0.50000000       0.00000000 </v>
   <v>       0.74565707       0.74565707       0.74565707 </v>
   <v>       0.50000000       0.00000000       0.00000000 </v>
   <v>       0.74565707       0.25434293       0.25434293 </v>
  </varray>
 </structure>
 <calculation>
  <scstep>
   <time name="dav">    5.21    5.21</time>
   <time name="total">    5.44    5.45</time>
   <energy>
    <i name="alphaZ">     10.25815623 </i>
    <i name="ewald">   -749.89179359 </i>
    <i name="hartreedc">    -55.71548111 </i>
    <i name="XCdc">    -62.61623131 </i>
    <i name="pawpsdc">    612.34974622 </i>
    <i name="pawaedc">   -491.33201668 </i>
    <i name="eentropy">     -0.00786853 </i>
    <i name="bandstr">     -0.20405984 </i>
    <i name="atom">    718.02812073 </i>
    <i name="e_fr_energy">    -19.13142788 </i>
    <i name="e_wo_entrp">    -19.12355935 </i>
    <i name="e_0_energy">    -19.12749362 </i>
   </energy>
  </scstep>
  <scstep>
   <time name="dav">   12.38   12.39</time>
   <time name="total">   12.38   12.39</time>
   <energy>
    <i name="e_fr_energy">    -37.75187588 </i>
    <i name="e_wo_entrp">    -37.74160554 </i>
    <i name="e_0_energy">    -37.74674071 </i>
   </energy>
  </scstep>
  <scstep>
   <time name="dav">    5.34    5.36</time>
   <time name="total">    5.34    5.36</time>
   <energy>
    <i name="e_fr_energy">    -37.76681387 </i>
    <i name="e_wo_entrp">    -37.75654252 </i>
    <i name="e_0_energy">    -37.76167820 </i>
   </energy>
  </scstep>
  <scstep>
   <time name="dav">   25.48   25.50</time>
   <time name="total">   25.48   25.50</time>
   <energy>
    <i name="e_fr_energy">    -37.76682143 </i>
    <i name="e_wo_entrp">    -37.75655008 </i>
    <i name="e_0_energy">    -37.76168576 </i>
   </energy>
  </scstep>
  <scstep>
   <time name="dav">    5.65    5.67</time>
   <time name="total">    5.70    5.72</time>
   <energy>
    <i name="e_fr_energy">    -37.76682143 </i>
    <i name="e_wo_entrp">    -37.75655008 </i>
    <i name="e_0_energy">    -37.76168576 </i>
   </energy>
  </scstep>
  <scstep>
   <time name="diag">    0.81    0.81</time>
   <time name="diis">    0.19    0.20</time>
   <time name="orth">    0.11    0.11</time>
   <time name="total">    1.39    1.41</time>
   <energy>
    <i name="e_fr_energy">    -37.19169353 </i>
    <i name="e_wo_entrp">    -37.18446176 </i>
    <i name="e_0_energy">    -37.18807764 </i>
   </energy>
  </scstep>
  <scstep>
   <time name="diag">    0.79    0.79</time>
   <time name="diis">    0.29    0.29</time>
   <time name="orth">    0.11    0.11</time>
   <time name="total">    1.45    1.47</time>
   <energy>
    <i name="e_fr_energy">    -37.02797665 </i>
    <i name="e_wo_entrp">    -37.02134015 </i>
    <i name="e_0_energy">    -37.02465840 </i>
   </energy>
  </scstep>
  <scstep>
   <time name="diag">    0.78    0.78</time>
   <time name="diis">    0.28    0.28</time>
   <time name="orth">    0.11    0.11</time>
   <time name="total">    1.43    1.45</time>
   <energy>
    <i name="e_fr_energy">    -37.02197823 </i>
    <i name="e_wo_entrp">    -37.01536969 </i>
    <i name="e_0_energy">    -37.01867396 </i>
   </energy>
  </scstep>
  <scstep>
   <time name="diag">    0.77    0.77</time>
   <time name="diis">    0.31    0.31</time>
   <time name="orth">    0.11    0.11</time>
   <time name="total">    1.45    1.47</time>
   <energy>
    <i name="e_fr_energy">    -37.02194353 </i>
    <i name="e_wo_entrp">    -37.01531066 </i>
    <i name="e_0_energy">    -37.01862710 </i>
   </energy>
  </scstep>
  <scstep>
   <time name="diag">    0.76    0.76</time>
   <time name="diis">    0.31    0.31</time>
   <time name="orth">    0.11    0.11</time>
   <time name="total">    1.44    1.46</time>
   <energy>
    <i name="e_fr_energy">    -37.02197604 </i>
    <i name="e_wo_entrp">    -37.01533132 </i>
    <i name="e_0_energy">    -37.01865368 </i>
   </energy>
  </scstep>
  <scstep>
   <time name="diag">    0.75    0.75</time>
   <time name="diis">    0.32    0.32</time>
   <time name="orth">    0.11    0.11</time>
   <time name="total">    1.40    1.42</time>
   <energy>
    <i name="alphaZ">     10.25815623 </i>
    <i name="ewald">   -749.89179359 </i>
    <i name="hartreedc">    -65.82568297 </i>
    <i name="XCdc">    -61.07837838 </i>
    <i name="pawpsdc">   2403.36355440 </i>
    <i name="pawaedc">  -2282.85608986 </i>
    <i name="eentropy">     -0.00664346 </i>
    <i name="bandstr">     -9.01321292 </i>
    <i name="atom">    718.02812073 </i>
    <i name="e_fr_energy">    -37.02196982 </i>
    <i name="e_wo_entrp">    -37.01532636 </i>
    <i name="e_0_energy">    -37.01864809 </i>
   </energy>
  </scstep>
  <structure>
   <crystal>
    <varray name="basis" >
     <v>       5.43784835       0.00000000       0.00000000 </v>
     <v>       0.00000000       5.43784835       0.00000000 </v>
     <v>       0.00000000       0.00000000       5.43784835 </v>
    </varray>
    <i name="volume">    160.79823434 </i>
    <varray name="rec_basis" >
     <v>       0.18389626       0.00000000       0.00000000 </v>
     <v>       0.00000000       0.18389626       0.00000000 </v>
     <v>       0.00000000       0.00000000       0.18389626 </v>
    </varray>
   </crystal>
   <varray name="positions" >
    <v>       0.25434293       0.74565707       0.25434293 </v>
    <v>       0.00000000       0.00000000       0.50000000 </v>
    <v>       0.25434293       0.25434293       0.74565707 </v>
    <v>       0.00000000       0.50000000       0.00000000 </v>
    <v>       0.74565707       0.74565707       0.74565707 </v>
    <v>       0.50000000       0.00000000       0.00000000 </v>
    <v>       0.74565707       0.25434293       0.25434293 </v>
   </varray>
  </structure>
  <varray name="forces" >
   <v>       0.01099324      -0.01099324       0.01099324 </v>
   <v>      -0.00000000       0.00000000      -0.00000000 </v>
   <v>       0.01099324       0.01099324      -0.01099324 </v>
   <v>      -0.00000000       0.00000000      -0.00000000 </v>
   <v>      -0.01099324      -0.01099324      -0.01099324 </v>
   <v>       0.00000000       0.00000000      -0.00000000 </v>
   <v>      -0.01099324       0.01099324       0.01099324 </v>
  </varray>
  <varray name="stress" >
   <v>     -43.41035979      -0.00000000      -0.00000000 </v>
   <v>      -0.00000000     -43.41035979      -0.00000000 </v>
   <v>      -0.00000000       0.00000000     -43.41035979 </v>
  </varray>
  <energy>
   <i name="e_fr_energy">    -37.02196982 </i>
   <i name="e_wo_entrp">    -37.01532636 </i>
   <i name="e_0_energy">    -37.01864809 </i>
  </energy>
  <time name="totalsc">   65.77   66.07</time>
  <eigenvalues>
   <array>
    <dimension dim="1">band</dimension>
    <dimension dim="2">kpoint</dimension>
    <dimension dim="3">spin</dimension>
    <field>eigene</field>
    <field>occ</field>
    <set>
     <set comment="spin 1">
      <set comment="kpoint 1">
       <r>   -6.9296    1.0000 </r>
       <r>   -3.2568    1.0000 </r>
       <r>   -3.2568    1.0000 </r>
       <r>   -2.8923    1.0000 </r>
       <r>   -2.8923    1.0000 </r>
       <r>   -2.8923    1.0000 </r>
       <r>    1.2182    1.0000 </r>
       <r>    1.6925    1.0000 </r>
       <r>    1.6925    1.0000 </r>
       <r>    1.6925    1.0000 </r>
       <r>    2.9313    1.0000 </r>
       <r>    2.9313    1.0000 </r>
       <r>    2.9313    1.0000 </r>
       <r>    5.5788    0.0000 </r>
       <r>    5.5788    0.0000 </r>
       <r>    5.5828    0.0000 </r>
       <r>    5.5828    0.0000 </r>
       <r>    5.5828    0.0000 </r>
       <r>    6.1582    0.0000 </r>
       <r>    6.1582    0.0000 </r>
       <r>    6.1582    0.0000 </r>
       <r>    6.2847    0.0000 </r>
       <r>    8.5362    0.0000 </r>
       <r>    8.5362    0.0000 </r>
       <r>    8.5362    0.0000 </r>
       <r>   10.1543    0.0000 </r>
       <r>   12.9514    0.0000 </r>
       <r>   12.9514    0.0000 </r>
       <r>   13.1394    0.0000 </r>
       <r>   14.5874    0.0000 </r>
       <r>   14.5874    0.0000 </r>
       <r>   14.5874    0.0000 </r>
       <r>   15.6186    0.0000 </r>
       <r>   15.6186    0.0000 </r>
       <r>   15.6186    0.0000 </r>
       <r>   15.6764    0.0000 </r>
       <r>   15.6764    0.0000 </r>
       <r>   15.6764    0.0000 </r>
       <r>   16.2997    0.0000 </r>
       <r>   16.2997    0.0000 </r>
       <r>   16.2997    0.0000 </r>
       <r>   17.0000    0.0000 </r>
       <r>   17.4443    0.0000 </r>
       <r>   17.4443    0.0000 </r>
       <r>   17.4835    0.0000 </r>
       <r>   17.4835    0.0000 </r>
       <r>   17.4835    0.0000 </r>
       <r>   18.1585    0.0000 </r>
       <r>   18.1585    0.0000 </r>
       <r>   18.1585    0.0000 </r>
       <r>   19.1654    0.0000 </r>
       <r>   19.1654    0.0000 </r>
       <r>   19.1824    0.0000 </r>
       <r>   20.2810    0.0000 </r>
       <r>   20.9377    0.0000 </r>
       <r>   20.9377    0.0000 </r>
       <r>   20.9377    0.0000 </r>
       <r>   23.5735    0.0000 </r>
       <r>   23.6942    0.0000 </r>
       <r>   23.6942    0.0000 </r>
       <r>   23.6942    0.0000 </r>
       <r>   24.3982    0.0000 </r>
       <r>   24.3982    0.0000 </r>
       <r>   24.3982    0.0000 </r>
       <r>   24.8402    0.0000 </r>
       <r>   24.8402    0.0000 </r>
       <r>   24.8402    0.0000 </r>
       <r>   24.9424    0.0000 </r>
       <r>   24.9424    0.0000 </r>
       <r>   24.9424    0.0000 </r>
       <r>   25.3015    0.0000 </r>
       <r>   25.3015    0.0000 </r>
       <r>   26.0991    0.0000 </r>
       <r>   26.0991    0.0000 </r>
       <r>   26.2392    0.0000 </r>
       <r>   26.2392    0.0000 </r>
       <r>   26.2392    0.0000 </r>
       <r>   27.1331    0.0000 </r>
       <r>   27.1331    0.0000 </r>
       <r>   27.1331    0.0000 </r>
       <r>   27.5294    0.0000 </r>
       <r>   28.4634    0.0000 </r>
       <r>   28.4634    0.0000 </r>
       <r>   28.4634    0.0000 </r>
       <r>   29.3743    0.0000 </r>
       <r>   29.3743    0.0000 </r>
       <r>   30.8525    0.0000 </r>
       <r>   31.6816    0.0000 </r>
       <r>   31.6816    0.0000 </r>
       <r>   31.6816    0.0000 </r>
       <r>   32.9697    0.0000 </r>
       <r>   32.9697    0.0000 </r>
       <r>   33.1414    0.0000 </r>
       <r>   33.1414    0.0000 </r>
       <r>   33.1414    0.0000 </r>
       <r>   33.8723    0.0000 </r>
       <r>   33.8723    0.0000 </r>
       <r>   33.8723    0.0000 </r>
       <r>   35.0384    0.0000 </r>
       <r>   35.0384    0.0000 </r>
       <r>   35.0384    0.0000 </r>
       <r>   37.5803    0.0000 </r>
       <r>   37.5803    0.0000 </r>
       <r>   37.5803    0.0000 </r>
       <r>   38.8828    0.0000 </r>
       <r>   38.8828    0.0000 </r>
       <r>   38.8828    0.0000 </r>
       <r>   39.0678    0.0000 </r>
       <r>   39.0678    0.0000 </r>
       <r>   39.0678    0.0000 </r>
       <r>   39.1639    0.0000 </r>
       <r>   39.1639    0.0000 </r>
       <r>   39.3297    0.0000 </r>
       <r>   40.1844    0.0000 </r>
       <r>   40.3676    0.0000 </r>
       <r>   40.3676    0.0000 </r>
       <r>   40.3676    0.0000 </r>
       <r>   40.8810    0.0000 </r>
       <r>   40.8810    0.0000 </r>
       <r>   40.8810    0.0000 </r>
       <r>   41.8465    0.0000 </r>
       <r>   41.8465    0.0000 </r>
       <r>   41.8465    0.0000 </r>
       <r>   42.2283    0.0000 </r>
       <r>   42.2283    0.0000 </r>
       <r>   42.5625    0.0000 </r>
       <r>   42.7961    0.0000 </r>
       <r>   42.9518    0.0000 </r>
       <r>   42.9518    0.0000 </r>
       <r>   43.2106    0.0000 </r>
       <r>   43.2106    0.0000 </r>
       <r>   43.2106    0.0000 </r>
       <r>   44.2574    0.0000 </r>
       <r>   44.2574    0.0000 </r>
       <r>   44.2574    0.0000 </r>
       <r>   44.8053    0.0000 </r>
       <r>   44.8056    0.0000 </r>
       <r>   45.1388    0.0000 </r>
       <r>   45.1388    0.0000 </r>
       <r>   45.1388    0.0000 </r>
       <r>   45.8020    0.0000 </r>
       <r>   45.8021    0.0000 </r>
       <r>   45.8021    0.0000 </r>
       <r>   46.1690    0.0000 </r>
      </set>
      <set comment="kpoint 2">
       <r>   -6.6850    1.0000 </r>
       <r>   -4.5933    1.0000 </r>
       <r>   -3.1855    1.0000 </r>
       <r>   -2.8250    1.0000 </r>
       <r>   -2.8250    1.0000 </r>
       <r>   -1.5138    1.0000 </r>
       <r>    1.1899    1.0000 </r>
       <r>    1.4496    1.0000 </r>
       <r>    1.4496    1.0000 </r>
       <r>    1.5377    1.0000 </r>
       <r>    2.1793    1.0000 </r>
       <r>    2.7336    1.0000 </r>
       <r>    2.7336    1.0000 </r>
       <r>    4.8828    0.0001 </r>
       <r>    5.3056    0.0000 </r>
       <r>    5.3056    0.0000 </r>
       <r>    5.6911    0.0000 </r>
       <r>    6.3869    0.0000 </r>
       <r>    6.7783    0.0000 </r>
       <r>    7.0192    0.0000 </r>
       <r>    7.0192    0.0000 </r>
       <r>    7.5033    0.0000 </r>
       <r>    8.1038    0.0000 </r>
       <r>    9.5842    0.0000 </r>
       <r>    9.5842    0.0000 </r>
       <r>   10.7184    0.0000 </r>
       <r>   11.9556    0.0000 </r>
       <r>   12.4215    0.0000 </r>
       <r>   12.4906    0.0000 </r>
       <r>   12.4906    0.0000 </r>
       <r>   13.2978    0.0000 </r>
       <r>   13.6293    0.0000 </r>
       <r>   14.2563    0.0000 </r>
       <r>   14.3138    0.0000 </r>
       <r>   14.3138    0.0000 </r>
       <r>   15.0899    0.0000 </r>
       <r>   15.9105    0.0000 </r>
       <r>   15.9808    0.0000 </r>
       <r>   15.9808    0.0000 </r>
       <r>   16.7394    0.0000 </r>
       <r>   16.7844    0.0000 </r>
       <r>   16.7844    0.0000 </r>
       <r>   16.9809    0.0000 </r>
       <r>   17.5134    0.0000 </r>
       <r>   17.6683    0.0000 </r>
       <r>   18.3670    0.0000 </r>
       <r>   18.3670    0.0000 </r>
       <r>   18.9814    0.0000 </r>
       <r>   18.9814    0.0000 </r>
       <r>   19.4251    0.0000 </r>
       <r>   19.8978    0.0000 </r>
       <r>   19.9386    0.0000 </r>
       <r>   20.6414    0.0000 </r>
       <r>   21.0697    0.0000 </r>
       <r>   21.4042    0.0000 </r>
       <r>   21.4042    0.0000 </r>
       <r>   21.6085    0.0000 </r>
       <r>   22.0342    0.0000 </r>
       <r>   22.2135    0.0000 </r>
       <r>   22.2135    0.0000 </r>
       <r>   22.9012    0.0000 </r>
       <r>   23.3000    0.0000 </r>
       <r>   23.3000    0.0000 </r>
       <r>   23.4446    0.0000 </r>
       <r>   23.8810    0.0000 </r>
       <r>   24.2894    0.0000 </r>
       <r>   24.2894    0.0000 </r>
       <r>   24.5504    0.0000 </r>
       <r>   24.8427    0.0000 </r>
       <r>   25.8031    0.0000 </r>
       <r>   25.8031    0.0000 </r>
       <r>   26.3397    0.0000 </r>
       <r>   26.8282    0.0000 </r>
       <r>   26.9881    0.0000 </r>
       <r>   26.9881    0.0000 </r>
       <r>   27.5280    0.0000 </r>
       <r>   28.1069    0.0000 </r>
       <r>   28.2150    0.0000 </r>
       <r>   28.3687    0.0000 </r>
       <r>   28.4924    0.0000 </r>
       <r>   28.5902    0.0000 </r>
       <r>   28.5902    0.0000 </r>
       <r>   29.3023    0.0000 </r>
       <r>   29.4520    0.0000 </r>
       <r>   29.4520    0.0000 </r>
       <r>   29.9559    0.0000 </r>
       <r>   30.1898    0.0000 </r>
       <r>   30.7475    0.0000 </r>
       <r>   31.1078    0.0000 </r>
       <r>   31.1078    0.0000 </r>
       <r>   31.4535    0.0000 </r>
       <r>   32.8037    0.0000 </r>
       <r>   32.8037    0.0000 </r>
       <r>   32.8743    0.0000 </r>
       <r>   33.8577    0.0000 </r>
       <r>   34.6392    0.0000 </r>
       <r>   34.6392    0.0000 </r>
       <r>   34.7489    0.0000 </r>
       <r>   35.1781    0.0000 </r>
       <r>   36.1056    0.0000 </r>
       <r>   36.1056    0.0000 </r>
       <r>   36.3595    0.0000 </r>
       <r>   36.3595    0.0000 </r>
       <r>   36.7415    0.0000 </r>
       <r>   36.8527    0.0000 </r>
       <r>   36.9599    0.0000 </r>
       <r>   37.5478    0.0000 </r>
       <r>   37.5478    0.0000 </r>
       <r>   37.5967    0.0000 </r>
       <r>   38.2217    0.0000 </r>
       <r>   38.2217    0.0000 </r>
       <r>   38.3135    0.0000 </r>
       <r>   38.6500    0.0000 </r>
       <r>   39.7792    0.0000 </r>
       <r>   39.7792    0.0000 </r>
       <r>   39.9534    0.0000 </r>
       <r>   40.4407    0.0000 </r>
       <r>   40.5340    0.0000 </r>
       <r>   40.5340    0.0000 </r>
       <r>   40.7110    0.0000 </r>
       <r>   40.9304    0.0000 </r>
       <r>   41.3397    0.0000 </r>
       <r>   41.8868    0.0000 </r>
       <r>   42.0593    0.0000 </r>
       <r>   42.3695    0.0000 </r>
       <r>   42.3695    0.0000 </r>
       <r>   42.8073    0.0000 </r>
       <r>   43.3409    0.0000 </r>
       <r>   43.3409    0.0000 </r>
       <r>   43.3607    0.0000 </r>
       <r>   44.1328    0.0000 </r>
       <r>   44.1490    0.0000 </r>
       <r>   44.4820    0.0000 </r>
       <r>   44.7023    0.0000 </r>
       <r>   44.7023    0.0000 </r>
       <r>   44.8741    0.0000 </r>
       <r>   45.0479    0.0000 </r>
       <r>   45.0479    0.0000 </r>
       <r>   45.2260    0.0000 </r>
       <r>   45.3487    0.0000 </r>
       <r>   45.6171    0.0000 </r>
       <r>   45.6171    0.0000 </r>
       <r>   45.9937    0.0000 </r>
       <r>   45.9940    0.0000 </r>
      </set>
      <set comment="kpoint 3">
       <r>   -6.1883    1.0000 </r>
       <r>   -5.5346    1.0000 </r>
       <r>   -3.1077    1.0000 </r>
       <r>   -2.7521    1.0000 </r>
       <r>   -2.7521    1.0000 </r>
       <r>   -0.5724    1.0000 </r>
       <r>    0.7894    1.0000 </r>
       <r>    0.9502    1.0000 </r>
       <r>    1.1562    1.0000 </r>
       <r>    1.1562    1.0000 </r>
       <r>    2.7634    1.0000 </r>
       <r>    2.7634    1.0000 </r>
       <r>    2.9205    1.0000 </r>
       <r>    3.4839    1.0000 </r>
       <r>    4.8112    0.0417 </r>
       <r>    4.8112    0.0417 </r>
       <r>    6.1388    0.0000 </r>
       <r>    6.4122    0.0000 </r>
       <r>    8.1799    0.0000 </r>
       <r>    8.7975    0.0000 </r>
       <r>    9.1626    0.0000 </r>
       <r>    9.1807    0.0000 </r>
       <r>    9.1807    0.0000 </r>
       <r>    9.5492    0.0000 </r>
       <r>    9.8224    0.0000 </r>
       <r>    9.8224    0.0000 </r>
       <r>   10.5002    0.0000 </r>
       <r>   10.6865    0.0000 </r>
       <r>   11.0331    0.0000 </r>
       <r>   11.0331    0.0000 </r>
       <r>   12.8361    0.0000 </r>
       <r>   12.8361    0.0000 </r>
       <r>   13.6504    0.0000 </r>
       <r>   13.6816    0.0000 </r>
       <r>   14.8618    0.0000 </r>
       <r>   14.9463    0.0000 </r>
       <r>   15.1369    0.0000 </r>
       <r>   15.9768    0.0000 </r>
       <r>   15.9768    0.0000 </r>
       <r>   16.2739    0.0000 </r>
       <r>   16.5853    0.0000 </r>
       <r>   17.5391    0.0000 </r>
       <r>   17.5832    0.0000 </r>
       <r>   17.5832    0.0000 </r>
       <r>   18.1737    0.0000 </r>
       <r>   18.3846    0.0000 </r>
       <r>   18.5139    0.0000 </r>
       <r>   18.5139    0.0000 </r>
       <r>   19.2224    0.0000 </r>
       <r>   19.3962    0.0000 </r>
       <r>   19.3962    0.0000 </r>
       <r>   20.3779    0.0000 </r>
       <r>   21.3467    0.0000 </r>
       <r>   21.3525    0.0000 </r>
       <r>   21.3525    0.0000 </r>
       <r>   21.6194    0.0000 </r>
       <r>   22.5698    0.0000 </r>
       <r>   22.5698    0.0000 </r>
       <r>   22.6334    0.0000 </r>
       <r>   22.6334    0.0000 </r>
       <r>   23.1003    0.0000 </r>
       <r>   23.1111    0.0000 </r>
       <r>   23.4900    0.0000 </r>
       <r>   23.4900    0.0000 </r>
       <r>   23.5001    0.0000 </r>
       <r>   23.9649    0.0000 </r>
       <r>   24.1495    0.0000 </r>
       <r>   24.2923    0.0000 </r>
       <r>   24.8179    0.0000 </r>
       <r>   25.7070    0.0000 </r>
       <r>   26.0979    0.0000 </r>
       <r>   26.0979    0.0000 </r>
       <r>   26.4453    0.0000 </r>
       <r>   26.6658    0.0000 </r>
       <r>   26.6658    0.0000 </r>
       <r>   26.8603    0.0000 </r>
       <r>   26.9989    0.0000 </r>
       <r>   27.6407    0.0000 </r>
       <r>   28.8363    0.0000 </r>
       <r>   29.5588    0.0000 </r>
       <r>   29.7371    0.0000 </r>
       <r>   29.7371    0.0000 </r>
       <r>   30.0035    0.0000 </r>
       <r>   31.3666    0.0000 </r>
       <r>   31.7607    0.0000 </r>
       <r>   31.7607    0.0000 </r>
       <r>   31.8541    0.0000 </r>
       <r>   32.0134    0.0000 </r>
       <r>   32.0917    0.0000 </r>
       <r>   32.3514    0.0000 </r>
       <r>   32.3514    0.0000 </r>
       <r>   32.3969    0.0000 </r>
       <r>   32.5010    0.0000 </r>
       <r>   32.5010    0.0000 </r>
       <r>   33.5742    0.0000 </r>
       <r>   33.8791    0.0000 </r>
       <r>   33.8791    0.0000 </r>
       <r>   34.0947    0.0000 </r>
       <r>   34.2926    0.0000 </r>
       <r>   34.5047    0.0000 </r>
       <r>   34.8074    0.0000 </r>
       <r>   34.8182    0.0000 </r>
       <r>   34.8182    0.0000 </r>
       <r>   35.3091    0.0000 </r>
       <r>   35.3091    0.0000 </r>
       <r>   35.8316    0.0000 </r>
       <r>   35.9383    0.0000 </r>
       <r>   35.9383    0.0000 </r>
       <r>   36.5302    0.0000 </r>
       <r>   37.8694    0.0000 </r>
       <r>   38.4130    0.0000 </r>
       <r>   38.6132    0.0000 </r>
       <r>   38.6132    0.0000 </r>
       <r>   39.7868    0.0000 </r>
       <r>   39.8719    0.0000 </r>
       <r>   40.0576    0.0000 </r>
       <r>   40.4135    0.0000 </r>
       <r>   40.4135    0.0000 </r>
       <r>   40.4545    0.0000 </r>
       <r>   41.3979    0.0000 </r>
       <r>   41.6414    0.0000 </r>
       <r>   41.6414    0.0000 </r>
       <r>   41.6438    0.0000 </r>
       <r>   41.8905    0.0000 </r>
       <r>   41.8905    0.0000 </r>
       <r>   42.4433    0.0000 </r>
       <r>   42.4487    0.0000 </r>
       <r>   42.4487    0.0000 </r>
       <r>   42.4504    0.0000 </r>
       <r>   42.6698    0.0000 </r>
       <r>   43.1674    0.0000 </r>
       <r>   43.1674    0.0000 </r>
       <r>   44.4979    0.0000 </r>
       <r>   44.8354    0.0000 </r>
       <r>   44.8354    0.0000 </r>
       <r>   44.9510    0.0000 </r>
       <r>   45.2248    0.0000 </r>
       <r>   45.3612    0.0000 </r>
       <r>   45.3614    0.0000 </r>
       <r>   45.3874    0.0000 </r>
       <r>   45.5320    0.0000 </r>
       <r>   45.9510    0.0000 </r>
       <r>   46.4358    0.0000 </r>
       <r>   46.6030    0.0000 </r>
      </set>
      <set comment="kpoint 4">
       <r>   -6.4446    1.0000 </r>
       <r>   -4.6553    1.0000 </r>
       <r>   -4.1721    1.0000 </r>
       <r>   -2.9152    1.0000 </r>
       <r>   -1.9996    1.0000 </r>
       <r>   -1.1375    1.0000 </r>
       <r>    0.5045    1.0000 </r>
       <r>    1.3136    1.0000 </r>
       <r>    1.4553    1.0000 </r>
       <r>    1.8606    1.0000 </r>
       <r>    1.8645    1.0000 </r>
       <r>    2.8193    1.0000 </r>
       <r>    2.9440    1.0000 </r>
       <r>    3.9450    1.0000 </r>
       <r>    4.7283    0.7303 </r>
       <r>    5.7661    0.0000 </r>
       <r>    6.1951    0.0000 </r>
       <r>    6.7866    0.0000 </r>
       <r>    7.1909    0.0000 </r>
       <r>    7.4656    0.0000 </r>
       <r>    7.5973    0.0000 </r>
       <r>    9.0317    0.0000 </r>
       <r>    9.1112    0.0000 </r>
       <r>    9.2916    0.0000 </r>
       <r>    9.4488    0.0000 </r>
       <r>   10.3291    0.0000 </r>
       <r>   11.4894    0.0000 </r>
       <r>   11.5232    0.0000 </r>
       <r>   11.9724    0.0000 </r>
       <r>   12.4082    0.0000 </r>
       <r>   12.6399    0.0000 </r>
       <r>   13.2014    0.0000 </r>
       <r>   13.3109    0.0000 </r>
       <r>   13.9884    0.0000 </r>
       <r>   14.1470    0.0000 </r>
       <r>   14.7672    0.0000 </r>
       <r>   15.0289    0.0000 </r>
       <r>   15.5646    0.0000 </r>
       <r>   15.7838    0.0000 </r>
       <r>   16.1066    0.0000 </r>
       <r>   16.3480    0.0000 </r>
       <r>   16.7015    0.0000 </r>
       <r>   17.4728    0.0000 </r>
       <r>   18.1515    0.0000 </r>
       <r>   18.5743    0.0000 </r>
       <r>   18.6250    0.0000 </r>
       <r>   18.9755    0.0000 </r>
       <r>   19.2218    0.0000 </r>
       <r>   19.4970    0.0000 </r>
       <r>   19.5564    0.0000 </r>
       <r>   19.7204    0.0000 </r>
       <r>   19.9119    0.0000 </r>
       <r>   20.3637    0.0000 </r>
       <r>   20.6719    0.0000 </r>
       <r>   21.1409    0.0000 </r>
       <r>   21.2468    0.0000 </r>
       <r>   21.3978    0.0000 </r>
       <r>   22.2947    0.0000 </r>
       <r>   22.3489    0.0000 </r>
       <r>   22.6600    0.0000 </r>
       <r>   22.9500    0.0000 </r>
       <r>   23.0335    0.0000 </r>
       <r>   23.2577    0.0000 </r>
       <r>   23.8340    0.0000 </r>
       <r>   24.4390    0.0000 </r>
       <r>   24.6856    0.0000 </r>
       <r>   24.8881    0.0000 </r>
       <r>   25.0674    0.0000 </r>
       <r>   25.9568    0.0000 </r>
       <r>   26.0570    0.0000 </r>
       <r>   26.2577    0.0000 </r>
       <r>   26.3449    0.0000 </r>
       <r>   26.4176    0.0000 </r>
       <r>   26.9736    0.0000 </r>
       <r>   27.0509    0.0000 </r>
       <r>   27.1967    0.0000 </r>
       <r>   27.3967    0.0000 </r>
       <r>   27.7782    0.0000 </r>
       <r>   28.3027    0.0000 </r>
       <r>   28.5473    0.0000 </r>
       <r>   28.6546    0.0000 </r>
       <r>   29.0513    0.0000 </r>
       <r>   29.3012    0.0000 </r>
       <r>   29.9204    0.0000 </r>
       <r>   30.2799    0.0000 </r>
       <r>   30.5105    0.0000 </r>
       <r>   30.8794    0.0000 </r>
       <r>   31.0479    0.0000 </r>
       <r>   31.9453    0.0000 </r>
       <r>   32.1962    0.0000 </r>
       <r>   32.5425    0.0000 </r>
       <r>   32.7645    0.0000 </r>
       <r>   32.9814    0.0000 </r>
       <r>   33.2634    0.0000 </r>
       <r>   33.3517    0.0000 </r>
       <r>   33.5868    0.0000 </r>
       <r>   34.2285    0.0000 </r>
       <r>   34.5494    0.0000 </r>
       <r>   34.6767    0.0000 </r>
       <r>   35.0785    0.0000 </r>
       <r>   35.5328    0.0000 </r>
       <r>   35.5963    0.0000 </r>
       <r>   36.0754    0.0000 </r>
       <r>   36.3179    0.0000 </r>
       <r>   36.9596    0.0000 </r>
       <r>   37.0785    0.0000 </r>
       <r>   37.3237    0.0000 </r>
       <r>   37.6078    0.0000 </r>
       <r>   37.7527    0.0000 </r>
       <r>   37.7738    0.0000 </r>
       <r>   37.9083    0.0000 </r>
       <r>   38.3072    0.0000 </r>
       <r>   38.5082    0.0000 </r>
       <r>   38.7733    0.0000 </r>
       <r>   38.9145    0.0000 </r>
       <r>   39.2026    0.0000 </r>
       <r>   39.4688    0.0000 </r>
       <r>   39.5374    0.0000 </r>
       <r>   40.0600    0.0000 </r>
       <r>   40.1151    0.0000 </r>
       <r>   40.4617    0.0000 </r>
       <r>   40.9025    0.0000 </r>
       <r>   41.4613    0.0000 </r>
       <r>   42.0148    0.0000 </r>
       <r>   42.0474    0.0000 </r>
       <r>   42.2833    0.0000 </r>
       <r>   42.4387    0.0000 </r>
       <r>   42.9928    0.0000 </r>
       <r>   43.0663    0.0000 </r>
       <r>   43.2739    0.0000 </r>
       <r>   43.3637    0.0000 </r>
       <r>   43.4369    0.0000 </r>
       <r>   44.1362    0.0000 </r>
       <r>   44.2969    0.0000 </r>
       <r>   44.6071    0.0000 </r>
       <r>   44.7597    0.0000 </r>
       <r>   44.8313    0.0000 </r>
       <r>   44.9569    0.0000 </r>
       <r>   45.2909    0.0000 </r>
       <r>   45.7568    0.0000 </r>
       <r>   45.8102    0.0000 </r>
       <r>   46.1039    0.0000 </r>
       <r>   46.2900    0.0000 </r>
       <r>   46.5263    0.0000 </r>
      </set>
      <set comment="kpoint 5">
       <r>   -5.9455    1.0000 </r>
       <r>   -5.3909    1.0000 </r>
       <r>   -4.1779    1.0000 </r>
       <r>   -3.0646    1.0000 </r>
       <r>   -1.7260    1.0000 </r>
       <r>   -0.6721    1.0000 </r>
       <r>    0.3778    1.0000 </r>
       <r>    0.6001    1.0000 </r>
       <r>    1.4150    1.0000 </r>
       <r>    1.7838    1.0000 </r>
       <r>    2.4229    1.0000 </r>
       <r>    2.5824    1.0000 </r>
       <r>    3.0052    1.0000 </r>
       <r>    3.4303    1.0000 </r>
       <r>    4.9066    0.0000 </r>
       <r>    4.9258    0.0000 </r>
       <r>    7.3685    0.0000 </r>
       <r>    7.6153    0.0000 </r>
       <r>    7.7586    0.0000 </r>
       <r>    7.8666    0.0000 </r>
       <r>    8.9874    0.0000 </r>
       <r>    9.3490    0.0000 </r>
       <r>    9.3971    0.0000 </r>
       <r>    9.7572    0.0000 </r>
       <r>    9.8480    0.0000 </r>
       <r>    9.8963    0.0000 </r>
       <r>   10.2989    0.0000 </r>
       <r>   10.6429    0.0000 </r>
       <r>   11.4171    0.0000 </r>
       <r>   11.9842    0.0000 </r>
       <r>   12.3589    0.0000 </r>
       <r>   12.4803    0.0000 </r>
       <r>   12.8685    0.0000 </r>
       <r>   12.9998    0.0000 </r>
       <r>   13.6032    0.0000 </r>
       <r>   14.1649    0.0000 </r>
       <r>   15.0221    0.0000 </r>
       <r>   15.3059    0.0000 </r>
       <r>   15.9890    0.0000 </r>
       <r>   16.2506    0.0000 </r>
       <r>   16.8045    0.0000 </r>
       <r>   16.8140    0.0000 </r>
       <r>   17.0998    0.0000 </r>
       <r>   17.5971    0.0000 </r>
       <r>   18.7068    0.0000 </r>
       <r>   18.9542    0.0000 </r>
       <r>   19.0262    0.0000 </r>
       <r>   19.2512    0.0000 </r>
       <r>   19.6339    0.0000 </r>
       <r>   19.6343    0.0000 </r>
       <r>   19.8049    0.0000 </r>
       <r>   20.2192    0.0000 </r>
       <r>   20.2590    0.0000 </r>
       <r>   20.3376    0.0000 </r>
       <r>   21.0168    0.0000 </r>
       <r>   21.3437    0.0000 </r>
       <r>   21.9587    0.0000 </r>
       <r>   22.0127    0.0000 </r>
       <r>   22.2263    0.0000 </r>
       <r>   22.9261    0.0000 </r>
       <r>   23.1510    0.0000 </r>
       <r>   23.7284    0.0000 </r>
       <r>   23.8417    0.0000 </r>
       <r>   23.9610    0.0000 </r>
       <r>   24.4880    0.0000 </r>
       <r>   24.5073    0.0000 </r>
       <r>   25.2835    0.0000 </r>
       <r>   25.4357    0.0000 </r>
       <r>   25.5462    0.0000 </r>
       <r>   25.9548    0.0000 </r>
       <r>   26.2040    0.0000 </r>
       <r>   26.5046    0.0000 </r>
       <r>   26.9655    0.0000 </r>
       <r>   27.2176    0.0000 </r>
       <r>   27.3512    0.0000 </r>
       <r>   27.3740    0.0000 </r>
       <r>   27.8433    0.0000 </r>
       <r>   28.2505    0.0000 </r>
       <r>   28.5203    0.0000 </r>
       <r>   28.9818    0.0000 </r>
       <r>   29.1019    0.0000 </r>
       <r>   29.5578    0.0000 </r>
       <r>   29.5831    0.0000 </r>
       <r>   30.0665    0.0000 </r>
       <r>   30.7662    0.0000 </r>
       <r>   30.8520    0.0000 </r>
       <r>   31.4380    0.0000 </r>
       <r>   31.7827    0.0000 </r>
       <r>   32.0634    0.0000 </r>
       <r>   32.1543    0.0000 </r>
       <r>   32.4261    0.0000 </r>
       <r>   32.7056    0.0000 </r>
       <r>   32.7122    0.0000 </r>
       <r>   33.3361    0.0000 </r>
       <r>   33.3466    0.0000 </r>
       <r>   33.7347    0.0000 </r>
       <r>   33.8316    0.0000 </r>
       <r>   34.1637    0.0000 </r>
       <r>   34.4966    0.0000 </r>
       <r>   34.6848    0.0000 </r>
       <r>   35.0154    0.0000 </r>
       <r>   35.0577    0.0000 </r>
       <r>   35.5923    0.0000 </r>
       <r>   36.1707    0.0000 </r>
       <r>   36.1819    0.0000 </r>
       <r>   36.1966    0.0000 </r>
       <r>   36.4362    0.0000 </r>
       <r>   36.9388    0.0000 </r>
       <r>   37.1748    0.0000 </r>
       <r>   37.3198    0.0000 </r>
       <r>   37.3837    0.0000 </r>
       <r>   38.0955    0.0000 </r>
       <r>   38.1450    0.0000 </r>
       <r>   38.3305    0.0000 </r>
       <r>   38.7285    0.0000 </r>
       <r>   38.9888    0.0000 </r>
       <r>   39.2529    0.0000 </r>
       <r>   39.4596    0.0000 </r>
       <r>   40.2438    0.0000 </r>
       <r>   40.4157    0.0000 </r>
       <r>   40.6181    0.0000 </r>
       <r>   40.7879    0.0000 </r>
       <r>   41.2081    0.0000 </r>
       <r>   41.4881    0.0000 </r>
       <r>   41.7718    0.0000 </r>
       <r>   41.9600    0.0000 </r>
       <r>   42.1520    0.0000 </r>
       <r>   42.4626    0.0000 </r>
       <r>   42.6396    0.0000 </r>
       <r>   42.9503    0.0000 </r>
       <r>   43.2005    0.0000 </r>
       <r>   43.6213    0.0000 </r>
       <r>   43.8569    0.0000 </r>
       <r>   44.1054    0.0000 </r>
       <r>   44.2519    0.0000 </r>
       <r>   44.6848    0.0000 </r>
       <r>   44.9428    0.0000 </r>
       <r>   45.1974    0.0000 </r>
       <r>   45.3494    0.0000 </r>
       <r>   45.4142    0.0000 </r>
       <r>   45.7757    0.0000 </r>
       <r>   45.9368    0.0000 </r>
       <r>   46.2233    0.0000 </r>
       <r>   46.6656    0.0000 </r>
      </set>
      <set comment="kpoint 6">
       <r>   -5.2785    1.0000 </r>
       <r>   -5.2057    1.0000 </r>
       <r>   -5.2057    1.0000 </r>
       <r>   -3.4261    1.0000 </r>
       <r>   -0.6270    1.0000 </r>
       <r>   -0.6270    1.0000 </r>
       <r>   -0.5472    1.0000 </r>
       <r>    0.7181    1.0000 </r>
       <r>    1.2248    1.0000 </r>
       <r>    1.2248    1.0000 </r>
       <r>    2.6015    1.0000 </r>
       <r>    3.0207    1.0000 </r>
       <r>    3.2832    1.0000 </r>
       <r>    3.2924    1.0000 </r>
       <r>    5.3940    0.0000 </r>
       <r>    5.3940    0.0000 </r>
       <r>    7.0157    0.0000 </r>
       <r>    7.0157    0.0000 </r>
       <r>    8.4300    0.0000 </r>
       <r>    8.4543    0.0000 </r>
       <r>    9.3774    0.0000 </r>
       <r>    9.4920    0.0000 </r>
       <r>    9.8038    0.0000 </r>
       <r>    9.8038    0.0000 </r>
       <r>   10.0037    0.0000 </r>
       <r>   10.2263    0.0000 </r>
       <r>   10.2263    0.0000 </r>
       <r>   10.5924    0.0000 </r>
       <r>   11.0279    0.0000 </r>
       <r>   11.8232    0.0000 </r>
       <r>   11.8232    0.0000 </r>
       <r>   12.5561    0.0000 </r>
       <r>   12.6478    0.0000 </r>
       <r>   12.6478    0.0000 </r>
       <r>   12.7192    0.0000 </r>
       <r>   12.9650    0.0000 </r>
       <r>   14.5230    0.0000 </r>
       <r>   15.4518    0.0000 </r>
       <r>   15.4518    0.0000 </r>
       <r>   15.6274    0.0000 </r>
       <r>   17.3996    0.0000 </r>
       <r>   17.5347    0.0000 </r>
       <r>   17.5347    0.0000 </r>
       <r>   18.1922    0.0000 </r>
       <r>   18.1922    0.0000 </r>
       <r>   18.1997    0.0000 </r>
       <r>   18.4481    0.0000 </r>
       <r>   18.8494    0.0000 </r>
       <r>   19.1000    0.0000 </r>
       <r>   19.1000    0.0000 </r>
       <r>   19.1256    0.0000 </r>
       <r>   20.5444    0.0000 </r>
       <r>   21.3508    0.0000 </r>
       <r>   21.7230    0.0000 </r>
       <r>   21.7230    0.0000 </r>
       <r>   21.8509    0.0000 </r>
       <r>   21.8517    0.0000 </r>
       <r>   21.8517    0.0000 </r>
       <r>   21.9142    0.0000 </r>
       <r>   22.4495    0.0000 </r>
       <r>   23.0756    0.0000 </r>
       <r>   23.3003    0.0000 </r>
       <r>   23.5719    0.0000 </r>
       <r>   23.5719    0.0000 </r>
       <r>   24.4097    0.0000 </r>
       <r>   25.2228    0.0000 </r>
       <r>   26.3081    0.0000 </r>
       <r>   26.3081    0.0000 </r>
       <r>   26.5169    0.0000 </r>
       <r>   26.5169    0.0000 </r>
       <r>   26.7357    0.0000 </r>
       <r>   26.8704    0.0000 </r>
       <r>   26.8704    0.0000 </r>
       <r>   27.4353    0.0000 </r>
       <r>   27.5996    0.0000 </r>
       <r>   27.6941    0.0000 </r>
       <r>   28.8202    0.0000 </r>
       <r>   28.9670    0.0000 </r>
       <r>   28.9670    0.0000 </r>
       <r>   29.5020    0.0000 </r>
       <r>   29.7215    0.0000 </r>
       <r>   29.7475    0.0000 </r>
       <r>   29.7475    0.0000 </r>
       <r>   31.0639    0.0000 </r>
       <r>   31.1423    0.0000 </r>
       <r>   31.1647    0.0000 </r>
       <r>   31.3004    0.0000 </r>
       <r>   31.3004    0.0000 </r>
       <r>   31.3640    0.0000 </r>
       <r>   31.6526    0.0000 </r>
       <r>   31.9849    0.0000 </r>
       <r>   31.9849    0.0000 </r>
       <r>   32.6672    0.0000 </r>
       <r>   32.6672    0.0000 </r>
       <r>   32.8006    0.0000 </r>
       <r>   32.8019    0.0000 </r>
       <r>   32.8019    0.0000 </r>
       <r>   33.4081    0.0000 </r>
       <r>   33.7973    0.0000 </r>
       <r>   34.0553    0.0000 </r>
       <r>   34.1443    0.0000 </r>
       <r>   34.5251    0.0000 </r>
       <r>   35.4238    0.0000 </r>
       <r>   35.5686    0.0000 </r>
       <r>   35.5686    0.0000 </r>
       <r>   36.1962    0.0000 </r>
       <r>   36.5890    0.0000 </r>
       <r>   36.5890    0.0000 </r>
       <r>   37.1709    0.0000 </r>
       <r>   37.1709    0.0000 </r>
       <r>   37.6356    0.0000 </r>
       <r>   38.4119    0.0000 </r>
       <r>   38.9974    0.0000 </r>
       <r>   38.9974    0.0000 </r>
       <r>   39.0839    0.0000 </r>
       <r>   39.8639    0.0000 </r>
       <r>   40.3464    0.0000 </r>
       <r>   40.7708    0.0000 </r>
       <r>   40.8530    0.0000 </r>
       <r>   40.8530    0.0000 </r>
       <r>   40.9127    0.0000 </r>
       <r>   41.4340    0.0000 </r>
       <r>   41.7567    0.0000 </r>
       <r>   41.8901    0.0000 </r>
       <r>   41.8901    0.0000 </r>
       <r>   42.2188    0.0000 </r>
       <r>   42.4601    0.0000 </r>
       <r>   42.6584    0.0000 </r>
       <r>   42.7437    0.0000 </r>
       <r>   42.7437    0.0000 </r>
       <r>   42.7768    0.0000 </r>
       <r>   42.7768    0.0000 </r>
       <r>   42.9156    0.0000 </r>
       <r>   43.0425    0.0000 </r>
       <r>   43.0425    0.0000 </r>
       <r>   43.3712    0.0000 </r>
       <r>   43.6271    0.0000 </r>
       <r>   43.8570    0.0000 </r>
       <r>   43.8570    0.0000 </r>
       <r>   44.2920    0.0000 </r>
       <r>   44.2920    0.0000 </r>
       <r>   44.5117    0.0000 </r>
       <r>   44.9068    0.0000 </r>
       <r>   45.0454    0.0000 </r>
      </set>
      <set comment="kpoint 7">
       <r>   -6.2121    1.0000 </r>
       <r>   -4.5518    1.0000 </r>
       <r>   -4.5518    1.0000 </r>
       <r>   -3.2373    1.0000 </r>
       <r>   -1.4796    1.0000 </r>
       <r>   -1.4796    1.0000 </r>
       <r>    0.1177    1.0000 </r>
       <r>    1.1853    1.0000 </r>
       <r>    1.1853    1.0000 </r>
       <r>    2.2156    1.0000 </r>
       <r>    2.3358    1.0000 </r>
       <r>    3.1013    1.0000 </r>
       <r>    3.1013    1.0000 </r>
       <r>    3.5687    1.0000 </r>
       <r>    5.5130    0.0000 </r>
       <r>    5.5130    0.0000 </r>
       <r>    6.4041    0.0000 </r>
       <r>    6.4578    0.0000 </r>
       <r>    6.4578    0.0000 </r>
       <r>    8.5557    0.0000 </r>
       <r>    8.7278    0.0000 </r>
       <r>    8.7278    0.0000 </r>
       <r>    9.7223    0.0000 </r>
       <r>    9.7223    0.0000 </r>
       <r>    9.9532    0.0000 </r>
       <r>   10.3437    0.0000 </r>
       <r>   10.3437    0.0000 </r>
       <r>   10.4333    0.0000 </r>
       <r>   11.7709    0.0000 </r>
       <r>   11.7709    0.0000 </r>
       <r>   12.4932    0.0000 </r>
       <r>   12.9436    0.0000 </r>
       <r>   12.9436    0.0000 </r>
       <r>   13.9379    0.0000 </r>
       <r>   14.0243    0.0000 </r>
       <r>   15.2391    0.0000 </r>
       <r>   15.3444    0.0000 </r>
       <r>   15.3444    0.0000 </r>
       <r>   15.7911    0.0000 </r>
       <r>   15.9851    0.0000 </r>
       <r>   15.9851    0.0000 </r>
       <r>   16.9537    0.0000 </r>
       <r>   17.3248    0.0000 </r>
       <r>   17.4853    0.0000 </r>
       <r>   17.4853    0.0000 </r>
       <r>   17.7634    0.0000 </r>
       <r>   18.5214    0.0000 </r>
       <r>   18.5214    0.0000 </r>
       <r>   19.4330    0.0000 </r>
       <r>   19.4330    0.0000 </r>
       <r>   19.4645    0.0000 </r>
       <r>   20.2130    0.0000 </r>
       <r>   20.2130    0.0000 </r>
       <r>   22.0323    0.0000 </r>
       <r>   22.0323    0.0000 </r>
       <r>   22.3020    0.0000 </r>
       <r>   22.3628    0.0000 </r>
       <r>   22.8180    0.0000 </r>
       <r>   22.8180    0.0000 </r>
       <r>   23.1673    0.0000 </r>
       <r>   23.2013    0.0000 </r>
       <r>   23.2013    0.0000 </r>
       <r>   24.0080    0.0000 </r>
       <r>   24.0080    0.0000 </r>
       <r>   24.0107    0.0000 </r>
       <r>   24.3961    0.0000 </r>
       <r>   24.6527    0.0000 </r>
       <r>   24.6527    0.0000 </r>
       <r>   24.7583    0.0000 </r>
       <r>   25.8970    0.0000 </r>
       <r>   25.8970    0.0000 </r>
       <r>   26.2929    0.0000 </r>
       <r>   26.5719    0.0000 </r>
       <r>   26.6852    0.0000 </r>
       <r>   26.6852    0.0000 </r>
       <r>   27.7323    0.0000 </r>
       <r>   27.7323    0.0000 </r>
       <r>   28.8221    0.0000 </r>
       <r>   28.9589    0.0000 </r>
       <r>   28.9589    0.0000 </r>
       <r>   29.6939    0.0000 </r>
       <r>   29.8500    0.0000 </r>
       <r>   29.8500    0.0000 </r>
       <r>   29.9737    0.0000 </r>
       <r>   30.3837    0.0000 </r>
       <r>   30.3837    0.0000 </r>
       <r>   31.3433    0.0000 </r>
       <r>   32.2662    0.0000 </r>
       <r>   32.2662    0.0000 </r>
       <r>   32.5141    0.0000 </r>
       <r>   32.9326    0.0000 </r>
       <r>   32.9326    0.0000 </r>
       <r>   33.3784    0.0000 </r>
       <r>   33.5690    0.0000 </r>
       <r>   33.5690    0.0000 </r>
       <r>   33.6394    0.0000 </r>
       <r>   34.1263    0.0000 </r>
       <r>   34.1962    0.0000 </r>
       <r>   34.1962    0.0000 </r>
       <r>   34.5975    0.0000 </r>
       <r>   34.8998    0.0000 </r>
       <r>   34.8998    0.0000 </r>
       <r>   35.6825    0.0000 </r>
       <r>   35.8467    0.0000 </r>
       <r>   35.8467    0.0000 </r>
       <r>   36.1650    0.0000 </r>
       <r>   36.4073    0.0000 </r>
       <r>   36.4073    0.0000 </r>
       <r>   37.0392    0.0000 </r>
       <r>   37.3809    0.0000 </r>
       <r>   37.3809    0.0000 </r>
       <r>   37.8102    0.0000 </r>
       <r>   37.8102    0.0000 </r>
       <r>   38.8983    0.0000 </r>
       <r>   39.2206    0.0000 </r>
       <r>   39.2206    0.0000 </r>
       <r>   39.2883    0.0000 </r>
       <r>   39.8579    0.0000 </r>
       <r>   39.8579    0.0000 </r>
       <r>   40.5416    0.0000 </r>
       <r>   40.5416    0.0000 </r>
       <r>   41.0913    0.0000 </r>
       <r>   41.1385    0.0000 </r>
       <r>   41.1385    0.0000 </r>
       <r>   41.6410    0.0000 </r>
       <r>   41.8842    0.0000 </r>
       <r>   41.8842    0.0000 </r>
       <r>   42.0244    0.0000 </r>
       <r>   42.8245    0.0000 </r>
       <r>   42.8245    0.0000 </r>
       <r>   42.9212    0.0000 </r>
       <r>   43.3076    0.0000 </r>
       <r>   43.3291    0.0000 </r>
       <r>   43.3291    0.0000 </r>
       <r>   43.7762    0.0000 </r>
       <r>   44.6967    0.0000 </r>
       <r>   44.7684    0.0000 </r>
       <r>   44.7684    0.0000 </r>
       <r>   45.2664    0.0000 </r>
       <r>   45.6491    0.0000 </r>
       <r>   45.6491    0.0000 </r>
       <r>   46.7209    0.0000 </r>
       <r>   46.7214    0.0000 </r>
       <r>   46.8343    0.0000 </r>
      </set>
      <set comment="kpoint 8">
       <r>   -5.7239    1.0000 </r>
       <r>   -5.2607    1.0000 </r>
       <r>   -4.4316    1.0000 </r>
       <r>   -3.2273    1.0000 </r>
       <r>   -1.8167    1.0000 </r>
       <r>   -1.1953    1.0000 </r>
       <r>   -0.4149    1.0000 </r>
       <r>    1.1964    1.0000 </r>
       <r>    1.7757    1.0000 </r>
       <r>    2.1335    1.0000 </r>
       <r>    2.5268    1.0000 </r>
       <r>    2.6304    1.0000 </r>
       <r>    3.0439    1.0000 </r>
       <r>    4.3946    1.0000 </r>
       <r>    4.9143    0.0000 </r>
       <r>    5.3037    0.0000 </r>
       <r>    6.9898    0.0000 </r>
       <r>    7.6035    0.0000 </r>
       <r>    7.9023    0.0000 </r>
       <r>    7.9578    0.0000 </r>
       <r>    7.9678    0.0000 </r>
       <r>    8.5179    0.0000 </r>
       <r>    9.5690    0.0000 </r>
       <r>    9.6002    0.0000 </r>
       <r>   10.0202    0.0000 </r>
       <r>   10.1889    0.0000 </r>
       <r>   10.2403    0.0000 </r>
       <r>   10.7862    0.0000 </r>
       <r>   11.6847    0.0000 </r>
       <r>   11.9127    0.0000 </r>
       <r>   12.4108    0.0000 </r>
       <r>   12.7579    0.0000 </r>
       <r>   12.7980    0.0000 </r>
       <r>   13.1955    0.0000 </r>
       <r>   14.2712    0.0000 </r>
       <r>   14.6181    0.0000 </r>
       <r>   14.8767    0.0000 </r>
       <r>   15.0522    0.0000 </r>
       <r>   15.4533    0.0000 </r>
       <r>   15.5043    0.0000 </r>
       <r>   16.0036    0.0000 </r>
       <r>   16.5472    0.0000 </r>
       <r>   16.8715    0.0000 </r>
       <r>   16.8981    0.0000 </r>
       <r>   18.0837    0.0000 </r>
       <r>   18.6023    0.0000 </r>
       <r>   18.7300    0.0000 </r>
       <r>   18.8044    0.0000 </r>
       <r>   18.8760    0.0000 </r>
       <r>   19.0739    0.0000 </r>
       <r>   20.2182    0.0000 </r>
       <r>   20.5557    0.0000 </r>
       <r>   20.6422    0.0000 </r>
       <r>   21.0506    0.0000 </r>
       <r>   21.2453    0.0000 </r>
       <r>   21.9687    0.0000 </r>
       <r>   22.2136    0.0000 </r>
       <r>   22.4333    0.0000 </r>
       <r>   23.0106    0.0000 </r>
       <r>   23.1166    0.0000 </r>
       <r>   23.2667    0.0000 </r>
       <r>   23.5899    0.0000 </r>
       <r>   23.9784    0.0000 </r>
       <r>   24.1134    0.0000 </r>
       <r>   24.1143    0.0000 </r>
       <r>   24.7110    0.0000 </r>
       <r>   24.9188    0.0000 </r>
       <r>   25.6706    0.0000 </r>
       <r>   25.7505    0.0000 </r>
       <r>   26.2913    0.0000 </r>
       <r>   26.4790    0.0000 </r>
       <r>   26.6538    0.0000 </r>
       <r>   27.0258    0.0000 </r>
       <r>   27.4945    0.0000 </r>
       <r>   28.0022    0.0000 </r>
       <r>   28.0923    0.0000 </r>
       <r>   28.2736    0.0000 </r>
       <r>   28.7877    0.0000 </r>
       <r>   29.3132    0.0000 </r>
       <r>   29.3322    0.0000 </r>
       <r>   29.5253    0.0000 </r>
       <r>   30.0017    0.0000 </r>
       <r>   30.0858    0.0000 </r>
       <r>   30.2302    0.0000 </r>
       <r>   30.4558    0.0000 </r>
       <r>   30.8872    0.0000 </r>
       <r>   30.9658    0.0000 </r>
       <r>   31.1823    0.0000 </r>
       <r>   31.7836    0.0000 </r>
       <r>   31.8818    0.0000 </r>
       <r>   32.1304    0.0000 </r>
       <r>   32.2831    0.0000 </r>
       <r>   32.7327    0.0000 </r>
       <r>   33.4063    0.0000 </r>
       <r>   33.9751    0.0000 </r>
       <r>   34.1828    0.0000 </r>
       <r>   34.4262    0.0000 </r>
       <r>   34.4559    0.0000 </r>
       <r>   34.7942    0.0000 </r>
       <r>   34.8372    0.0000 </r>
       <r>   35.1049    0.0000 </r>
       <r>   35.2823    0.0000 </r>
       <r>   35.6069    0.0000 </r>
       <r>   35.7649    0.0000 </r>
       <r>   35.8026    0.0000 </r>
       <r>   36.1385    0.0000 </r>
       <r>   36.2249    0.0000 </r>
       <r>   36.6214    0.0000 </r>
       <r>   36.7171    0.0000 </r>
       <r>   37.0123    0.0000 </r>
       <r>   37.1275    0.0000 </r>
       <r>   37.1701    0.0000 </r>
       <r>   37.3727    0.0000 </r>
       <r>   37.6489    0.0000 </r>
       <r>   37.9032    0.0000 </r>
       <r>   38.2502    0.0000 </r>
       <r>   38.8004    0.0000 </r>
       <r>   39.3739    0.0000 </r>
       <r>   39.6749    0.0000 </r>
       <r>   39.7443    0.0000 </r>
       <r>   39.8701    0.0000 </r>
       <r>   40.4880    0.0000 </r>
       <r>   40.9112    0.0000 </r>
       <r>   41.1486    0.0000 </r>
       <r>   41.2478    0.0000 </r>
       <r>   41.6410    0.0000 </r>
       <r>   41.6665    0.0000 </r>
       <r>   42.2172    0.0000 </r>
       <r>   42.5278    0.0000 </r>
       <r>   42.6212    0.0000 </r>
       <r>   43.1857    0.0000 </r>
       <r>   43.2871    0.0000 </r>
       <r>   43.5081    0.0000 </r>
       <r>   43.5956    0.0000 </r>
       <r>   44.1520    0.0000 </r>
       <r>   44.1600    0.0000 </r>
       <r>   44.7958    0.0000 </r>
       <r>   45.0490    0.0000 </r>
       <r>   45.2225    0.0000 </r>
       <r>   45.4310    0.0000 </r>
       <r>   45.8768    0.0000 </r>
       <r>   46.2789    0.0000 </r>
       <r>   47.0634    0.0000 </r>
       <r>   47.0990    0.0000 </r>
      </set>
      <set comment="kpoint 9">
       <r>   -5.1434    1.0000 </r>
       <r>   -5.0988    1.0000 </r>
       <r>   -5.0988    1.0000 </r>
       <r>   -3.4098    1.0000 </r>
       <r>   -1.4665    1.0000 </r>
       <r>   -1.4124    1.0000 </r>
       <r>   -1.4124    1.0000 </r>
       <r>    1.2342    1.0000 </r>
       <r>    2.1857    1.0000 </r>
       <r>    2.3350    1.0000 </r>
       <r>    2.3350    1.0000 </r>
       <r>    3.3008    1.0000 </r>
       <r>    3.3780    1.0000 </r>
       <r>    4.7159    0.8321 </r>
       <r>    5.5482    0.0000 </r>
       <r>    5.5482    0.0000 </r>
       <r>    6.9550    0.0000 </r>
       <r>    6.9550    0.0000 </r>
       <r>    7.6023    0.0000 </r>
       <r>    8.2743    0.0000 </r>
       <r>    8.2743    0.0000 </r>
       <r>    8.4034    0.0000 </r>
       <r>    8.5622    0.0000 </r>
       <r>    9.0465    0.0000 </r>
       <r>    9.2392    0.0000 </r>
       <r>   10.2920    0.0000 </r>
       <r>   10.2920    0.0000 </r>
       <r>   10.7860    0.0000 </r>
       <r>   12.5160    0.0000 </r>
       <r>   12.6488    0.0000 </r>
       <r>   12.6640    0.0000 </r>
       <r>   12.6640    0.0000 </r>
       <r>   13.8192    0.0000 </r>
       <r>   13.8192    0.0000 </r>
       <r>   13.9188    0.0000 </r>
       <r>   13.9275    0.0000 </r>
       <r>   14.2250    0.0000 </r>
       <r>   14.8921    0.0000 </r>
       <r>   14.8921    0.0000 </r>
       <r>   15.3118    0.0000 </r>
       <r>   16.1993    0.0000 </r>
       <r>   16.1993    0.0000 </r>
       <r>   16.2173    0.0000 </r>
       <r>   16.8839    0.0000 </r>
       <r>   18.1073    0.0000 </r>
       <r>   18.1073    0.0000 </r>
       <r>   18.2500    0.0000 </r>
       <r>   18.8130    0.0000 </r>
       <r>   19.0199    0.0000 </r>
       <r>   19.2550    0.0000 </r>
       <r>   19.2550    0.0000 </r>
       <r>   19.4819    0.0000 </r>
       <r>   20.0681    0.0000 </r>
       <r>   21.5455    0.0000 </r>
       <r>   21.5455    0.0000 </r>
       <r>   22.0201    0.0000 </r>
       <r>   22.3314    0.0000 </r>
       <r>   22.5248    0.0000 </r>
       <r>   22.6398    0.0000 </r>
       <r>   22.6398    0.0000 </r>
       <r>   23.6964    0.0000 </r>
       <r>   23.6964    0.0000 </r>
       <r>   23.7554    0.0000 </r>
       <r>   25.0328    0.0000 </r>
       <r>   25.2841    0.0000 </r>
       <r>   25.9243    0.0000 </r>
       <r>   25.9243    0.0000 </r>
       <r>   26.0807    0.0000 </r>
       <r>   26.9796    0.0000 </r>
       <r>   26.9796    0.0000 </r>
       <r>   27.1754    0.0000 </r>
       <r>   27.1897    0.0000 </r>
       <r>   27.3395    0.0000 </r>
       <r>   27.4975    0.0000 </r>
       <r>   27.4975    0.0000 </r>
       <r>   28.5244    0.0000 </r>
       <r>   28.7779    0.0000 </r>
       <r>   28.7779    0.0000 </r>
       <r>   29.2420    0.0000 </r>
       <r>   29.2428    0.0000 </r>
       <r>   29.4882    0.0000 </r>
       <r>   30.3616    0.0000 </r>
       <r>   30.3616    0.0000 </r>
       <r>   30.4027    0.0000 </r>
       <r>   30.4996    0.0000 </r>
       <r>   30.6971    0.0000 </r>
       <r>   30.6971    0.0000 </r>
       <r>   31.5049    0.0000 </r>
       <r>   32.0114    0.0000 </r>
       <r>   32.0114    0.0000 </r>
       <r>   32.1115    0.0000 </r>
       <r>   32.3803    0.0000 </r>
       <r>   32.7142    0.0000 </r>
       <r>   33.0288    0.0000 </r>
       <r>   33.0288    0.0000 </r>
       <r>   33.6169    0.0000 </r>
       <r>   33.6169    0.0000 </r>
       <r>   33.7280    0.0000 </r>
       <r>   33.7311    0.0000 </r>
       <r>   34.1556    0.0000 </r>
       <r>   34.9641    0.0000 </r>
       <r>   35.2152    0.0000 </r>
       <r>   35.2152    0.0000 </r>
       <r>   35.3154    0.0000 </r>
       <r>   35.6902    0.0000 </r>
       <r>   36.1575    0.0000 </r>
       <r>   36.2442    0.0000 </r>
       <r>   36.2442    0.0000 </r>
       <r>   36.8921    0.0000 </r>
       <r>   37.5075    0.0000 </r>
       <r>   37.5075    0.0000 </r>
       <r>   37.5170    0.0000 </r>
       <r>   37.8809    0.0000 </r>
       <r>   38.1651    0.0000 </r>
       <r>   38.1651    0.0000 </r>
       <r>   38.2663    0.0000 </r>
       <r>   39.0581    0.0000 </r>
       <r>   39.2325    0.0000 </r>
       <r>   39.2325    0.0000 </r>
       <r>   39.2340    0.0000 </r>
       <r>   39.6617    0.0000 </r>
       <r>   39.8061    0.0000 </r>
       <r>   39.8061    0.0000 </r>
       <r>   40.7982    0.0000 </r>
       <r>   41.0454    0.0000 </r>
       <r>   41.7442    0.0000 </r>
       <r>   41.7442    0.0000 </r>
       <r>   41.8308    0.0000 </r>
       <r>   42.1187    0.0000 </r>
       <r>   42.8406    0.0000 </r>
       <r>   42.8827    0.0000 </r>
       <r>   43.0206    0.0000 </r>
       <r>   43.0206    0.0000 </r>
       <r>   43.5097    0.0000 </r>
       <r>   44.1533    0.0000 </r>
       <r>   44.1533    0.0000 </r>
       <r>   44.3386    0.0000 </r>
       <r>   45.0275    0.0000 </r>
       <r>   45.0275    0.0000 </r>
       <r>   45.5312    0.0000 </r>
       <r>   45.5762    0.0000 </r>
       <r>   45.7242    0.0000 </r>
       <r>   45.7244    0.0000 </r>
       <r>   46.1906    0.0000 </r>
      </set>
      <set comment="kpoint 10">
       <r>   -4.9745    1.0000 </r>
       <r>   -4.9745    1.0000 </r>
       <r>   -4.9745    1.0000 </r>
       <r>   -3.4459    1.0000 </r>
       <r>   -1.9419    1.0000 </r>
       <r>   -1.9419    1.0000 </r>
       <r>   -1.9419    1.0000 </r>
       <r>    0.6747    1.0000 </r>
       <r>    3.3342    1.0000 </r>
       <r>    3.3342    1.0000 </r>
       <r>    3.3342    1.0000 </r>
       <r>    3.4546    1.0000 </r>
       <r>    3.4546    1.0000 </r>
       <r>    5.9131    0.0000 </r>
       <r>    5.9131    0.0000 </r>
       <r>    5.9131    0.0000 </r>
       <r>    6.2745    0.0000 </r>
       <r>    6.2745    0.0000 </r>
       <r>    6.2745    0.0000 </r>
       <r>    7.8706    0.0000 </r>
       <r>    7.8706    0.0000 </r>
       <r>    7.8706    0.0000 </r>
       <r>    8.6712    0.0000 </r>
       <r>    8.6712    0.0000 </r>
       <r>    9.7236    0.0000 </r>
       <r>    9.7259    0.0000 </r>
       <r>    9.7259    0.0000 </r>
       <r>    9.7259    0.0000 </r>
       <r>   12.5603    0.0000 </r>
       <r>   12.8291    0.0000 </r>
       <r>   12.8291    0.0000 </r>
       <r>   12.8291    0.0000 </r>
       <r>   15.2195    0.0000 </r>
       <r>   15.2195    0.0000 </r>
       <r>   15.2195    0.0000 </r>
       <r>   15.3443    0.0000 </r>
       <r>   15.3443    0.0000 </r>
       <r>   15.6718    0.0000 </r>
       <r>   15.6718    0.0000 </r>
       <r>   15.6718    0.0000 </r>
       <r>   16.1741    0.0000 </r>
       <r>   16.1741    0.0000 </r>
       <r>   16.1741    0.0000 </r>
       <r>   16.6616    0.0000 </r>
       <r>   16.7916    0.0000 </r>
       <r>   16.7916    0.0000 </r>
       <r>   16.7916    0.0000 </r>
       <r>   17.4479    0.0000 </r>
       <r>   17.4479    0.0000 </r>
       <r>   17.4479    0.0000 </r>
       <r>   17.7190    0.0000 </r>
       <r>   17.7190    0.0000 </r>
       <r>   18.9558    0.0000 </r>
       <r>   21.1695    0.0000 </r>
       <r>   21.1695    0.0000 </r>
       <r>   21.1695    0.0000 </r>
       <r>   24.6228    0.0000 </r>
       <r>   24.6552    0.0000 </r>
       <r>   24.6552    0.0000 </r>
       <r>   24.6552    0.0000 </r>
       <r>   25.1214    0.0000 </r>
       <r>   25.1214    0.0000 </r>
       <r>   25.1214    0.0000 </r>
       <r>   25.6788    0.0000 </r>
       <r>   26.2347    0.0000 </r>
       <r>   26.2347    0.0000 </r>
       <r>   26.2347    0.0000 </r>
       <r>   26.4186    0.0000 </r>
       <r>   26.4186    0.0000 </r>
       <r>   26.4222    0.0000 </r>
       <r>   26.4222    0.0000 </r>
       <r>   26.4222    0.0000 </r>
       <r>   26.7069    0.0000 </r>
       <r>   26.7069    0.0000 </r>
       <r>   26.7069    0.0000 </r>
       <r>   28.3340    0.0000 </r>
       <r>   28.3340    0.0000 </r>
       <r>   28.3340    0.0000 </r>
       <r>   29.5855    0.0000 </r>
       <r>   29.5855    0.0000 </r>
       <r>   30.3103    0.0000 </r>
       <r>   31.1276    0.0000 </r>
       <r>   31.1276    0.0000 </r>
       <r>   31.1276    0.0000 </r>
       <r>   31.3355    0.0000 </r>
       <r>   31.3355    0.0000 </r>
       <r>   31.3355    0.0000 </r>
       <r>   31.8517    0.0000 </r>
       <r>   31.8517    0.0000 </r>
       <r>   32.0249    0.0000 </r>
       <r>   32.0249    0.0000 </r>
       <r>   32.0249    0.0000 </r>
       <r>   32.4425    0.0000 </r>
       <r>   32.4425    0.0000 </r>
       <r>   32.4425    0.0000 </r>
       <r>   32.9225    0.0000 </r>
       <r>   32.9225    0.0000 </r>
       <r>   32.9225    0.0000 </r>
       <r>   33.8754    0.0000 </r>
       <r>   33.8754    0.0000 </r>
       <r>   33.8755    0.0000 </r>
       <r>   35.5385    0.0000 </r>
       <r>   36.3196    0.0000 </r>
       <r>   36.3196    0.0000 </r>
       <r>   36.3196    0.0000 </r>
       <r>   36.4287    0.0000 </r>
       <r>   36.4287    0.0000 </r>
       <r>   36.4287    0.0000 </r>
       <r>   36.9572    0.0000 </r>
       <r>   36.9572    0.0000 </r>
       <r>   36.9572    0.0000 </r>
       <r>   37.5118    0.0000 </r>
       <r>   37.5118    0.0000 </r>
       <r>   37.9412    0.0000 </r>
       <r>   37.9412    0.0000 </r>
       <r>   37.9412    0.0000 </r>
       <r>   38.2271    0.0000 </r>
       <r>   38.2641    0.0000 </r>
       <r>   38.2641    0.0000 </r>
       <r>   38.2641    0.0000 </r>
       <r>   39.7678    0.0000 </r>
       <r>   39.7678    0.0000 </r>
       <r>   39.7678    0.0000 </r>
       <r>   40.7014    0.0000 </r>
       <r>   40.7014    0.0000 </r>
       <r>   40.9023    0.0000 </r>
       <r>   41.5192    0.0000 </r>
       <r>   41.7336    0.0000 </r>
       <r>   41.7336    0.0000 </r>
       <r>   41.7336    0.0000 </r>
       <r>   41.8506    0.0000 </r>
       <r>   41.8506    0.0000 </r>
       <r>   41.8506    0.0000 </r>
       <r>   42.4831    0.0000 </r>
       <r>   42.4831    0.0000 </r>
       <r>   42.4831    0.0000 </r>
       <r>   45.4694    0.0000 </r>
       <r>   45.4694    0.0000 </r>
       <r>   45.7190    0.0000 </r>
       <r>   45.7190    0.0000 </r>
       <r>   45.7190    0.0000 </r>
       <r>   47.1921    0.0000 </r>
       <r>   47.1924    0.0000 </r>
       <r>   47.1927    0.0000 </r>
      </set>
     </set>
     <set comment="spin 2">
      <set comment="kpoint 1">
       <r>   -6.9296    1.0000 </r>
       <r>   -3.2568    1.0000 </r>
       <r>   -3.2568    1.0000 </r>
       <r>   -2.8923    1.0000 </r>
       <r>   -2.8923    1.0000 </r>
       <r>   -2.8923    1.0000 </r>
       <r>    1.2184    1.0000 </r>
       <r>    1.6925    1.0000 </r>
       <r>    1.6925    1.0000 </r>
       <r>    1.6925    1.0000 </r>
       <r>    2.9313    1.0000 </r>
       <r>    2.9313    1.0000 </r>
       <r>    2.9313    1.0000 </r>
       <r>    5.5789    0.0000 </r>
       <r>    5.5789    0.0000 </r>
       <r>    5.5828    0.0000 </r>
       <r>    5.5828    0.0000 </r>
       <r>    5.5828    0.0000 </r>
       <r>    6.1582    0.0000 </r>
       <r>    6.1582    0.0000 </r>
       <r>    6.1582    0.0000 </r>
       <r>    6.2847    0.0000 </r>
       <r>    8.5363    0.0000 </r>
       <r>    8.5363    0.0000 </r>
       <r>    8.5363    0.0000 </r>
       <r>   10.1544    0.0000 </r>
       <r>   12.9515    0.0000 </r>
       <r>   12.9515    0.0000 </r>
       <r>   13.1395    0.0000 </r>
       <r>   14.5874    0.0000 </r>
       <r>   14.5874    0.0000 </r>
       <r>   14.5874    0.0000 </r>
       <r>   15.6186    0.0000 </r>
       <r>   15.6186    0.0000 </r>
       <r>   15.6186    0.0000 </r>
       <r>   15.6764    0.0000 </r>
       <r>   15.6764    0.0000 </r>
[...]
        <r>  0.0000  0.0067  0.0001  0.0059  0.0000  0.0000  0.0000  0.0000  0.0000 </r>
       </set>
       <set comment="band 117">
        <r>  0.0170  0.0002  0.0002  0.0002  0.0000  0.0000  0.0000  0.0000  0.0000 </r>
        <r>  0.0000  0.0000  0.0000  0.0000  0.0000  0.0000  0.0000  0.0000  0.0000 </r>
        <r>  0.0170  0.0002  0.0002  0.0002  0.0000  0.0000  0.0000  0.0000  0.0000 </r>
        <r>  0.0000  0.0000  0.0000  0.0000  0.0000  0.0000  0.0000  0.0000  0.0000 </r>
        <r>  0.0170  0.0002  0.0002  0.0002  0.0000  0.0000  0.0000  0.0000  0.0000 </r>
        <r>  0.0000  0.0000  0.0000  0.0000  0.0000  0.0000  0.0000  0.0000  0.0000 </r>
        <r>  0.0170  0.0002  0.0002  0.0002  0.0000  0.0000  0.0000  0.0000  0.0000 </r>
       </set>
       <set comment="band 118">
        <r>  0.0003  0.0002  0.0000  0.0000  0.0000  0.0000  0.0000  0.0000  0.0000 </r>
        <r>  0.0036  0.0002  0.0000  0.0012  0.0000  0.0000  0.0000  0.0000  0.0000 </r>
        <r>  0.0016  0.0002  0.0000  0.0000  0.0000  0.0000  0.0000  0.0000  0.0000 </r>
        <r>  0.0163  0.0000  0.0002  0.0003  0.0000  0.0000  0.0000  0.0000  0.0000 </r>
        <r>  0.0041  0.0002  0.0000  0.0000  0.0000  0.0000  0.0000  0.0000  0.0000 </r>
        <r>  0.0024  0.0003  0.0012  0.0000  0.0000  0.0000  0.0000  0.0000  0.0000 </r>
        <r>  0.0030  0.0002  0.0000  0.0000  0.0000  0.0000  0.0000  0.0000  0.0000 </r>
       </set>
       <set comment="band 119">
        <r>  0.0035  0.0000  0.0000  0.0003  0.0000  0.0000  0.0000  0.0000  0.0000 </r>
        <r>  0.0013  0.0014  0.0000  0.0001  0.0000  0.0000  0.0000  0.0000  0.0000 </r>
        <r>  0.0009  0.0000  0.0000  0.0002  0.0000  0.0000  0.0000  0.0000  0.0000 </r>
        <r>  0.0016  0.0000  0.0014  0.0001  0.0000  0.0000  0.0000  0.0000  0.0000 </r>
        <r>  0.0022  0.0000  0.0000  0.0002  0.0000  0.0000  0.0000  0.0000  0.0000 </r>
        <r>  0.0194  0.0001  0.0001  0.0000  0.0000  0.0000  0.0000  0.0000  0.0000 </r>
        <r>  0.0025  0.0000  0.0000  0.0003  0.0000  0.0000  0.0000  0.0000  0.0000 </r>
       </set>
       <set comment="band 120">
        <r>  0.0030  0.0001  0.0002  0.0000  0.0000  0.0000  0.0000  0.0000  0.0000 </r>
        <r>  0.0174  0.0000  0.0000  0.0003  0.0000  0.0000  0.0000  0.0000  0.0000 </r>
        <r>  0.0042  0.0001  0.0002  0.0000  0.0000  0.0000  0.0000  0.0000  0.0000 </r>
        <r>  0.0044  0.0000  0.0000  0.0013  0.0000  0.0000  0.0000  0.0000  0.0000 </r>
        <r>  0.0005  0.0001  0.0002  0.0000  0.0000  0.0000  0.0000  0.0000  0.0000 </r>
        <r>  0.0005  0.0013  0.0003  0.0000  0.0000  0.0000  0.0000  0.0000  0.0000 </r>
        <r>  0.0013  0.0001  0.0002  0.0000  0.0000  0.0000  0.0000  0.0000  0.0000 </r>
       </set>
       <set comment="band 121">
        <r>  0.0166  0.0031  0.0028  0.0036  0.0000  0.0000  0.0000  0.0000  0.0000 </r>
        <r>  0.0027  0.0005  0.0000  0.0038  0.0000  0.0000  0.0000  0.0000  0.0000 </r>
        <r>  0.0219  0.0043  0.0038  0.0046  0.0000  0.0000  0.0000  0.0000  0.0000 </r>
        <r>  0.0008  0.0000  0.0005  0.0136  0.0000  0.0000  0.0000  0.0000  0.0000 </r>
        <r>  0.0015  0.0004  0.0001  0.0004  0.0000  0.0000  0.0000  0.0000  0.0000 </r>
        <r>  0.0001  0.0136  0.0038  0.0000  0.0000  0.0000  0.0000  0.0000  0.0000 </r>
        <r>  0.0052  0.0013  0.0008  0.0010  0.0000  0.0000  0.0000  0.0000  0.0000 </r>
       </set>
       <set comment="band 122">
        <r>  0.0162  0.0034  0.0034  0.0026  0.0000  0.0000  0.0000  0.0000  0.0000 </r>
        <r>  0.0002  0.0160  0.0000  0.0008  0.0000  0.0000  0.0000  0.0000  0.0000 </r>
        <r>  0.0056  0.0013  0.0012  0.0007  0.0000  0.0000  0.0000  0.0000  0.0000 </r>
        <r>  0.0002  0.0000  0.0160  0.0011  0.0000  0.0000  0.0000  0.0000  0.0000 </r>
        <r>  0.0099  0.0022  0.0020  0.0015  0.0000  0.0000  0.0000  0.0000  0.0000 </r>
        <r>  0.0031  0.0011  0.0008  0.0000  0.0000  0.0000  0.0000  0.0000  0.0000 </r>
        <r>  0.0135  0.0027  0.0029  0.0022  0.0000  0.0000  0.0000  0.0000  0.0000 </r>
       </set>
       <set comment="band 123">
        <r>  0.0012  0.0001  0.0004  0.0003  0.0000  0.0000  0.0000  0.0000  0.0000 </r>
        <r>  0.0006  0.0014  0.0000  0.0133  0.0000  0.0000  0.0000  0.0000  0.0000 </r>
        <r>  0.0064  0.0010  0.0015  0.0012  0.0000  0.0000  0.0000  0.0000  0.0000 </r>
        <r>  0.0026  0.0000  0.0014  0.0032  0.0000  0.0000  0.0000  0.0000  0.0000 </r>
        <r>  0.0225  0.0039  0.0044  0.0047  0.0000  0.0000  0.0000  0.0000  0.0000 </r>
        <r>  0.0003  0.0032  0.0133  0.0000  0.0000  0.0000  0.0000  0.0000  0.0000 </r>
        <r>  0.0152  0.0026  0.0029  0.0034  0.0000  0.0000  0.0000  0.0000  0.0000 </r>
       </set>
       <set comment="band 124">
        <r>  0.0000  0.0040  0.0068  0.0017  0.0000  0.0000  0.0000  0.0000  0.0000 </r>
        <r>  0.0000  0.0000  0.0071  0.0000  0.0000  0.0000  0.0000  0.0000  0.0000 </r>
        <r>  0.0000  0.0040  0.0068  0.0017  0.0000  0.0000  0.0000  0.0000  0.0000 </r>
        <r>  0.0000  0.0041  0.0000  0.0000  0.0000  0.0000  0.0000  0.0000  0.0000 </r>
        <r>  0.0000  0.0040  0.0068  0.0017  0.0000  0.0000  0.0000  0.0000  0.0000 </r>
        <r>  0.0000  0.0000  0.0000  0.0018  0.0000  0.0000  0.0000  0.0000  0.0000 </r>
        <r>  0.0000  0.0040  0.0068  0.0017  0.0000  0.0000  0.0000  0.0000  0.0000 </r>
       </set>
       <set comment="band 125">
        <r>  0.0000  0.0043  0.0015  0.0066  0.0000  0.0000  0.0000  0.0000  0.0000 </r>
        <r>  0.0000  0.0000  0.0016  0.0000  0.0000  0.0000  0.0000  0.0000  0.0000 </r>
        <r>  0.0000  0.0043  0.0015  0.0066  0.0000  0.0000  0.0000  0.0000  0.0000 </r>
        <r>  0.0000  0.0045  0.0000  0.0000  0.0000  0.0000  0.0000  0.0000  0.0000 </r>
        <r>  0.0000  0.0043  0.0015  0.0066  0.0000  0.0000  0.0000  0.0000  0.0000 </r>
        <r>  0.0000  0.0000  0.0000  0.0069  0.0000  0.0000  0.0000  0.0000  0.0000 </r>
        <r>  0.0000  0.0043  0.0015  0.0066  0.0000  0.0000  0.0000  0.0000  0.0000 </r>
       </set>
       <set comment="band 126">
        <r>  0.0000  0.0000  0.0000  0.0000  0.0000  0.0000  0.0000  0.0000  0.0000 </r>
        <r>  0.0000  0.0000  0.0000  0.0000  0.0000  0.0000  0.0000  0.0000  0.0000 </r>
        <r>  0.0000  0.0000  0.0000  0.0000  0.0000  0.0000  0.0000  0.0000  0.0000 </r>
        <r>  0.0000  0.0000  0.0000  0.0000  0.0000  0.0000  0.0000  0.0000  0.0000 </r>
        <r>  0.0000  0.0000  0.0000  0.0000  0.0000  0.0000  0.0000  0.0000  0.0000 </r>
        <r>  0.0000  0.0000  0.0000  0.0000  0.0000  0.0000  0.0000  0.0000  0.0000 </r>
        <r>  0.0000  0.0000  0.0000  0.0000  0.0000  0.0000  0.0000  0.0000  0.0000 </r>
       </set>
       <set comment="band 127">
        <r>  0.0055  0.0025  0.0025  0.0025  0.0000  0.0000  0.0000  0.0000  0.0000 </r>
        <r>  0.0000  0.0000  0.0047  0.0000  0.0000  0.0000  0.0000  0.0000  0.0000 </r>
        <r>  0.0055  0.0025  0.0025  0.0025  0.0000  0.0000  0.0000  0.0000  0.0000 </r>
        <r>  0.0000  0.0047  0.0000  0.0000  0.0000  0.0000  0.0000  0.0000  0.0000 </r>
        <r>  0.0055  0.0025  0.0025  0.0025  0.0000  0.0000  0.0000  0.0000  0.0000 </r>
        <r>  0.0000  0.0000  0.0000  0.0047  0.0000  0.0000  0.0000  0.0000  0.0000 </r>
        <r>  0.0055  0.0025  0.0025  0.0025  0.0000  0.0000  0.0000  0.0000  0.0000 </r>
       </set>
       <set comment="band 128">
        <r>  0.0000  0.0045  0.0017  0.0005  0.0000  0.0000  0.0000  0.0000  0.0000 </r>
        <r>  0.0112  0.0001  0.0000  0.0011  0.0000  0.0000  0.0000  0.0000  0.0000 </r>
        <r>  0.0001  0.0040  0.0019  0.0002  0.0000  0.0000  0.0000  0.0000  0.0000 </r>
        <r>  0.0359  0.0000  0.0001  0.0004  0.0000  0.0000  0.0000  0.0000  0.0000 </r>
        <r>  0.0005  0.0029  0.0006  0.0002  0.0000  0.0000  0.0000  0.0000  0.0000 </r>
        <r>  0.0036  0.0004  0.0011  0.0000  0.0000  0.0000  0.0000  0.0000  0.0000 </r>
        <r>  0.0003  0.0033  0.0007  0.0009  0.0000  0.0000  0.0000  0.0000  0.0000 </r>
       </set>
       <set comment="band 129">
        <r>  0.0003  0.0001  0.0004  0.0044  0.0000  0.0000  0.0000  0.0000  0.0000 </r>
        <r>  0.0019  0.0015  0.0000  0.0001  0.0000  0.0000  0.0000  0.0000  0.0000 </r>
        <r>  0.0001  0.0006  0.0003  0.0050  0.0000  0.0000  0.0000  0.0000  0.0000 </r>
        <r>  0.0023  0.0000  0.0015  0.0001  0.0000  0.0000  0.0000  0.0000  0.0000 </r>
        <r>  0.0002  0.0006  0.0002  0.0050  0.0000  0.0000  0.0000  0.0000  0.0000 </r>
        <r>  0.0464  0.0001  0.0001  0.0000  0.0000  0.0000  0.0000  0.0000  0.0000 </r>
        <r>  0.0003  0.0000  0.0003  0.0044  0.0000  0.0000  0.0000  0.0000  0.0000 </r>
       </set>
       <set comment="band 130">
        <r>  0.0004  0.0007  0.0033  0.0004  0.0000  0.0000  0.0000  0.0000  0.0000 </r>
        <r>  0.0376  0.0000  0.0000  0.0004  0.0000  0.0000  0.0000  0.0000  0.0000 </r>
        <r>  0.0005  0.0007  0.0031  0.0001  0.0000  0.0000  0.0000  0.0000  0.0000 </r>
        <r>  0.0124  0.0000  0.0000  0.0012  0.0000  0.0000  0.0000  0.0000  0.0000 </r>
        <r>  0.0000  0.0019  0.0045  0.0002  0.0000  0.0000  0.0000  0.0000  0.0000 </r>
        <r>  0.0007  0.0012  0.0004  0.0000  0.0000  0.0000  0.0000  0.0000  0.0000 </r>
        <r>  0.0001  0.0020  0.0043  0.0000  0.0000  0.0000  0.0000  0.0000  0.0000 </r>
       </set>
       <set comment="band 131">
        <r>  0.0000  0.0001  0.0004  0.0010  0.0000  0.0000  0.0000  0.0000  0.0000 </r>
        <r>  0.0000  0.0000  0.0000  0.0000  0.0000  0.0000  0.0000  0.0000  0.0000 </r>
        <r>  0.0000  0.0007  0.0001  0.0010  0.0000  0.0000  0.0000  0.0000  0.0000 </r>
        <r>  0.0000  0.0000  0.0000  0.0000  0.0000  0.0000  0.0000  0.0000  0.0000 </r>
        <r>  0.0000  0.0001  0.0001  0.0001  0.0000  0.0000  0.0000  0.0000  0.0000 </r>
        <r>  0.0000  0.0000  0.0000  0.0000  0.0000  0.0000  0.0000  0.0000  0.0000 </r>
        <r>  0.0000  0.0007  0.0004  0.0001  0.0000  0.0000  0.0000  0.0000  0.0000 </r>
       </set>
       <set comment="band 132">
        <r>  0.0000  0.0011  0.0007  0.0001  0.0000  0.0000  0.0000  0.0000  0.0000 </r>
        <r>  0.0000  0.0000  0.0000  0.0000  0.0000  0.0000  0.0000  0.0000  0.0000 </r>
        <r>  0.0000  0.0001  0.0002  0.0001  0.0000  0.0000  0.0000  0.0000  0.0000 </r>
        <r>  0.0000  0.0000  0.0000  0.0000  0.0000  0.0000  0.0000  0.0000  0.0000 </r>
        <r>  0.0000  0.0011  0.0002  0.0003  0.0000  0.0000  0.0000  0.0000  0.0000 </r>
        <r>  0.0000  0.0000  0.0000  0.0000  0.0000  0.0000  0.0000  0.0000  0.0000 </r>
        <r>  0.0000  0.0001  0.0007  0.0003  0.0000  0.0000  0.0000  0.0000  0.0000 </r>
       </set>
       <set comment="band 133">
        <r>  0.0000  0.0000  0.0001  0.0002  0.0000  0.0000  0.0000  0.0000  0.0000 </r>
        <r>  0.0000  0.0000  0.0000  0.0000  0.0000  0.0000  0.0000  0.0000  0.0000 </r>
        <r>  0.0000  0.0005  0.0009  0.0002  0.0000  0.0000  0.0000  0.0000  0.0000 </r>
        <r>  0.0000  0.0000  0.0000  0.0000  0.0000  0.0000  0.0000  0.0000  0.0000 </r>
        <r>  0.0000  0.0000  0.0009  0.0007  0.0000  0.0000  0.0000  0.0000  0.0000 </r>
        <r>  0.0000  0.0000  0.0000  0.0000  0.0000  0.0000  0.0000  0.0000  0.0000 </r>
        <r>  0.0000  0.0005  0.0001  0.0007  0.0000  0.0000  0.0000  0.0000  0.0000 </r>
       </set>
       <set comment="band 134">
        <r>  0.0276  0.0002  0.0002  0.0003  0.0000  0.0000  0.0000  0.0000  0.0000 </r>
        <r>  0.0039  0.0000  0.0000  0.0000  0.0000  0.0000  0.0000  0.0000  0.0000 </r>
        <r>  0.0314  0.0003  0.0002  0.0004  0.0000  0.0000  0.0000  0.0000  0.0000 </r>
        <r>  0.0012  0.0000  0.0000  0.0001  0.0000  0.0000  0.0000  0.0000  0.0000 </r>
        <r>  0.0028  0.0001  0.0000  0.0000  0.0000  0.0000  0.0000  0.0000  0.0000 </r>
        <r>  0.0000  0.0001  0.0000  0.0000  0.0000  0.0000  0.0000  0.0000  0.0000 </r>
        <r>  0.0048  0.0001  0.0000  0.0001  0.0000  0.0000  0.0000  0.0000  0.0000 </r>
       </set>
       <set comment="band 135">
        <r>  0.0210  0.0002  0.0002  0.0001  0.0000  0.0000  0.0000  0.0000  0.0000 </r>
        <r>  0.0001  0.0001  0.0000  0.0000  0.0000  0.0000  0.0000  0.0000  0.0000 </r>
        <r>  0.0109  0.0001  0.0001  0.0000  0.0000  0.0000  0.0000  0.0000  0.0000 </r>
        <r>  0.0002  0.0000  0.0001  0.0000  0.0000  0.0000  0.0000  0.0000  0.0000 </r>
        <r>  0.0131  0.0002  0.0001  0.0001  0.0000  0.0000  0.0000  0.0000  0.0000 </r>
        <r>  0.0047  0.0000  0.0000  0.0000  0.0000  0.0000  0.0000  0.0000  0.0000 </r>
        <r>  0.0216  0.0002  0.0003  0.0001  0.0000  0.0000  0.0000  0.0000  0.0000 </r>
       </set>
       <set comment="band 136">
        <r>  0.0013  0.0000  0.0000  0.0000  0.0000  0.0000  0.0000  0.0000  0.0000 </r>
        <r>  0.0011  0.0000  0.0000  0.0001  0.0000  0.0000  0.0000  0.0000  0.0000 </r>
        <r>  0.0076  0.0000  0.0001  0.0001  0.0000  0.0000  0.0000  0.0000  0.0000 </r>
        <r>  0.0037  0.0000  0.0000  0.0000  0.0000  0.0000  0.0000  0.0000  0.0000 </r>
        <r>  0.0341  0.0002  0.0003  0.0004  0.0000  0.0000  0.0000  0.0000  0.0000 </r>
        <r>  0.0003  0.0000  0.0001  0.0000  0.0000  0.0000  0.0000  0.0000  0.0000 </r>
        <r>  0.0236  0.0002  0.0002  0.0003  0.0000  0.0000  0.0000  0.0000  0.0000 </r>
       </set>
       <set comment="band 137">
        <r>  0.0000  0.0004  0.0004  0.0003  0.0000  0.0000  0.0000  0.0000  0.0000 </r>
        <r>  0.0000  0.0000  0.0002  0.0000  0.0000  0.0000  0.0000  0.0000  0.0000 </r>
        <r>  0.0000  0.0004  0.0004  0.0003  0.0000  0.0000  0.0000  0.0000  0.0000 </r>
        <r>  0.0000  0.0002  0.0000  0.0000  0.0000  0.0000  0.0000  0.0000  0.0000 </r>
        <r>  0.0000  0.0004  0.0004  0.0003  0.0000  0.0000  0.0000  0.0000  0.0000 </r>
        <r>  0.0000  0.0000  0.0000  0.0002  0.0000  0.0000  0.0000  0.0000  0.0000 </r>
        <r>  0.0000  0.0004  0.0004  0.0003  0.0000  0.0000  0.0000  0.0000  0.0000 </r>
       </set>
       <set comment="band 138">
        <r>  0.0000  0.0003  0.0004  0.0004  0.0000  0.0000  0.0000  0.0000  0.0000 </r>
        <r>  0.0000  0.0000  0.0002  0.0000  0.0000  0.0000  0.0000  0.0000  0.0000 </r>
        <r>  0.0000  0.0003  0.0004  0.0004  0.0000  0.0000  0.0000  0.0000  0.0000 </r>
        <r>  0.0000  0.0002  0.0000  0.0000  0.0000  0.0000  0.0000  0.0000  0.0000 </r>
        <r>  0.0000  0.0003  0.0004  0.0004  0.0000  0.0000  0.0000  0.0000  0.0000 </r>
        <r>  0.0000  0.0000  0.0000  0.0003  0.0000  0.0000  0.0000  0.0000  0.0000 </r>
        <r>  0.0000  0.0003  0.0004  0.0004  0.0000  0.0000  0.0000  0.0000  0.0000 </r>
       </set>
       <set comment="band 139">
        <r>  0.0000  0.0001  0.0000  0.0000  0.0000  0.0000  0.0000  0.0000  0.0000 </r>
        <r>  0.0000  0.0001  0.0000  0.0001  0.0000  0.0000  0.0000  0.0000  0.0000 </r>
        <r>  0.0000  0.0000  0.0002  0.0000  0.0000  0.0000  0.0000  0.0000  0.0000 </r>
        <r>  0.0000  0.0000  0.0001  0.0000  0.0000  0.0000  0.0000  0.0000  0.0000 </r>
        <r>  0.0000  0.0001  0.0002  0.0001  0.0000  0.0000  0.0000  0.0000  0.0000 </r>
        <r>  0.0000  0.0000  0.0001  0.0000  0.0000  0.0000  0.0000  0.0000  0.0000 </r>
        <r>  0.0000  0.0000  0.0000  0.0001  0.0000  0.0000  0.0000  0.0000  0.0000 </r>
       </set>
       <set comment="band 140">
        <r>  0.0000  0.0001  0.0002  0.0001  0.0000  0.0000  0.0000  0.0000  0.0000 </r>
        <r>  0.0000  0.0001  0.0000  0.0001  0.0000  0.0000  0.0000  0.0000  0.0000 </r>
        <r>  0.0000  0.0000  0.0000  0.0001  0.0000  0.0000  0.0000  0.0000  0.0000 </r>
        <r>  0.0000  0.0000  0.0001  0.0000  0.0000  0.0000  0.0000  0.0000  0.0000 </r>
        <r>  0.0000  0.0001  0.0000  0.0001  0.0000  0.0000  0.0000  0.0000  0.0000 </r>
        <r>  0.0000  0.0000  0.0001  0.0000  0.0000  0.0000  0.0000  0.0000  0.0000 </r>
        <r>  0.0000  0.0000  0.0002  0.0001  0.0000  0.0000  0.0000  0.0000  0.0000 </r>
       </set>
       <set comment="band 141">
        <r>  0.0000  0.0001  0.0000  0.0001  0.0000  0.0000  0.0000  0.0000  0.0000 </r>
        <r>  0.0000  0.0000  0.0000  0.0000  0.0000  0.0000  0.0000  0.0000  0.0000 </r>
        <r>  0.0000  0.0001  0.0000  0.0001  0.0000  0.0000  0.0000  0.0000  0.0000 </r>
        <r>  0.0000  0.0000  0.0000  0.0002  0.0000  0.0000  0.0000  0.0000  0.0000 </r>
        <r>  0.0000  0.0001  0.0000  0.0001  0.0000  0.0000  0.0000  0.0000  0.0000 </r>
        <r>  0.0000  0.0002  0.0000  0.0000  0.0000  0.0000  0.0000  0.0000  0.0000 </r>
        <r>  0.0000  0.0001  0.0000  0.0001  0.0000  0.0000  0.0000  0.0000  0.0000 </r>
       </set>
       <set comment="band 142">
        <r>  0.0009  0.0004  0.0001  0.0001  0.0000  0.0000  0.0000  0.0000  0.0000 </r>
        <r>  0.0001  0.0000  0.0000  0.0001  0.0000  0.0000  0.0000  0.0000  0.0000 </r>
        <r>  0.0042  0.0003  0.0001  0.0000  0.0000  0.0000  0.0000  0.0000  0.0000 </r>
        <r>  0.0003  0.0000  0.0000  0.0000  0.0000  0.0000  0.0000  0.0000  0.0000 </r>
        <r>  0.0120  0.0002  0.0000  0.0001  0.0000  0.0000  0.0000  0.0000  0.0000 </r>
        <r>  0.0001  0.0000  0.0000  0.0000  0.0000  0.0000  0.0000  0.0000  0.0000 </r>
        <r>  0.0095  0.0002  0.0000  0.0001  0.0000  0.0000  0.0000  0.0000  0.0000 </r>
       </set>
       <set comment="band 143">
        <r>  0.0090  0.0000  0.0000  0.0003  0.0000  0.0000  0.0000  0.0000  0.0000 </r>
        <r>  0.0000  0.0001  0.0000  0.0000  0.0000  0.0000  0.0000  0.0000  0.0000 </r>
        <r>  0.0030  0.0001  0.0001  0.0004  0.0000  0.0000  0.0000  0.0000  0.0000 </r>
        <r>  0.0000  0.0000  0.0001  0.0000  0.0000  0.0000  0.0000  0.0000  0.0000 </r>
        <r>  0.0068  0.0001  0.0000  0.0003  0.0000  0.0000  0.0000  0.0000  0.0000 </r>
        <r>  0.0004  0.0000  0.0000  0.0000  0.0000  0.0000  0.0000  0.0000  0.0000 </r>
        <r>  0.0076  0.0000  0.0001  0.0003  0.0000  0.0000  0.0000  0.0000  0.0000 </r>
       </set>
       <set comment="band 144">
        <r>  0.0099  0.0000  0.0003  0.0000  0.0000  0.0000  0.0000  0.0000  0.0000 </r>
        <r>  0.0003  0.0000  0.0000  0.0000  0.0000  0.0000  0.0000  0.0000  0.0000 </r>
        <r>  0.0126  0.0001  0.0003  0.0000  0.0000  0.0000  0.0000  0.0000  0.0000 </r>
        <r>  0.0001  0.0000  0.0000  0.0001  0.0000  0.0000  0.0000  0.0000  0.0000 </r>
        <r>  0.0010  0.0001  0.0004  0.0000  0.0000  0.0000  0.0000  0.0000  0.0000 </r>
        <r>  0.0000  0.0001  0.0000  0.0000  0.0000  0.0000  0.0000  0.0000  0.0000 </r>
        <r>  0.0028  0.0002  0.0003  0.0000  0.0000  0.0000  0.0000  0.0000  0.0000 </r>
       </set>
      </set>
     </set>
    </set>
   </array>
  </projected>
 </calculation>
 <structure name="finalpos" >
  <crystal>
   <varray name="basis" >
    <v>       5.43784835       0.00000000       0.00000000 </v>
    <v>       0.00000000       5.43784835       0.00000000 </v>
    <v>       0.00000000       0.00000000       5.43784835 </v>
   </varray>
   <i name="volume">    160.79823434 </i>
   <varray name="rec_basis" >
    <v>       0.18389626       0.00000000       0.00000000 </v>
    <v>       0.00000000       0.18389626       0.00000000 </v>
    <v>       0.00000000       0.00000000       0.18389626 </v>
   </varray>
  </crystal>
  <varray name="positions" >
   <v>       0.25434293       0.74565707       0.25434293 </v>
   <v>       0.00000000       0.00000000       0.50000000 </v>
   <v>       0.25434293       0.25434293       0.74565707 </v>
   <v>       0.00000000       0.50000000       0.00000000 </v>
   <v>       0.74565707       0.74565707       0.74565707 </v>
   <v>       0.50000000       0.00000000       0.00000000 </v>
   <v>       0.74565707       0.25434293       0.25434293 </v>
  </varray>
 </structure>
</modeling>
