 vasp.6.2.1 16May21 (build Oct 27 2021 18:14:32) complex                        
  
 executed on             LinuxIFC date 2021.10.29  15:48:59
 running on    4 total cores
 distrk:  each k-point on    4 cores,    1 groups
 distr:  one band on NCORE=   4 cores,    1 groups


--------------------------------------------------------------------------------------------------------


 INCAR:
   ALGO = All
   EDIFF = 1e-05
   EDIFFG = -0.02
   ENAUG = 1360
   ENCUT = 680
   GGA = Pe
   HFSCREEN = 0.2
   IBRION = 2
   ISIF = 3
   ISMEAR = -5
   ISPIN = 2
   KSPACING = 0.4
   LAECHG = True
   LASPH = True
   LCHARG = True
   LELF = True
   LHFCALC = True
   LMIXTAU = True
   LORBIT = 11
   LREAL = Auto
   LVTOT = True
   LWAVE = False
   MAGMOM = 2*0.6
   NCORE = 4
   NELM = 200
   NSW = 1
   PREC = Accurate
   PRECFOCK = Fast
   SIGMA = 0.05

 POTCAR:    PAW_PBE Si 05Jan2001                  
 WARNING: For LVTOT=.TRUE., VASP.5.x writes the TOTAL local potential to the
     file LOCPOT. If you want only the Hartree contributions, use LVHAR=.TRUE.
     instead. 

 POTCAR:    PAW_PBE Si 05Jan2001                  
   VRHFIN =Si: s2p2                                                                                 
   LEXCH  = PE                                                                                      
   EATOM  =   103.0669 eV,    7.5752 Ry                                                             
                                                                                                    
   TITEL  = PAW_PBE Si 05Jan2001                                                                    
   LULTRA =        F    use ultrasoft PP ?                                                          
   IUNSCR =        1    unscreen: 0-lin 1-nonlin 2-no                                               
   RPACOR =    1.500    partial core radius                                                         
   POMASS =   28.085; ZVAL   =    4.000    mass and valenz                                          
   RCORE  =    1.900    outmost cutoff radius                                                       
   RWIGS  =    2.480; RWIGS  =    1.312    wigner-seitz radius (au A)                               
   ENMAX  =  245.345; ENMIN  =  184.009 eV                                                          
   ICORE  =        2    local potential                                                             
   LCOR   =        T    correct aug charges                                                         
   LPAW   =        T    paw PP                                                                      
   EAUG   =  322.069                                                                                
   DEXC   =    0.000                                                                                
   RMAX   =    1.950    core radius for proj-oper                                                   
   RAUG   =    1.300    factor for augmentation sphere                                              
   RDEP   =    1.993    radius for radial grids                                                     
   RDEPT  =    1.837    core radius for aug-charge                                                  
                                                                                                    
   Atomic configuration                                                                             
    6 entries                                                                                       
     n  l   j            E        occ.                                                              
     1  0  0.50     -1785.8828   2.0000                                                             
     2  0  0.50      -139.4969   2.0000                                                             
     2  1  1.50       -95.5546   6.0000                                                             
     3  0  0.50       -10.8127   2.0000                                                             
     3  1  0.50        -4.0811   2.0000                                                             
     3  2  1.50        -4.0817   0.0000                                                             
   Description                                                                                      
     l       E           TYP  RCUT    TYP  RCUT                                                     
     0    -10.8127223     23  1.900                                                                 
     0     -7.6451159     23  1.900                                                                 
     1     -4.0811372     23  1.900                                                                 
     1      2.4879257     23  1.900                                                                 
     2     -4.0817478      7  1.900                                                                 
  local pseudopotential read in
  partial core-charges read in
  partial kinetic energy density read in
  atomic valenz-charges read in
  non local Contribution for L=           0  read in
    real space projection operators read in
  non local Contribution for L=           0  read in
    real space projection operators read in
  non local Contribution for L=           1  read in
    real space projection operators read in
  non local Contribution for L=           1  read in
    real space projection operators read in
    PAW grid and wavefunctions read in
 
   number of l-projection  operators is LMAX  =           4
   number of lm-projection operators is LMMAX =           8
 
 -----------------------------------------------------------------------------
|                                                                             |
|               ----> ADVICE to this user running VASP <----                  |
|                                                                             |
|     You have a (more or less) 'small supercell' and for smaller cells       |
|     it is recommended to use the reciprocal-space projection scheme!        |
|     The real-space optimization is not efficient for small cells and it     |
|     is also less accurate ...                                               |
|     Therefore, set LREAL=.FALSE. in the INCAR file.                         |
|                                                                             |
 -----------------------------------------------------------------------------

 Optimization of the real space projectors (new method)

 maximal supplied QI-value         = 19.84
 optimisation between [QCUT,QGAM] = [ 13.29, 26.59] = [ 49.49,197.96] Ry 
 Optimized for a Real-space Cutoff    1.12 Angstroem

   l    n(q)    QCUT    max X(q) W(low)/X(q) W(high)/X(q)  e(spline) 
   0      9    13.294   159.560    0.23E-03    0.88E-04    0.53E-07
   0      9    13.294   115.863    0.22E-03    0.87E-04    0.52E-07
   1      8    13.294    88.339    0.81E-04    0.17E-03    0.12E-06
   1      8    13.294    48.592    0.79E-04    0.17E-03    0.12E-06
  PAW_PBE Si 05Jan2001                  :
 energy of atom  1       EATOM= -103.0669
 kinetic energy error for atom=    0.0003 (will be added to EATOM!!)
 
 
 POSCAR: Si2
  positions in direct lattice
  No initial velocities read in
 exchange correlation table for  LEXCH =        8
   RHO(1)=    0.500       N(1)  =     2000
   RHO(2)=  100.500       N(2)  =     4000
 


--------------------------------------------------------------------------------------------------------


 ion  position               nearest neighbor table
   1  0.250  0.250  0.250-   2 2.37   2 2.37   2 2.37   2 2.37
   2  0.000  0.000  0.000-   1 2.37   1 2.37   1 2.37   1 2.37
 
  LATTYP: Found a face centered cubic cell.
 ALAT       =     5.4687280757
  
  Lattice vectors:
  
 A1 = (   3.3488980000,   0.0000000000,   1.9334870000)
 A2 = (   1.1162990000,   3.1573720000,   1.9334870000)
 A3 = (   0.0000000000,   0.0000000000,   3.8669750000)


Analysis of symmetry for initial positions (statically):
=====================================================================
 Subroutine PRICEL returns:
 Original cell was already a primitive cell.
 

 Routine SETGRP: Setting up the symmetry group for a 
 face centered cubic supercell.


 Subroutine GETGRP returns: Found 48 space group operations
 (whereof 24 operations were pure point group operations)
 out of a pool of 48 trial point group operations.


The static configuration has the point symmetry T_d .
 The point group associated with its full space group is O_h .


Analysis of symmetry for dynamics (positions and initial velocities):
=====================================================================
 Subroutine PRICEL returns:
 Original cell was already a primitive cell.
 

 Routine SETGRP: Setting up the symmetry group for a 
 face centered cubic supercell.


 Subroutine GETGRP returns: Found 48 space group operations
 (whereof 24 operations were pure point group operations)
 out of a pool of 48 trial point group operations.


The dynamic configuration has the point symmetry T_d .
 The point group associated with its full space group is O_h .


Analysis of structural, dynamic, and magnetic symmetry:
=====================================================================
 Subroutine PRICEL returns:
 Original cell was already a primitive cell.
 

 Routine SETGRP: Setting up the symmetry group for a 
 face centered cubic supercell.


 Subroutine GETGRP returns: Found 48 space group operations
 (whereof 24 operations were pure point group operations)
 out of a pool of 48 trial point group operations.


The overall configuration has the point symmetry T_d .
 The point group associated with its full space group is O_h .


 Subroutine INISYM returns: Found 48 space group operations
 (whereof 24 operations are pure point group operations),
 and found     1 'primitive' translations


----------------------------------------------------------------------------------------

                                     Primitive cell                                     

  volume of cell :      40.8883

  direct lattice vectors                    reciprocal lattice vectors
     3.348898000  0.000000000  1.933487000     0.298605691 -0.105573000  0.000000000
     1.116299000  3.157372000  1.933487000     0.000000000  0.316719094  0.000000000
     0.000000000  0.000000000  3.866975000    -0.149302807 -0.105573020  0.258600069

  length of vectors
     3.866974243  3.866974707  3.866975000     0.316719145  0.316719094  0.316719096

  position of ions in fractional coordinates (direct lattice)
     0.250000000  0.250000000  0.250000000
     0.000000000  0.000000000  0.000000000

  ion indices of the primitive-cell ions
   primitive index   ion index
                 1           1
                 2           2

----------------------------------------------------------------------------------------

 
 -----------------------------------------------------------------------------
|                                                                             |
|           W    W    AA    RRRRR   N    N  II  N    N   GGGG   !!!           |
|           W    W   A  A   R    R  NN   N  II  NN   N  G    G  !!!           |
|           W    W  A    A  R    R  N N  N  II  N N  N  G       !!!           |
|           W WW W  AAAAAA  RRRRR   N  N N  II  N  N N  G  GGG   !            |
|           WW  WW  A    A  R   R   N   NN  II  N   NN  G    G                |
|           W    W  A    A  R    R  N    N  II  N    N   GGGG   !!!           |
|                                                                             |
|     The requested file  could not be found or opened for reading            |
|     k-point information. Automatic k-point generation is used as a          |
|     fallback, which may lead to unwanted results.                           |
|                                                                             |
 -----------------------------------------------------------------------------

 

Automatic generation of k-mesh.
 Grid dimensions derived from KSPACING:
 generate k-points for:    5    5    5

 Generating k-lattice:

  Cartesian coordinates                     Fractional coordinates (reciprocal lattice)
     0.059721138 -0.021114600  0.000000000     0.200000000 -0.000000000  0.000000000
     0.000000000  0.063343819  0.000000000     0.000000000  0.200000000  0.000000000
    -0.029860561 -0.021114604  0.051720014    -0.000000000  0.000000000  0.200000000

  Length of vectors
     0.063343829  0.063343819  0.063343819

  Shift w.r.t. Gamma in fractional coordinates (k-lattice)
     0.000000000  0.000000000  0.000000000

 TETIRR: Found     24 inequivalent tetrahedra from      750
 
 Subroutine IBZKPT returns following result:
 ===========================================
 
 Found     10 irreducible k-points:
 
 Following reciprocal coordinates:
            Coordinates               Weight
  0.000000  0.000000  0.000000      1.000000
  0.200000  0.000000  0.000000      8.000000
  0.400000  0.000000  0.000000      8.000000
  0.200000  0.200000  0.000000      6.000000
  0.400000  0.200000  0.000000     24.000000
 -0.400000  0.200000  0.000000     24.000000
 -0.200000  0.200000  0.000000     12.000000
  0.400000  0.400000  0.000000      6.000000
 -0.400000  0.400000  0.000000     12.000000
 -0.400000  0.400000  0.200000     24.000000
 
 Following cartesian coordinates:
            Coordinates               Weight
  0.000000  0.000000  0.000000      1.000000
  0.059721 -0.021115  0.000000      8.000000
  0.119442 -0.042229  0.000000      8.000000
  0.059721  0.042229  0.000000      6.000000
  0.119442  0.021115  0.000000     24.000000
 -0.119442  0.105573  0.000000     24.000000
 -0.059721  0.084458  0.000000     12.000000
  0.119442  0.084458  0.000000      6.000000
 -0.119442  0.168917  0.000000     12.000000
 -0.149303  0.147802  0.051720     24.000000
 
 
 Subroutine IBZKPT_HF returns following result:
 ==============================================
 
 Found    125 k-points in 1st BZ
 the following    125 k-points will be used (e.g. in the exchange kernel)
 Following reciprocal coordinates:   # in IRBZ
  0.000000  0.000000  0.000000    0.00800000   1 t-inv F
  0.200000  0.000000  0.000000    0.00800000   2 t-inv F
  0.400000  0.000000  0.000000    0.00800000   3 t-inv F
  0.200000  0.200000  0.000000    0.00800000   4 t-inv F
  0.400000  0.200000  0.000000    0.00800000   5 t-inv F
 -0.400000  0.200000  0.000000    0.00800000   6 t-inv F
 -0.200000  0.200000  0.000000    0.00800000   7 t-inv F
  0.400000  0.400000  0.000000    0.00800000   8 t-inv F
 -0.400000  0.400000  0.000000    0.00800000   9 t-inv F
 -0.400000  0.400000  0.200000    0.00800000  10 t-inv F
  0.000000  0.200000  0.000000    0.00800000   2 t-inv F
  0.000000  0.000000  0.200000    0.00800000   2 t-inv F
 -0.200000 -0.200000 -0.200000    0.00800000   2 t-inv F
 -0.200000 -0.000000  0.000000    0.00800000   2 t-inv F
  0.000000 -0.200000 -0.000000    0.00800000   2 t-inv F
 -0.000000  0.000000 -0.200000    0.00800000   2 t-inv F
  0.200000  0.200000  0.200000    0.00800000   2 t-inv F
  0.000000  0.400000  0.000000    0.00800000   3 t-inv F
  0.000000  0.000000  0.400000    0.00800000   3 t-inv F
 -0.400000 -0.400000 -0.400000    0.00800000   3 t-inv F
 -0.400000 -0.000000  0.000000    0.00800000   3 t-inv F
  0.000000 -0.400000 -0.000000    0.00800000   3 t-inv F
 -0.000000  0.000000 -0.400000    0.00800000   3 t-inv F
  0.400000  0.400000  0.400000    0.00800000   3 t-inv F
  0.000000  0.200000  0.200000    0.00800000   4 t-inv F
  0.200000  0.000000  0.200000    0.00800000   4 t-inv F
 -0.200000 -0.200000  0.000000    0.00800000   4 t-inv F
 -0.200000 -0.000000 -0.200000    0.00800000   4 t-inv F
  0.000000 -0.200000 -0.200000    0.00800000   4 t-inv F
  0.000000  0.400000  0.200000    0.00800000   5 t-inv F
  0.200000  0.000000  0.400000    0.00800000   5 t-inv F
 -0.200000 -0.200000  0.200000    0.00800000   5 t-inv F
 -0.400000 -0.200000 -0.400000    0.00800000   5 t-inv F
  0.200000  0.400000  0.000000    0.00800000   5 t-inv F
  0.200000 -0.200000 -0.200000    0.00800000   5 t-inv F
 -0.400000 -0.400000 -0.200000    0.00800000   5 t-inv F
  0.000000  0.200000  0.400000    0.00800000   5 t-inv F
 -0.200000  0.200000 -0.200000    0.00800000   5 t-inv F
 -0.200000 -0.400000 -0.400000    0.00800000   5 t-inv F
  0.400000  0.000000  0.200000    0.00800000   5 t-inv F
 -0.400000 -0.200000  0.000000    0.00800000   5 t-inv F
  0.000000 -0.400000 -0.200000    0.00800000   5 t-inv F
 -0.200000  0.000000 -0.400000    0.00800000   5 t-inv F
  0.200000  0.200000 -0.200000    0.00800000   5 t-inv F
  0.400000  0.200000  0.400000    0.00800000   5 t-inv F
 -0.200000 -0.400000  0.000000    0.00800000   5 t-inv F
 -0.200000  0.200000  0.200000    0.00800000   5 t-inv F
  0.400000  0.400000  0.200000    0.00800000   5 t-inv F
  0.000000 -0.200000 -0.400000    0.00800000   5 t-inv F
  0.200000 -0.200000  0.200000    0.00800000   5 t-inv F
  0.200000  0.400000  0.400000    0.00800000   5 t-inv F
 -0.400000  0.000000 -0.200000    0.00800000   5 t-inv F
  0.000000 -0.400000  0.200000    0.00800000   6 t-inv F
  0.200000  0.000000 -0.400000    0.00800000   6 t-inv F
 -0.200000 -0.200000 -0.600000    0.00800000   6 t-inv F
  0.400000  0.600000  0.400000    0.00800000   6 t-inv F
  0.200000 -0.400000  0.000000    0.00800000   6 t-inv F
 -0.600000 -0.200000 -0.200000    0.00800000   6 t-inv F
  0.400000  0.400000  0.600000    0.00800000   6 t-inv F
  0.000000  0.200000 -0.400000    0.00800000   6 t-inv F
 -0.200000 -0.600000 -0.200000    0.00800000   6 t-inv F
  0.600000  0.400000  0.400000    0.00800000   6 t-inv F
 -0.400000  0.000000  0.200000    0.00800000   6 t-inv F
  0.400000 -0.200000  0.000000    0.00800000   6 t-inv F
  0.000000  0.400000 -0.200000    0.00800000   6 t-inv F
 -0.200000  0.000000  0.400000    0.00800000   6 t-inv F
  0.200000  0.200000  0.600000    0.00800000   6 t-inv F
 -0.400000 -0.600000 -0.400000    0.00800000   6 t-inv F
 -0.200000  0.400000  0.000000    0.00800000   6 t-inv F
  0.600000  0.200000  0.200000    0.00800000   6 t-inv F
 -0.400000 -0.400000 -0.600000    0.00800000   6 t-inv F
  0.000000 -0.200000  0.400000    0.00800000   6 t-inv F
  0.200000  0.600000  0.200000    0.00800000   6 t-inv F
 -0.600000 -0.400000 -0.400000    0.00800000   6 t-inv F
  0.400000  0.000000 -0.200000    0.00800000   6 t-inv F
  0.000000 -0.200000  0.200000    0.00800000   7 t-inv F
  0.200000  0.000000 -0.200000    0.00800000   7 t-inv F
 -0.200000 -0.200000 -0.400000    0.00800000   7 t-inv F
  0.200000  0.400000  0.200000    0.00800000   7 t-inv F
  0.200000 -0.200000  0.000000    0.00800000   7 t-inv F
 -0.400000 -0.200000 -0.200000    0.00800000   7 t-inv F
  0.200000  0.200000  0.400000    0.00800000   7 t-inv F
  0.000000  0.200000 -0.200000    0.00800000   7 t-inv F
 -0.200000 -0.400000 -0.200000    0.00800000   7 t-inv F
  0.400000  0.200000  0.200000    0.00800000   7 t-inv F
 -0.200000  0.000000  0.200000    0.00800000   7 t-inv F
  0.000000  0.400000  0.400000    0.00800000   8 t-inv F
  0.400000  0.000000  0.400000    0.00800000   8 t-inv F
 -0.400000 -0.400000 -0.000000    0.00800000   8 t-inv F
 -0.400000  0.000000 -0.400000    0.00800000   8 t-inv F
 -0.000000 -0.400000 -0.400000    0.00800000   8 t-inv F
  0.000000 -0.400000  0.400000    0.00800000   9 t-inv F
  0.400000  0.000000 -0.400000    0.00800000   9 t-inv F
 -0.400000 -0.400000 -0.800000    0.00800000   9 t-inv F
  0.400000  0.800000  0.400000    0.00800000   9 t-inv F
  0.400000 -0.400000  0.000000    0.00800000   9 t-inv F
 -0.800000 -0.400000 -0.400000    0.00800000   9 t-inv F
  0.400000  0.400000  0.800000    0.00800000   9 t-inv F
  0.000000  0.400000 -0.400000    0.00800000   9 t-inv F
 -0.400000 -0.800000 -0.400000    0.00800000   9 t-inv F
  0.800000  0.400000  0.400000    0.00800000   9 t-inv F
 -0.400000  0.000000  0.400000    0.00800000   9 t-inv F
  0.200000 -0.400000  0.400000    0.00800000  10 t-inv F
  0.400000  0.200000 -0.400000    0.00800000  10 t-inv F
 -0.400000 -0.200000 -0.800000    0.00800000  10 t-inv F
  0.400000  0.800000  0.600000    0.00800000  10 t-inv F
 -0.200000 -0.600000  0.200000    0.00800000  10 t-inv F
  0.200000 -0.600000 -0.200000    0.00800000  10 t-inv F
 -0.800000 -0.200000 -0.400000    0.00800000  10 t-inv F
  0.600000  0.800000  0.400000    0.00800000  10 t-inv F
  0.600000  0.400000  0.800000    0.00800000  10 t-inv F
  0.200000 -0.200000 -0.600000    0.00800000  10 t-inv F
 -0.800000 -0.400000 -0.200000    0.00800000  10 t-inv F
 -0.200000  0.200000 -0.600000    0.00800000  10 t-inv F
 -0.400000 -0.800000 -0.200000    0.00800000  10 t-inv F
  0.400000  0.600000  0.800000    0.00800000  10 t-inv F
  0.800000  0.600000  0.400000    0.00800000  10 t-inv F
 -0.600000  0.200000 -0.200000    0.00800000  10 t-inv F
 -0.200000 -0.800000 -0.400000    0.00800000  10 t-inv F
 -0.600000 -0.200000  0.200000    0.00800000  10 t-inv F
 -0.200000 -0.400000 -0.800000    0.00800000  10 t-inv F
  0.800000  0.400000  0.600000    0.00800000  10 t-inv F
 -0.400000  0.200000  0.400000    0.00800000  10 t-inv F
  0.400000 -0.400000  0.200000    0.00800000  10 t-inv F
  0.200000  0.400000 -0.400000    0.00800000  10 t-inv F


--------------------------------------------------------------------------------------------------------




 Dimension of arrays:
   k-points           NKPTS =     10   k-points in BZ     NKDIM =    125   number of bands    NBANDS=      9
   number of dos      NEDOS =    301   number of ions     NIONS =      2
   non local maximal  LDIM  =      4   non local SUM 2l+1 LMDIM =      8
   total plane-waves  NPLWV =  46656
   max r-space proj   IRMAX =   6824   max aug-charges    IRDMAX=  38346
   dimension x,y,z NGX =    36 NGY =   36 NGZ =   36
   dimension x,y,z NGXF=    72 NGYF=   72 NGZF=   72
   support grid    NGXF=    72 NGYF=   72 NGZF=   72
   ions per type =               2
   NGX,Y,Z   is equivalent  to a cutoff of  15.48, 15.48, 15.48 a.u.
   NGXF,Y,Z  is equivalent  to a cutoff of  30.95, 30.95, 30.95 a.u.

 SYSTEM =  unknown system                          
 POSCAR =  Si2                                     

 Startparameter for this run:
   NWRITE =      2    write-flag & timer
   PREC   = accura    normal or accurate (medium, high low for compatibility)
   ISTART =      0    job   : 0-new  1-cont  2-samecut
   ICHARG =      2    charge: 1-file 2-atom 10-const
   ISPIN  =      2    spin polarized calculation?
   LNONCOLLINEAR =      F non collinear calculations
   LSORBIT =      F    spin-orbit coupling
   INIWAV =      1    electr: 0-lowe 1-rand  2-diag
   LASPH  =      T    aspherical Exc in radial PAW
 Electronic Relaxation 1
   ENCUT  =  680.0 eV  49.98 Ry    7.07 a.u.   8.22  8.22  8.22*2*pi/ulx,y,z
   ENINI  =  680.0     initial cutoff
   ENAUG  = 1360.0 eV  augmentation charge cutoff
   NELM   =    200;   NELMIN=  2; NELMDL= -5     # of ELM steps 
   EDIFF  = 0.1E-04   stopping-criterion for ELM
   LREAL  =      T    real-space projection
   NLSPLINE    = F    spline interpolate recip. space projectors
   LCOMPAT=      F    compatible to vasp.4.4
   GGA_COMPAT  = T    GGA compatible to vasp.4.4-vasp.4.6
   LMAXPAW     = -100 max onsite density
   LMAXMIX     =    2 max onsite mixed and CHGCAR
   VOSKOWN=      0    Vosko Wilk Nusair interpolation
   ROPT   =   -0.00025
 Ionic relaxation
   EDIFFG = -.2E-01   stopping-criterion for IOM
   NSW    =      1    number of steps for IOM
   NBLOCK =      1;   KBLOCK =      1    inner block; outer block 
   IBRION =      2    ionic relax: 0-MD 1-quasi-New 2-CG
   NFREE  =      1    steps in history (QN), initial steepest desc. (CG)
   ISIF   =      3    stress and relaxation
   IWAVPR =     11    prediction:  0-non 1-charg 2-wave 3-comb
   ISYM   =      3    0-nonsym 1-usesym 2-fastsym
   LCORR  =      T    Harris-Foulkes like correction to forces

   POTIM  = 0.5000    time-step for ionic-motion
   TEIN   =    0.0    initial temperature
   TEBEG  =    0.0;   TEEND  =   0.0 temperature during run
   SMASS  =  -3.00    Nose mass-parameter (am)
   estimated Nose-frequenzy (Omega)   =  0.10E-29 period in steps = 0.13E+47 mass=  -0.342E-27a.u.
   SCALEE = 1.0000    scale energy and forces
   NPACO  =    256;   APACO  = 16.0  distance and # of slots for P.C.
   PSTRESS=    0.0 pullay stress

  Mass of Ions in am
   POMASS =  28.09
  Ionic Valenz
   ZVAL   =   4.00
  Atomic Wigner-Seitz radii
   RWIGS  =  -1.00
  virtual crystal weights 
   VCA    =   1.00
   NELECT =       8.0000    total number of electrons
   NUPDOWN=      -1.0000    fix difference up-down

 DOS related values:
   EMIN   =  10.00;   EMAX   =-10.00  energy-range for DOS
   EFERMI =   0.00
   ISMEAR =    -5;   SIGMA  =   0.05  broadening in eV -4-tet -1-fermi 0-gaus

 Electronic relaxation 2 (details)
   IALGO  =     58    algorithm
   LDIAG  =      T    sub-space diagonalisation (order eigenvalues)
   LSUBROT=      F    optimize rotation matrix (better conditioning)
   TURBO    =      0    0=normal 1=particle mesh
   IRESTART =      0    0=no restart 2=restart with 2 vectors
   NREBOOT  =      0    no. of reboots
   NMIN     =      0    reboot dimension
   EREF     =   0.00    reference energy to select bands
   IMIX   =      4    mixing-type and parameters
     AMIX     =   0.40;   BMIX     =  1.00
     AMIX_MAG =   1.60;   BMIX_MAG =  1.00
     AMIN     =   0.10
     WC   =   100.;   INIMIX=   1;  MIXPRE=   1;  MAXMIX= -45

 Intra band minimization:
   WEIMIN = 0.0010     energy-eigenvalue tresh-hold
   EBREAK =  0.28E-06  absolut break condition
   DEPER  =   0.30     relativ break condition  

   TIME   =   0.40     timestep for ELM

  volume/ion in A,a.u.               =      20.44       137.96
  Fermi-wavevector in a.u.,A,eV,Ry     =   0.950397  1.795990 12.289528  0.903255
  Thomas-Fermi vector in A             =   2.078770
 
 Write flags
   LWAVE        =      F    write WAVECAR
   LDOWNSAMPLE  =      F    k-point downsampling of WAVECAR
   LCHARG       =      T    write CHGCAR
   LVTOT        =      T    write LOCPOT, total local potential
   LVHAR        =      F    write LOCPOT, Hartree potential only
   LELF         =      T    write electronic localiz. function (ELF)
   LORBIT       =     11    0 simple, 1 ext, 2 COOP (PROOUT), +10 PAW based schemes


 Dipole corrections
   LMONO  =      F    monopole corrections only (constant potential shift)
   LDIPOL =      F    correct potential (dipole corrections)
   IDIPOL =      0    1-x, 2-y, 3-z, 4-all directions 
   EPSILON=  1.0000000 bulk dielectric constant

 Exchange correlation treatment:
   GGA     =    PE    GGA type
   LEXCH   =     8    internal setting for exchange type
   VOSKOWN=      0    Vosko Wilk Nusair interpolation
   EXXOEP  =     0    0=HF, 1=EXX-LHF (local Hartree Fock) 2=EXX OEP
   LHFCALC =     T    Hartree Fock is set to
   LSYMGRAD=     F    symmetrize gradient (conserves proper symmetry)
   PRECFOCK=fast      Normal, Fast or Accurate (Low or Medium for compatibility)
   LRHFCALC=     F    long range Hartree Fock
   LRSCOR  =     F    long range correlation only (use DFT for short range part)
   LTHOMAS =     F    Thomas Fermi screening in HF
   LMODELHF=     F    short range full HF, long range fraction AEXX
   LFOCKACE=     T    use Adeptively-Compressed-Exchange operator
   ENCUT4O =  -1.0   cutoff for four orbital integrals eV
   LMAXFOCK=     4    L truncation for augmentation on plane wave grid
   LMAXFOCKAE=  -1    L truncation for all-electron charge restoration on plane wave grid
   NMAXFOCKAE=   1    number of basis functions for all-electron charge restoration
   LFOCKAEDFT=     F  apply the AE augmentation even for DFT
   NKREDX  =     1    reduce k-point grid by
   NKREDY  =     1    reduce k-point grid by
   NKREDZ  =     1    reduce k-point grid by
   SHIFTRED=     F    shift reduced grid of Gamma
   HFKIDENT=     F    idential grid for each k-point
   ODDONLY =     F    use only odd q-grid points
   EVENONLY=     F    use only even q-grid points
   HFALPHA =   -1.0000 decay constant for conv. correction
   MCALPHA =    0.0000 extent of test-charge in conv. correction in multipole expansion
   AEXX    =    0.2500 exact exchange contribution
   HFSCREEN=    0.2000 screening length (either q_TF or 0.3 A-1)
   HFSCREENC=   0.2000 screening length for correlation (either q_TF or 0.3 A-1)
   HFRCUT  =    0.0000 spherical cutoff for potential kernel
   ALDAX   =    0.7500 LDA exchange part
   AGGAX   =    0.7500 GGA exchange part
   ALDAC   =    1.0000 LDA correlation
   AGGAC   =    1.0000 GGA correlation
   ENCUTFOCK=  -1.0 apply spherical cutoff to Coloumb kernel
   NBANDSGWLOW=     1    first orbital included in HF term
   NBLOCK_FOCK=    64    blocking factor in FOCK_ACC
 Linear response parameters
   LEPSILON=     F    determine dielectric tensor
   LRPA    =     F    only Hartree local field effects (RPA)
   LNABLA  =     F    use nabla operator in PAW spheres
   LVEL    =     F    velocity operator in full k-point grid
   LINTERFAST=   F  fast interpolation
   KINTER  =     0    interpolate to denser k-point grid
   CSHIFT  =0.1000    complex shift for real part using Kramers Kronig
   OMEGAMAX=  -1.0    maximum frequency
   DEG_THRESHOLD= 0.2000000E-02 threshold for treating states as degnerate
   RTIME   =   -0.100 relaxation time in fs
  (WPLASMAI=    0.000 imaginary part of plasma frequency in eV, 0.658/RTIME)
   DFIELD  = 0.0000000 0.0000000 0.0000000 field for delta impulse in time
 
 Orbital magnetization related:
   ORBITALMAG=     F  switch on orbital magnetization
   LCHIMAG   =     F  perturbation theory with respect to B field
   DQ        =  0.001000  dq finite difference perturbation B field
   LLRAUG    =     F  two centre corrections for induced B field



--------------------------------------------------------------------------------------------------------


 conjugate gradient relaxation of ions
 charge density and potential will be updated during run
 spin polarized calculation
 Conjugate gradient for all bands (Freysoldt, et al. PRB 79, 241103 (2009))
 preconditioned conjugated gradient                                        
 perform sub-space diagonalisation
    before iterative eigenvector-optimisation
 modified Broyden-mixing scheme, WC =      100.0
 initial mixing is a Kerker type mixing with AMIX =  0.4000 and BMIX =      1.0000
 Hartree-type preconditioning will be used
 using additional bands            5
 real space projection scheme for non local part
 use partial core corrections
 no Harris-corrections to forces 
 use gradient corrections 
 use of overlap-Matrix (Vanderbilt PP)
 Fermi weights with tetrahedron method with Bloechl corrections


--------------------------------------------------------------------------------------------------------


  energy-cutoff  :      680.00
  volume of cell :       40.89
      direct lattice vectors                 reciprocal lattice vectors
     3.348898000  0.000000000  1.933487000     0.298605691 -0.105573000  0.000000000
     1.116299000  3.157372000  1.933487000     0.000000000  0.316719094  0.000000000
     0.000000000  0.000000000  3.866975000    -0.149302807 -0.105573020  0.258600069

  length of vectors
     3.866974243  3.866974707  3.866975000     0.316719145  0.316719094  0.316719096


 
 k-points in units of 2pi/SCALE and weight: read from INCAR                         
   0.00000000  0.00000000  0.00000000       0.008
   0.05972114 -0.02111460  0.00000000       0.064
   0.11944228 -0.04222920  0.00000000       0.064
   0.05972114  0.04222922  0.00000000       0.048
   0.11944228  0.02111462  0.00000000       0.192
  -0.11944228  0.10557302  0.00000000       0.192
  -0.05972114  0.08445842  0.00000000       0.096
   0.11944228  0.08445844  0.00000000       0.048
  -0.11944228  0.16891684  0.00000000       0.096
  -0.14930284  0.14780223  0.05172001       0.192
 
 k-points in reciprocal lattice and weights: read from INCAR                         
   0.00000000  0.00000000  0.00000000       0.008
   0.20000000  0.00000000  0.00000000       0.064
   0.40000000  0.00000000  0.00000000       0.064
   0.20000000  0.20000000  0.00000000       0.048
   0.40000000  0.20000000  0.00000000       0.192
  -0.40000000  0.20000000  0.00000000       0.192
  -0.20000000  0.20000000  0.00000000       0.096
   0.40000000  0.40000000  0.00000000       0.048
  -0.40000000  0.40000000  0.00000000       0.096
  -0.40000000  0.40000000  0.20000000       0.192
 
 position of ions in fractional coordinates (direct lattice) 
   0.25000000  0.25000000  0.25000000
   0.00000000  0.00000000  0.00000000
 
 position of ions in cartesian coordinates  (Angst):
   1.11629925  0.78934300  1.93348725
   0.00000000  0.00000000  0.00000000
 


--------------------------------------------------------------------------------------------------------


 k-point   1 :   0.0000 0.0000 0.0000  plane waves:    1639
 k-point   2 :   0.2000 0.0000 0.0000  plane waves:    1654
 k-point   3 :   0.4000 0.0000 0.0000  plane waves:    1646
 k-point   4 :   0.2000 0.2000 0.0000  plane waves:    1640
 k-point   5 :   0.4000 0.2000 0.0000  plane waves:    1644
 k-point   6 :  -0.4000 0.2000 0.0000  plane waves:    1645
 k-point   7 :  -0.2000 0.2000 0.0000  plane waves:    1652
 k-point   8 :   0.4000 0.4000 0.0000  plane waves:    1652
 k-point   9 :  -0.4000 0.4000 0.0000  plane waves:    1650
 k-point  10 :  -0.4000 0.4000 0.2000  plane waves:    1649

 maximum and minimum number of plane-waves per node :       423      400

 maximum number of plane-waves:      1654
 maximum index in each direction: 
   IXMAX=    8   IYMAX=    8   IZMAX=    8
   IXMIN=   -8   IYMIN=   -8   IZMIN=   -8


 real space projection operators:
  total allocation   :        825.38 KBytes
  max/ min on nodes  :        207.81        204.88


 parallel 3D FFT for wavefunctions:
    minimum data exchange during FFTs selected (reduces bandwidth)
 parallel 3D FFT for charge:
    minimum data exchange during FFTs selected (reduces bandwidth)


 FFT grid for exact exchange (Hartree Fock) 
  NGX = 20; NGY = 20; NGZ = 20

 
 Radii for the augmentation spheres in the non-local exchange
 for species   1 augmentation radius   1.335 (default was   0.989)
       energy cutoff for augmentation   2720.0

 real space projection operators:
  total allocation   :        275.77 KBytes
  max/ min on nodes  :         70.24         67.64

 Maximum index for augmentation-charges in exchange          493
  SETUP_FOCK is finished

 total amount of memory used by VASP MPI-rank0    45978. kBytes
=======================================================================

   base      :      30000. kBytes
   nonlr-proj:        635. kBytes
   fftplans  :       3674. kBytes
   grid      :       7807. kBytes
   one-center:          6. kBytes
   HF        :          4. kBytes
   wavefun   :       3852. kBytes
 
     INWAV:  cpu time    0.0000: real time    0.0000
 Broyden mixing: mesh for mixing (old mesh)
   NGX = 17   NGY = 17   NGZ = 17
  (NGX  = 72   NGY  = 72   NGZ  = 72)
  gives a total of   4913 points

 initial charge density was supplied:
 charge density of overlapping atoms calculated
 number of electron       8.0000000 magnetization       1.2000000
 keeping initial charge density in first step


--------------------------------------------------------------------------------------------------------


 Maximum index for non-local projection operator         1667
 BZINTS: Fermi energy:   30.703767;    8.000000 electrons
         Band energy: 0.125734E+03;  BLOECHL correction:  -32.645413
 Maximum index for augmentation-charges         9303 (set IRDMAX)


--------------------------------------------------------------------------------------------------------


 First call to EWALD:  gamma=   0.514
 Maximum number of real-space cells 3x 3x 3
 Maximum number of reciprocal cells 3x 3x 3

    FEWALD:  cpu time    0.0010: real time    0.0010
 -----------------------------------------------------------------------------
|                                                                             |
|           W    W    AA    RRRRR   N    N  II  N    N   GGGG   !!!           |
|           W    W   A  A   R    R  NN   N  II  NN   N  G    G  !!!           |
|           W    W  A    A  R    R  N N  N  II  N N  N  G       !!!           |
|           W WW W  AAAAAA  RRRRR   N  N N  II  N  N N  G  GGG   !            |
|           WW  WW  A    A  R   R   N   NN  II  N   NN  G    G                |
|           W    W  A    A  R    R  N    N  II  N    N   GGGG   !!!           |
|                                                                             |
|     ALGO=A and IALGO=5X tend to fail with the tetrahedron method (e.g.      |
|     Bloechl's method, ISMEAR=-5, is not variational). Please switch to      |
|     IMSEAR=0-n, except for DOS calculations. For DOS calculations use       |
|     IALGO=53 after pre-converging with ISMEAR>=0.                           |
|     I HOPE YOU KNOW WHAT YOU ARE DOING!                                     |
|                                                                             |
 -----------------------------------------------------------------------------



--------------------------------------- Iteration      1(   1)  ---------------------------------------


    POTLOK:  cpu time    0.0933: real time    0.0981
    SETDIJ:  cpu time    0.2036: real time    0.2072
 BZINTS: Fermi energy:    9.697671;    8.000000 electrons
         Band energy: 0.175969E+02;  BLOECHL correction:   -0.342305
    TRIAL :  cpu time    0.3888: real time    0.4047
 BZINTS: Fermi energy:    9.697671;    8.000000 electrons
         Band energy: 0.175969E+02;  BLOECHL correction:   -0.342305
    CORREC:  cpu time    0.0005: real time    0.0005
    --------------------------------------------
      LOOP:  cpu time    0.6881: real time    0.7127

 eigenvalue-minimisations  :   360
 total energy-change (2. order) :-0.2473627E+03  (-0.4329591E+03)
 number of electron       8.0000000 magnetization       1.2000000
 augmentation part        8.0000000 magnetization       1.2000000

 Free energy of the ion-electron system (eV)
  ---------------------------------------------------
  alpha Z        PSCENC =         3.29317992
  Ewald energy   TEWEN  =      -226.94489173
  -Hartree energ DENC   =       -11.32339116
  -exchange      EXHF   =         0.00000000
  -V(xc)+E(xc)   XCENC  =       -18.60636939
  PAW double counting   =       176.18363791     -391.56082810
  entropy T*S    EENTRO =         0.00000000
  eigenvalues    EBANDS =        17.59688665
  atomic energy  EATOM  =       203.99906502
  ---------------------------------------------------
  free energy    TOTEN  =      -247.36271089 eV

  energy without entropy =     -247.36271089  energy(sigma->0) =     -247.36271089
  exchange ACFDT corr.  =         0.00000000  see jH, gK, PRB 81, 115126


--------------------------------------------------------------------------------------------------------




--------------------------------------- Iteration      1(   2)  ---------------------------------------


 BZINTS: Fermi energy:    5.077477;    8.000000 electrons
         Band energy:-0.182766E+01;  BLOECHL correction:    0.000000
    TRIAL :  cpu time    0.4780: real time    0.4813
 BZINTS: Fermi energy:    5.077477;    8.000000 electrons
         Band energy:-0.182766E+01;  BLOECHL correction:    0.000000
    CORREC:  cpu time    0.0003: real time    0.0003
    --------------------------------------------
      LOOP:  cpu time    0.4788: real time    0.4821

 eigenvalue-minimisations  :   506
 total energy-change (2. order) :-0.1942455E+02  (-0.1885050E+02)
 number of electron       8.0000000 magnetization       1.2000000
 augmentation part        8.0000000 magnetization       1.2000000

 Free energy of the ion-electron system (eV)
  ---------------------------------------------------
  alpha Z        PSCENC =         3.29317992
  Ewald energy   TEWEN  =      -226.94489173
  -Hartree energ DENC   =       -11.32339116
  -exchange      EXHF   =         0.00000000
  -V(xc)+E(xc)   XCENC  =       -18.60636939
  PAW double counting   =       176.18363791     -391.56082810
  entropy T*S    EENTRO =         0.00000000
  eigenvalues    EBANDS =        -1.82766149
  atomic energy  EATOM  =       203.99906502
  ---------------------------------------------------
  free energy    TOTEN  =      -266.78725903 eV

  energy without entropy =     -266.78725903  energy(sigma->0) =     -266.78725903
  exchange ACFDT corr.  =         0.00000000  see jH, gK, PRB 81, 115126


--------------------------------------------------------------------------------------------------------




--------------------------------------- Iteration      1(   3)  ---------------------------------------


 BZINTS: Fermi energy:    4.942092;    8.000000 electrons
         Band energy:-0.228912E+01;  BLOECHL correction:   -0.000000
    TRIAL :  cpu time    0.4746: real time    0.4787
 BZINTS: Fermi energy:    4.942092;    8.000000 electrons
         Band energy:-0.228912E+01;  BLOECHL correction:   -0.000000
    CORREC:  cpu time    0.0003: real time    0.0003
    --------------------------------------------
      LOOP:  cpu time    0.4754: real time    0.4794

 eigenvalue-minimisations  :   450
 total energy-change (2. order) :-0.4614588E+00  (-0.4609014E+00)
 number of electron       8.0000000 magnetization       1.2000000
 augmentation part        8.0000000 magnetization       1.2000000

 Free energy of the ion-electron system (eV)
  ---------------------------------------------------
  alpha Z        PSCENC =         3.29317992
  Ewald energy   TEWEN  =      -226.94489173
  -Hartree energ DENC   =       -11.32339116
  -exchange      EXHF   =         0.00000000
  -V(xc)+E(xc)   XCENC  =       -18.60636939
  PAW double counting   =       176.18363791     -391.56082810
  entropy T*S    EENTRO =         0.00000000
  eigenvalues    EBANDS =        -2.28912031
  atomic energy  EATOM  =       203.99906502
  ---------------------------------------------------
  free energy    TOTEN  =      -267.24871785 eV

  energy without entropy =     -267.24871785  energy(sigma->0) =     -267.24871785
  exchange ACFDT corr.  =         0.00000000  see jH, gK, PRB 81, 115126


--------------------------------------------------------------------------------------------------------




--------------------------------------- Iteration      1(   4)  ---------------------------------------


 BZINTS: Fermi energy:    4.941335;    8.000000 electrons
         Band energy:-0.229229E+01;  BLOECHL correction:    0.000000
    TRIAL :  cpu time    0.7793: real time    0.8207
 BZINTS: Fermi energy:    4.941335;    8.000000 electrons
         Band energy:-0.229229E+01;  BLOECHL correction:    0.000000
    CORREC:  cpu time    0.0005: real time    0.0005
    --------------------------------------------
      LOOP:  cpu time    0.7803: real time    0.8218

 eigenvalue-minimisations  :   533
 total energy-change (2. order) :-0.3172467E-02  (-0.3172659E-02)
 number of electron       8.0000000 magnetization       1.2000000
 augmentation part        8.0000000 magnetization       1.2000000

 Free energy of the ion-electron system (eV)
  ---------------------------------------------------
  alpha Z        PSCENC =         3.29317992
  Ewald energy   TEWEN  =      -226.94489173
  -Hartree energ DENC   =       -11.32339116
  -exchange      EXHF   =         0.00000000
  -V(xc)+E(xc)   XCENC  =       -18.60636939
  PAW double counting   =       176.18363791     -391.56082810
  entropy T*S    EENTRO =         0.00000000
  eigenvalues    EBANDS =        -2.29229278
  atomic energy  EATOM  =       203.99906502
  ---------------------------------------------------
  free energy    TOTEN  =      -267.25189032 eV

  energy without entropy =     -267.25189032  energy(sigma->0) =     -267.25189032
  exchange ACFDT corr.  =         0.00000000  see jH, gK, PRB 81, 115126


--------------------------------------------------------------------------------------------------------




--------------------------------------- Iteration      1(   5)  ---------------------------------------


    POTLOK:  cpu time    0.4230: real time    0.5547
    SETDIJ:  cpu time    0.5061: real time    0.5631
 BZINTS: Fermi energy:    4.795746;    8.000000 electrons
         Band energy:-0.615206E+01;  BLOECHL correction:   -0.000000
    TRIAL :  cpu time   15.7151: real time   16.4741
 BZINTS: Fermi energy:    4.795746;    8.000000 electrons
         Band energy:-0.615206E+01;  BLOECHL correction:   -0.000000
    CORREC:  cpu time    0.0004: real time    0.0004
    CHARGE:  cpu time    0.4290: real time    0.5048
    --------------------------------------------
      LOOP:  cpu time   17.0745: real time   18.0981

 eigenvalue-minimisations  :   384
 total energy-change (2. order) : 0.2544838E+03  (-0.2069448E+00)
 number of electron       8.0000000 magnetization      -0.0000000
 augmentation part       -0.4477730 magnetization       0.0021687

 Free energy of the ion-electron system (eV)
  ---------------------------------------------------
  alpha Z        PSCENC =         3.29317992
  Ewald energy   TEWEN  =      -226.94489173
  -Hartree energ DENC   =       -11.32339116
  -exchange      EXHF   =        11.41876713
  -V(xc)+E(xc)   XCENC  =       -14.89375656
  PAW double counting   =       171.60291941     -143.76794775
  entropy T*S    EENTRO =         0.00000000
  eigenvalues    EBANDS =        -6.15205784
  atomic energy  EATOM  =       203.99906502
  ---------------------------------------------------
  free energy    TOTEN  =       -12.76811357 eV

  energy without entropy =      -12.76811357  energy(sigma->0) =      -12.76811357
  exchange ACFDT corr.  =         0.00000000  see jH, gK, PRB 81, 115126


--------------------------------------------------------------------------------------------------------




--------------------------------------- Iteration      1(   6)  ---------------------------------------


    POTLOK:  cpu time    0.2092: real time    0.2097
    SETDIJ:  cpu time    0.3930: real time    0.3934
    TRIAL :  cpu time   15.4451: real time   15.8182
 BZINTS: Fermi energy:    4.905830;    8.000000 electrons
         Band energy:-0.522167E+01;  BLOECHL correction:   -0.000000
 BZINTS: Fermi energy:    4.977968;    8.000000 electrons
         Band energy:-0.461744E+01;  BLOECHL correction:    0.000000
    CORREC:  cpu time   12.1073: real time   12.1558
    CHARGE:  cpu time    0.1573: real time    0.1578
    --------------------------------------------
      LOOP:  cpu time   28.3124: real time   28.7354

 eigenvalue-minimisations  :     0
 total energy-change (2. order) : 0.3617320E+00  (-0.9671640E-01)
 number of electron       8.0000000 magnetization      -0.0000000
 augmentation part       -0.4324971 magnetization       0.0009877

 Free energy of the ion-electron system (eV)
  ---------------------------------------------------
  alpha Z        PSCENC =         3.29317992
  Ewald energy   TEWEN  =      -226.94489173
  -Hartree energ DENC   =       -17.17128385
  -exchange      EXHF   =        11.46480219
  -V(xc)+E(xc)   XCENC  =       -14.30622251
  PAW double counting   =      1553.17163052    -1525.58407866
  entropy T*S    EENTRO =         0.00000000
  eigenvalues    EBANDS =        -0.32858246
  atomic energy  EATOM  =       203.99906502
  ---------------------------------------------------
  free energy    TOTEN  =       -12.40638158 eV

  energy without entropy =      -12.40638158  energy(sigma->0) =      -12.40638158
  exchange ACFDT corr.  =         0.00000000  see jH, gK, PRB 81, 115126


--------------------------------------------------------------------------------------------------------




--------------------------------------- Iteration      1(   7)  ---------------------------------------


    POTLOK:  cpu time    0.2248: real time    0.2250
    SETDIJ:  cpu time    0.4258: real time    0.4267
    TRIAL :  cpu time   11.5193: real time   11.5636
 BZINTS: Fermi energy:    5.041991;    8.000000 electrons
         Band energy:-0.413356E+01;  BLOECHL correction:   -0.000000
 BZINTS: Fermi energy:    5.150880;    8.000000 electrons
         Band energy:-0.331803E+01;  BLOECHL correction:   -0.000000
    CORREC:  cpu time   11.9901: real time   12.0136
    CHARGE:  cpu time    0.1508: real time    0.1508
    --------------------------------------------
      LOOP:  cpu time   24.3113: real time   24.3802

 eigenvalue-minimisations  :     0
 total energy-change (2. order) :-0.9650494E-01  (-0.1822607E-01)
 number of electron       8.0000000 magnetization       0.0000000
 augmentation part       -0.4325928 magnetization      -0.0000395

 Free energy of the ion-electron system (eV)
  ---------------------------------------------------
  alpha Z        PSCENC =         3.29317992
  Ewald energy   TEWEN  =      -226.94489173
  -Hartree energ DENC   =       -15.71866384
  -exchange      EXHF   =        11.31584342
  -V(xc)+E(xc)   XCENC  =       -14.40385038
  PAW double counting   =      1646.19401706    -1618.55170738
  entropy T*S    EENTRO =         0.00000000
  eigenvalues    EBANDS =        -1.68587859
  atomic energy  EATOM  =       203.99906502
  ---------------------------------------------------
  free energy    TOTEN  =       -12.50288651 eV

  energy without entropy =      -12.50288651  energy(sigma->0) =      -12.50288651
  exchange ACFDT corr.  =         0.00000000  see jH, gK, PRB 81, 115126


--------------------------------------------------------------------------------------------------------




--------------------------------------- Iteration      1(   8)  ---------------------------------------


    POTLOK:  cpu time    0.2222: real time    0.2223
    SETDIJ:  cpu time    0.4173: real time    0.4176
    TRIAL :  cpu time   14.4551: real time   15.2774
 BZINTS: Fermi energy:    5.199249;    8.000000 electrons
         Band energy:-0.306301E+01;  BLOECHL correction:   -0.000000
 BZINTS: Fermi energy:    5.259594;    8.000000 electrons
         Band energy:-0.274444E+01;  BLOECHL correction:   -0.000000
    CORREC:  cpu time   14.5395: real time   14.8432
    CHARGE:  cpu time    0.1525: real time    0.1528
    --------------------------------------------
      LOOP:  cpu time   29.7871: real time   30.9139

 eigenvalue-minimisations  :     0
 total energy-change (2. order) :-0.1815552E-01  (-0.6466049E-02)
 number of electron       8.0000000 magnetization       0.0000000
 augmentation part       -0.4325618 magnetization      -0.0004045

 Free energy of the ion-electron system (eV)
  ---------------------------------------------------
  alpha Z        PSCENC =         3.29317992
  Ewald energy   TEWEN  =      -226.94489173
  -Hartree energ DENC   =       -15.47135074
  -exchange      EXHF   =        11.27514366
  -V(xc)+E(xc)   XCENC  =       -14.42397594
  PAW double counting   =      1653.79603866    -1626.14873741
  entropy T*S    EENTRO =         0.00000000
  eigenvalues    EBANDS =        -1.89551346
  atomic energy  EATOM  =       203.99906502
  ---------------------------------------------------
  free energy    TOTEN  =       -12.52104203 eV

  energy without entropy =      -12.52104203  energy(sigma->0) =      -12.52104203
  exchange ACFDT corr.  =         0.00000000  see jH, gK, PRB 81, 115126


--------------------------------------------------------------------------------------------------------




--------------------------------------- Iteration      1(   9)  ---------------------------------------


    POTLOK:  cpu time    0.2258: real time    0.2261
    SETDIJ:  cpu time    0.4144: real time    0.4148
    TRIAL :  cpu time   11.3018: real time   11.3190
 BZINTS: Fermi energy:    5.272342;    8.000000 electrons
         Band energy:-0.259496E+01;  BLOECHL correction:    0.000000
 BZINTS: Fermi energy:    5.281042;    8.000000 electrons
         Band energy:-0.249097E+01;  BLOECHL correction:   -0.000000
    CORREC:  cpu time   15.7634: real time   16.0913
    CHARGE:  cpu time    0.1699: real time    0.1709
    --------------------------------------------
      LOOP:  cpu time   27.8759: real time   28.2227

 eigenvalue-minimisations  :     0
 total energy-change (2. order) :-0.6459876E-02  (-0.1206900E-02)
 number of electron       8.0000000 magnetization       0.0000000
 augmentation part       -0.4321656 magnetization      -0.0002442

 Free energy of the ion-electron system (eV)
  ---------------------------------------------------
  alpha Z        PSCENC =         3.29317992
  Ewald energy   TEWEN  =      -226.94489173
  -Hartree energ DENC   =       -15.38103599
  -exchange      EXHF   =        11.25216418
  -V(xc)+E(xc)   XCENC  =       -14.43136734
  PAW double counting   =      1646.31013453    -1618.66419068
  entropy T*S    EENTRO =         0.00000000
  eigenvalues    EBANDS =        -1.96055981
  atomic energy  EATOM  =       203.99906502
  ---------------------------------------------------
  free energy    TOTEN  =       -12.52750191 eV

  energy without entropy =      -12.52750191  energy(sigma->0) =      -12.52750191
  exchange ACFDT corr.  =         0.00000000  see jH, gK, PRB 81, 115126


--------------------------------------------------------------------------------------------------------




--------------------------------------- Iteration      1(  10)  ---------------------------------------


    POTLOK:  cpu time    0.2191: real time    0.2193
    SETDIJ:  cpu time    0.4791: real time    0.4862
    TRIAL :  cpu time   15.9831: real time   16.4572
 BZINTS: Fermi energy:    5.278726;    8.000000 electrons
         Band energy:-0.239187E+01;  BLOECHL correction:    0.000000
 BZINTS: Fermi energy:    5.277180;    8.000000 electrons
         Band energy:-0.233782E+01;  BLOECHL correction:   -0.000000
    CORREC:  cpu time   16.1753: real time   16.4552
    CHARGE:  cpu time    0.1514: real time    0.1515
    --------------------------------------------
      LOOP:  cpu time   33.0085: real time   33.7698

 eigenvalue-minimisations  :     0
 total energy-change (2. order) :-0.1207968E-02  (-0.1477338E-03)
 number of electron       8.0000000 magnetization       0.0000000
 augmentation part       -0.4320463 magnetization      -0.0001091

 Free energy of the ion-electron system (eV)
  ---------------------------------------------------
  alpha Z        PSCENC =         3.29317992
  Ewald energy   TEWEN  =      -226.94489173
  -Hartree energ DENC   =       -15.34605683
  -exchange      EXHF   =        11.24608306
  -V(xc)+E(xc)   XCENC  =       -14.43360393
  PAW double counting   =      1640.86470173    -1613.21830456
  entropy T*S    EENTRO =         0.00000000
  eigenvalues    EBANDS =        -1.98888255
  atomic energy  EATOM  =       203.99906502
  ---------------------------------------------------
  free energy    TOTEN  =       -12.52870988 eV

  energy without entropy =      -12.52870988  energy(sigma->0) =      -12.52870988
  exchange ACFDT corr.  =         0.00000000  see jH, gK, PRB 81, 115126


--------------------------------------------------------------------------------------------------------




--------------------------------------- Iteration      1(  11)  ---------------------------------------


    POTLOK:  cpu time    0.2204: real time    0.2207
    SETDIJ:  cpu time    0.4095: real time    0.4095
    TRIAL :  cpu time   13.0462: real time   13.1516
 BZINTS: Fermi energy:    5.273482;    8.000000 electrons
         Band energy:-0.226874E+01;  BLOECHL correction:    0.000000
 BZINTS: Fermi energy:    5.273329;    8.000000 electrons
         Band energy:-0.227416E+01;  BLOECHL correction:   -0.000000
    CORREC:  cpu time   13.3256: real time   13.4019
    CHARGE:  cpu time    0.1559: real time    0.1561
    --------------------------------------------
      LOOP:  cpu time   27.1581: real time   27.3403

 eigenvalue-minimisations  :     0
 total energy-change (2. order) :-0.1483697E-03  (-0.1364728E-04)
 number of electron       8.0000000 magnetization       0.0000000
 augmentation part       -0.4320366 magnetization      -0.0000710

 Free energy of the ion-electron system (eV)
  ---------------------------------------------------
  alpha Z        PSCENC =         3.29317992
  Ewald energy   TEWEN  =      -226.94489173
  -Hartree energ DENC   =       -15.33736533
  -exchange      EXHF   =        11.24538956
  -V(xc)+E(xc)   XCENC  =       -14.43411825
  PAW double counting   =      1637.08689238    -1609.43996350
  entropy T*S    EENTRO =         0.00000000
  eigenvalues    EBANDS =        -1.99704631
  atomic energy  EATOM  =       203.99906502
  ---------------------------------------------------
  free energy    TOTEN  =       -12.52885825 eV

  energy without entropy =      -12.52885825  energy(sigma->0) =      -12.52885825
  exchange ACFDT corr.  =         0.00000000  see jH, gK, PRB 81, 115126


--------------------------------------------------------------------------------------------------------




--------------------------------------- Iteration      1(  12)  ---------------------------------------


    POTLOK:  cpu time    0.2292: real time    0.2294
    SETDIJ:  cpu time    0.4259: real time    0.4261
    TRIAL :  cpu time   13.5882: real time   13.9054
 BZINTS: Fermi energy:    5.270419;    8.000000 electrons
         Band energy:-0.221836E+01;  BLOECHL correction:   -0.000000
 BZINTS: Fermi energy:    5.271874;    8.000000 electrons
         Band energy:-0.224170E+01;  BLOECHL correction:    0.000000
    CORREC:  cpu time   17.2210: real time   17.5635
    CHARGE:  cpu time    0.1517: real time    0.1519
    --------------------------------------------
      LOOP:  cpu time   31.6164: real time   32.2769

 eigenvalue-minimisations  :     0
 total energy-change (2. order) :-0.1290575E-04  (-0.9031424E-05)
 number of electron       8.0000000 magnetization       0.0000000
 augmentation part       -0.4320430 magnetization      -0.0000610

 Free energy of the ion-electron system (eV)
  ---------------------------------------------------
  alpha Z        PSCENC =         3.29317992
  Ewald energy   TEWEN  =      -226.94489173
  -Hartree energ DENC   =       -15.33715176
  -exchange      EXHF   =        11.24545248
  -V(xc)+E(xc)   XCENC  =       -14.43414063
  PAW double counting   =      1635.78623029    -1608.13920062
  entropy T*S    EENTRO =         0.00000000
  eigenvalues    EBANDS =        -1.99741411
  atomic energy  EATOM  =       203.99906502
  ---------------------------------------------------
  free energy    TOTEN  =       -12.52887115 eV

  energy without entropy =      -12.52887115  energy(sigma->0) =      -12.52887115
  exchange ACFDT corr.  =         0.00000000  see jH, gK, PRB 81, 115126


--------------------------------------------------------------------------------------------------------




--------------------------------------- Iteration      1(  13)  ---------------------------------------


    POTLOK:  cpu time    0.2491: real time    0.2501
    SETDIJ:  cpu time    0.4802: real time    0.4855
    TRIAL :  cpu time   14.5206: real time   14.7925
 BZINTS: Fermi energy:    5.269204;    8.000000 electrons
         Band energy:-0.219339E+01;  BLOECHL correction:   -0.000000
 BZINTS: Fermi energy:    5.270077;    8.000000 electrons
         Band energy:-0.221570E+01;  BLOECHL correction:   -0.000000
    CORREC:  cpu time   15.3634: real time   16.0492
    EDDIAG:  cpu time   14.8862: real time   15.0870
    CHARGE:  cpu time    0.1670: real time    0.1673
    --------------------------------------------
      LOOP:  cpu time   45.6671: real time   46.8323

 eigenvalue-minimisations  :     0
 total energy-change (2. order) :-0.2871741E-05  (-0.9235017E-05)
 number of electron       8.0000000 magnetization       0.0000000
 augmentation part       -0.4320485 magnetization      -0.0000536

 Free energy of the ion-electron system (eV)
  ---------------------------------------------------
  alpha Z        PSCENC =         3.29317992
  Ewald energy   TEWEN  =      -226.94489173
  -Hartree energ DENC   =       -15.33770218
  -exchange      EXHF   =        11.24558592
  -V(xc)+E(xc)   XCENC  =       -14.43411296
  PAW double counting   =      1635.36848066    -1607.72144497
  entropy T*S    EENTRO =         0.00000000
  eigenvalues    EBANDS =        -1.99697630
  atomic energy  EATOM  =       203.99906502
  ---------------------------------------------------
  free energy    TOTEN  =       -12.52887403 eV

  energy without entropy =      -12.52887403  energy(sigma->0) =      -12.52887403
  exchange ACFDT corr.  =         0.00000000  see jH, gK, PRB 81, 115126


--------------------------------------------------------------------------------------------------------


  average scaling for gradient   1.2591


 average (electrostatic) potential at core
  the test charge radii are     0.9892
  (the norm of the test charge is              1.0000)
       1 -79.7474       2 -79.7474
 
 
 
 E-fermi :   5.2701     XC(G=0):  -7.7664     alpha+bet :-11.7317

 Fermi energy:         5.2700767772

 spin component 1

 k-point     1 :       0.0000    0.0000    0.0000
  band No.  band energies     occupation 
      1      -7.8759      1.00000
      2       5.2583      1.00000
      3       5.2583      1.00000
      4       5.2583      1.00000
      5       8.5978      0.00000
      6       8.5978      0.00000
      7       8.5978      0.00000
      8       9.3580      0.00000
      9      14.0007      0.00000

 k-point     2 :       0.2000    0.0000    0.0000
  band No.  band energies     occupation 
      1      -7.3122      1.00000
      2       2.0314      1.00000
      3       4.6564      1.00000
      4       4.6564      1.00000
      5       8.1848      0.00000
      6       9.4372      0.00000
      7       9.4372      0.00000
      8      12.1806      0.00000
      9      13.3181      0.00000

 k-point     3 :       0.4000    0.0000    0.0000
  band No.  band energies     occupation 
      1      -5.8281      1.00000
      2      -1.5801      1.00000
      3       4.0488      1.00000
      4       4.0488      1.00000
      5       7.5395      0.00000
      6       9.5072      0.00000
      7       9.5072      0.00000
      8      14.0050      0.00000
      9      15.4063      0.00000

 k-point     4 :       0.2000    0.2000    0.0000
  band No.  band energies     occupation 
      1      -7.1178      1.00000
      2       2.4227      1.00000
      3       3.6937      1.00000
      4       3.6937      1.00000
      5       7.4040      0.00000
      6       9.9634      0.00000
      7      11.0457      0.00000
      8      11.0457      0.00000
      9      13.2801      0.00000

 k-point     5 :       0.4000    0.2000    0.0000
  band No.  band energies     occupation 
      1      -5.8720      1.00000
      2      -0.5396      1.00000
      3       2.4895      1.00000
      4       3.1269      1.00000
      5       7.7266      0.00000
      6      10.1712      0.00000
      7      11.0606      0.00000
      8      11.6337      0.00000
      9      16.8174      0.00000

 k-point     6 :      -0.4000    0.2000    0.0000
  band No.  band energies     occupation 
      1      -4.9101      1.00000
      2      -2.0692      1.00000
      3       1.6050      1.00000
      4       3.4257      1.00000
      5       8.0381      0.00000
      6      10.6817      0.00000
      7      10.9767      0.00000
      8      13.8608      0.00000
      9      14.7192      0.00000

 k-point     7 :      -0.2000    0.2000    0.0000
  band No.  band energies     occupation 
      1      -6.4051      1.00000
      2       0.3784      1.00000
      3       2.0970      1.00000
      4       4.3604      1.00000
      5       8.9300      0.00000
      6      10.1410      0.00000
      7      10.3410      0.00000
      8      11.9052      0.00000
      9      12.3155      0.00000

 k-point     8 :       0.4000    0.4000    0.0000
  band No.  band energies     occupation 
      1      -4.9106      1.00000
      2      -1.5252      1.00000
      3       2.3589      1.00000
      4       2.3589      1.00000
      5       6.4728      0.00000
      6       7.2577      0.00000
      7      14.8925      0.00000
      8      14.8926      0.00000
      9      17.5775      0.00000

 k-point     9 :      -0.4000    0.4000    0.0000
  band No.  band energies     occupation 
      1      -3.5941      1.00000
      2      -2.9164      1.00000
      3       0.9291      1.00000
      4       2.4872      1.00000
      5       6.9541      0.00000
      6       9.1725      0.00000
      7      14.4788      0.00000
      8      14.9881      0.00000
      9      15.0949      0.00000

 k-point    10 :      -0.4000    0.4000    0.2000
  band No.  band energies     occupation 
      1      -4.4331      1.00000
      2      -1.9512      1.00000
      3       1.0218      1.00000
      4       2.0911      1.00000
      5       9.4308      0.00000
      6       9.8068      0.00000
      7      10.5681      0.00000
      8      14.0924      0.00000
      9      14.8270      0.00000
 Fermi energy:         5.2700767772

 spin component 2

 k-point     1 :       0.0000    0.0000    0.0000
  band No.  band energies     occupation 
      1      -7.8759      1.00000
      2       5.2590      1.00000
      3       5.2590      1.00000
      4       5.2590      1.00000
      5       8.5975      0.00000
      6       8.5975      0.00000
      7       8.5975      0.00000
      8       9.3580      0.00000
      9      14.0462      0.00000

 k-point     2 :       0.2000    0.0000    0.0000
  band No.  band energies     occupation 
      1      -7.3122      1.00000
      2       2.0316      1.00000
      3       4.6569      1.00000
      4       4.6569      1.00000
      5       8.1845      0.00000
      6       9.4369      0.00000
      7       9.4369      0.00000
      8      12.1807      0.00000
      9      13.3177      0.00000

 k-point     3 :       0.4000    0.0000    0.0000
  band No.  band energies     occupation 
      1      -5.8280      1.00000
      2      -1.5801      1.00000
      3       4.0492      1.00000
      4       4.0492      1.00000
      5       7.5392      0.00000
      6       9.5068      0.00000
      7       9.5069      0.00000
      8      14.0027      0.00000
      9      15.3762      0.00000

 k-point     4 :       0.2000    0.2000    0.0000
  band No.  band energies     occupation 
      1      -7.1177      1.00000
      2       2.4231      1.00000
      3       3.6940      1.00000
      4       3.6941      1.00000
      5       7.4035      0.00000
      6       9.9630      0.00000
      7      11.0456      0.00000
      8      11.0456      0.00000
      9      13.2796      0.00000

 k-point     5 :       0.4000    0.2000    0.0000
  band No.  band energies     occupation 
      1      -5.8719      1.00000
      2      -0.5394      1.00000
      3       2.4896      1.00000
      4       3.1271      1.00000
      5       7.7262      0.00000
      6      10.1709      0.00000
      7      11.0605      0.00000
      8      11.6336      0.00000
      9      16.7520      0.00000

 k-point     6 :      -0.4000    0.2000    0.0000
  band No.  band energies     occupation 
      1      -4.9099      1.00000
      2      -2.0692      1.00000
      3       1.6050      1.00000
      4       3.4260      1.00000
      5       8.0377      0.00000
      6      10.6816      0.00000
      7      10.9764      0.00000
      8      13.8577      0.00000
      9      14.6925      0.00000

 k-point     7 :      -0.2000    0.2000    0.0000
  band No.  band energies     occupation 
      1      -6.4051      1.00000
      2       0.3786      1.00000
      3       2.0970      1.00000
      4       4.3609      1.00000
      5       8.9296      0.00000
      6      10.1407      0.00000
      7      10.3411      0.00000
      8      11.9049      0.00000
      9      12.3153      0.00000

 k-point     8 :       0.4000    0.4000    0.0000
  band No.  band energies     occupation 
      1      -4.9105      1.00000
      2      -1.5249      1.00000
      3       2.3591      1.00000
      4       2.3591      1.00000
      5       6.4722      0.00000
      6       7.2571      0.00000
      7      14.8926      0.00000
      8      14.8926      0.00000
      9      17.4756      0.00000

 k-point     9 :      -0.4000    0.4000    0.0000
  band No.  band energies     occupation 
      1      -3.5938      1.00000
      2      -2.9162      1.00000
      3       0.9289      1.00000
      4       2.4874      1.00000
      5       6.9535      0.00000
      6       9.1723      0.00000
      7      14.4787      0.00000
      8      14.9896      0.00000
      9      15.0947      0.00000

 k-point    10 :      -0.4000    0.4000    0.2000
  band No.  band energies     occupation 
      1      -4.4329      1.00000
      2      -1.9509      1.00000
      3       1.0217      1.00000
      4       2.0912      1.00000
      5       9.4306      0.00000
      6       9.8065      0.00000
      7      10.5679      0.00000
      8      14.0923      0.00000
      9      14.8270      0.00000


--------------------------------------------------------------------------------------------------------


 soft charge-density along one line, spin component           1
         0         1         2         3         4         5         6         7         8         9
 total charge-density along one line
 
 soft charge-density along one line, spin component           2
         0         1         2         3         4         5         6         7         8         9
 total charge-density along one line
 
 pseudopotential strength for first ion, spin component:           1
 17.876  24.942  -0.000  -0.000  -0.000  -0.000  -0.000  -0.000
 24.942  34.805  -0.000  -0.000  -0.000  -0.000  -0.000  -0.000
 -0.000  -0.000   4.079  -0.000   0.000   7.604  -0.000   0.000
 -0.000  -0.000  -0.000   4.079   0.000  -0.000   7.604   0.000
 -0.000  -0.000   0.000   0.000   4.079   0.000   0.000   7.604
 -0.000  -0.000   7.604  -0.000   0.000  14.184  -0.000   0.000
 -0.000  -0.000  -0.000   7.604   0.000  -0.000  14.184   0.000
 -0.000  -0.000   0.000   0.000   7.604   0.000   0.000  14.184
 pseudopotential strength for first ion, spin component:           2
 17.876  24.942  -0.000  -0.000  -0.000  -0.000  -0.000  -0.000
 24.942  34.805  -0.000  -0.000  -0.000  -0.000  -0.000  -0.000
 -0.000  -0.000   4.079   0.000  -0.000   7.603   0.000  -0.000
 -0.000  -0.000   0.000   4.079  -0.000   0.000   7.603  -0.000
 -0.000  -0.000  -0.000  -0.000   4.079  -0.000  -0.000   7.603
 -0.000  -0.000   7.603   0.000  -0.000  14.184   0.000  -0.000
 -0.000  -0.000   0.000   7.603  -0.000   0.000  14.184  -0.000
 -0.000  -0.000  -0.000  -0.000   7.603  -0.000  -0.000  14.184
 total augmentation occupancy for first ion, spin component:           1
 10.770  -5.026   0.000   0.000  -0.000  -0.000  -0.000   0.000
 -5.026   2.393  -0.000  -0.000   0.000   0.000   0.000  -0.000
  0.000  -0.000   3.853   0.000  -0.000  -1.020  -0.000   0.000
  0.000  -0.000   0.000   3.853  -0.000  -0.000  -1.020   0.000
 -0.000   0.000  -0.000  -0.000   3.853   0.000   0.000  -1.020
 -0.000   0.000  -1.020  -0.000   0.000   0.276   0.000  -0.000
 -0.000   0.000  -0.000  -1.020   0.000   0.000   0.276  -0.000
  0.000  -0.000   0.000   0.000  -1.020  -0.000  -0.000   0.276
 total augmentation occupancy for first ion, spin component:           2
 -0.012   0.007   0.000  -0.000  -0.000  -0.000   0.000   0.000
  0.007  -0.004  -0.000   0.000   0.000   0.000  -0.000  -0.000
  0.000  -0.000  -0.003   0.000  -0.000   0.001  -0.000   0.000
 -0.000   0.000   0.000  -0.003  -0.000  -0.000   0.001   0.000
 -0.000   0.000  -0.000  -0.000  -0.003   0.000   0.000   0.001
 -0.000   0.000   0.001  -0.000   0.000  -0.000   0.000  -0.000
  0.000  -0.000  -0.000   0.001   0.000   0.000  -0.000  -0.000
  0.000  -0.000   0.000   0.000   0.001  -0.000  -0.000  -0.000


------------------------ aborting loop because EDIFF is reached ----------------------------------------





 total charge

# of ion       s       p       d       tot
------------------------------------------
    1        0.754   0.955   0.000   1.709
    2        0.754   0.955   0.000   1.709
--------------------------------------------------
tot          1.509   1.910   0.000   3.419



 magnetization (x)

# of ion       s       p       d       tot
------------------------------------------
    1       -0.000   0.000   0.000   0.000
    2       -0.000   0.000   0.000   0.000
--------------------------------------------------
tot         -0.000   0.000   0.000   0.000
 
    FORLOC:  cpu time    0.0017: real time    0.0022
    FORHF :  cpu time   13.4132: real time   13.6264
    FORNL :  cpu time    0.1971: real time    0.2067
    STRESS:  cpu time    0.5351: real time    0.5689
    FORCOR:  cpu time    0.3193: real time    0.3423
    OFIELD:  cpu time    0.0005: real time    0.0008

  FORCE on cell =-STRESS in cart. coord.  units (eV):
  Direction    XX          YY          ZZ          XY          YZ          ZX
  --------------------------------------------------------------------------------------
  Alpha Z     3.29318     3.29318     3.29318
  Ewald     -75.64832   -75.64835   -75.64832    -0.00001     0.00001     0.00001
  Hartree     5.11270     5.11271     5.11270    -0.00000    -0.00001    -0.00001
  E(xc)     -19.53798   -19.53798   -19.53798    -0.00000     0.00000    -0.00000
  Local     -29.41912   -29.41926   -29.41915     0.00001     0.00005     0.00002
  n-local    69.81602    73.14122    77.49474    -0.90833    -0.31147     0.01334
  augment   -10.64514   -10.64515   -10.64515    -0.00000     0.00000    -0.00001
  Kinetic    52.44204    55.19230    60.97027     0.66798     0.51097    -0.46709
  Fock       -3.39386    -3.29202    -3.13309    -0.01251     0.00515    -0.00763
  -------------------------------------------------------------------------------------
  Total      -0.43221    -0.43221    -0.43221     0.00000     0.00000     0.00000
  in kB     -16.93566   -16.93567   -16.93567     0.00000     0.00000     0.00000
  external pressure =      -16.94 kB  Pullay stress =        0.00 kB


 VOLUME and BASIS-vectors are now :
 -----------------------------------------------------------------------------
  energy-cutoff  :      680.00
  volume of cell :       40.89
      direct lattice vectors                 reciprocal lattice vectors
     3.348898000  0.000000000  1.933487000     0.298605691 -0.105573000  0.000000000
     1.116299000  3.157372000  1.933487000     0.000000000  0.316719094  0.000000000
     0.000000000  0.000000000  3.866975000    -0.149302807 -0.105573020  0.258600069

  length of vectors
     3.866974243  3.866974707  3.866975000     0.316719145  0.316719094  0.316719096


 FORCES acting on ions:
    Electron-Ion                     Ewald-Force                    Non-Local-Force
 -----------------------------------------------------------------------------------------------
   0.342E-04 0.372E-04 0.627E-04   -.634E-05 0.116E-04 0.142E-04   0.513E-16 0.397E-16 0.142E-15
   -.350E-04 -.416E-04 -.658E-04   0.634E-05 -.116E-04 -.142E-04   -.410E-16 -.387E-16 -.138E-15
 -----------------------------------------------------------------------------------------------
   -.812E-06 -.464E-05 -.325E-05   0.718E-18 -.107E-15 0.148E-15   0.103E-16 0.961E-18 0.332E-17
 
 
 POSITION                                       TOTAL-FORCE (eV/Angst)
 -----------------------------------------------------------------------------------
      1.11630      0.78934      1.93349        -0.000000     -0.000000     -0.000000
      0.00000      0.00000      0.00000         0.000000      0.000000      0.000000
 -----------------------------------------------------------------------------------
    total drift:                               -0.000001     -0.000005     -0.000003


--------------------------------------------------------------------------------------------------------



  FREE ENERGIE OF THE ION-ELECTRON SYSTEM (eV)
  ---------------------------------------------------
  free  energy   TOTEN  =       -12.52887403 eV

  energy  without entropy=      -12.52887403  energy(sigma->0) =      -12.52887403
 


--------------------------------------------------------------------------------------------------------


    POTLOK:  cpu time    0.8132: real time    0.8509


--------------------------------------------------------------------------------------------------------




--------------------------------------------------------------------------------------------------------


     LOOP+:  cpu time  284.2687: real time  290.4747
    4ORBIT:  cpu time    0.0000: real time    0.0000



 total charge

# of ion       s       p       d       tot
------------------------------------------
    1        0.754   0.955   0.000   1.709
    2        0.754   0.955   0.000   1.709
--------------------------------------------------
tot          1.509   1.910   0.000   3.419



 magnetization (x)

# of ion       s       p       d       tot
------------------------------------------
    1       -0.000   0.000   0.000   0.000
    2       -0.000   0.000   0.000   0.000
--------------------------------------------------
tot         -0.000   0.000   0.000   0.000
 
 BZINTS: Fermi energy:    5.259011;    8.000000 electrons
         Band energy:-0.199631E+01;  BLOECHL correction:    0.000000

 total amount of memory used by VASP MPI-rank0    47303. kBytes
=======================================================================

   base      :      30000. kBytes
   nonlr-proj:       1256. kBytes
   fftplans  :       3674. kBytes
   grid      :       7807. kBytes
   one-center:          6. kBytes
   HF        :          4. kBytes
   wavefun   :       3852. kBytes
   fock_wrk  :        704. kBytes
 
  
  
 General timing and accounting informations for this job:
 ========================================================
  
                  Total CPU time used (sec):      293.564
                            User time (sec):      289.187
                          System time (sec):        4.378
                         Elapsed time (sec):      299.988
  
                   Maximum memory used (kb):   156790784.
                   Average memory used (kb):          N/A
  
                          Minor page faults:        99834
                          Major page faults:         1151
                 Voluntary context switches:           21
