<?xml version="1.0" encoding="ISO-8859-1"?>
<modeling>
 <generator>
  <i name="program" type="string">vasp </i>
  <i name="version" type="string">6.2.1  </i>
  <i name="subversion" type="string">16May21 (build Oct 27 2021 18:14:32) complex                          parallel </i>
  <i name="platform" type="string">LinuxIFC </i>
  <i name="date" type="string">2021 10 29 </i>
  <i name="time" type="string">15:48:59 </i>
 </generator>
 <incar>
  <i type="string" name="PREC">Accurate</i>
  <i type="string" name="ALGO">All</i>
  <i type="int" name="ISPIN">     2</i>
  <i type="int" name="NELM">   200</i>
  <i type="int" name="IBRION">     2</i>
  <i name="EDIFF">      0.00001000</i>
  <i name="EDIFFG">     -0.02000000</i>
  <i type="int" name="NSW">     1</i>
  <i type="int" name="ISIF">     3</i>
  <i name="ENCUT">    680.00000000</i>
  <i name="ENAUG">   1360.00000000</i>
  <v name="MAGMOM">      0.60000000      0.60000000</v>
  <i type="string" name="LREAL">Auto</i>
  <i type="int" name="ISMEAR">    -5</i>
  <i name="SIGMA">      0.05000000</i>
  <i name="KSPACING">      0.40000000</i>
  <i type="logical" name="LWAVE"> F  </i>
  <i type="logical" name="LCHARG"> T  </i>
  <i type="logical" name="LVTOT"> T  </i>
  <i type="int" name="LORBIT">    11</i>
  <i type="logical" name="LELF"> T  </i>
  <i type="logical" name="LASPH"> T  </i>
  <i type="logical" name="LAECHG"> T  </i>
  <i name="HFSCREEN">      0.20000000</i>
  <i type="logical" name="LHFCALC"> T  </i>
  <i type="string" name="GGA">Pe</i>
  <i type="string" name="PRECFOCK">Fast</i>
  <i type="logical" name="LMIXTAU"> T  </i>
 </incar>
 <primitive_cell>
  <structure name="primitive_cell" >
   <crystal>
    <varray name="basis" >
     <v>       3.34889800       0.00000000       1.93348700 </v>
     <v>       1.11629900       3.15737200       1.93348700 </v>
     <v>       0.00000000       0.00000000       3.86697500 </v>
    </varray>
    <i name="volume">     40.88829843 </i>
    <varray name="rec_basis" >
     <v>       0.29860569      -0.10557300       0.00000000 </v>
     <v>       0.00000000       0.31671909       0.00000000 </v>
     <v>      -0.14930281      -0.10557302       0.25860007 </v>
    </varray>
   </crystal>
   <varray name="positions" >
    <v>       0.25000000       0.25000000       0.25000000 </v>
    <v>       0.00000000       0.00000000       0.00000000 </v>
   </varray>
  </structure>
  <varray name="primitive_index" >
   <v type="int" >        1 </v>
   <v type="int" >        2 </v>
  </varray>
 </primitive_cell>
 <kpoints>
  <generation param="Gamma">
   <v type="int" name="divisions">       5        5        5 </v>
   <v name="usershift">      0.00000000       0.00000000       0.00000000 </v>
   <v name="genvec1">      0.20000000      -0.00000000       0.00000000 </v>
   <v name="genvec2">      0.00000000       0.20000000       0.00000000 </v>
   <v name="genvec3">     -0.00000000       0.00000000       0.20000000 </v>
   <v name="shift">      0.00000000       0.00000000       0.00000000 </v>
  </generation>
  <varray name="kpointlist" >
   <v>       0.00000000       0.00000000       0.00000000 </v>
   <v>       0.20000000       0.00000000       0.00000000 </v>
   <v>       0.40000000       0.00000000       0.00000000 </v>
   <v>       0.20000000       0.20000000       0.00000000 </v>
   <v>       0.40000000       0.20000000       0.00000000 </v>
   <v>      -0.40000000       0.20000000       0.00000000 </v>
   <v>      -0.20000000       0.20000000       0.00000000 </v>
   <v>       0.40000000       0.40000000       0.00000000 </v>
   <v>      -0.40000000       0.40000000       0.00000000 </v>
   <v>      -0.40000000       0.40000000       0.20000000 </v>
  </varray>
  <varray name="weights" >
   <v>       0.00800000 </v>
   <v>       0.06400000 </v>
   <v>       0.06400000 </v>
   <v>       0.04800000 </v>
   <v>       0.19200000 </v>
   <v>       0.19200000 </v>
   <v>       0.09600000 </v>
   <v>       0.04800000 </v>
   <v>       0.09600000 </v>
   <v>       0.19200000 </v>
  </varray>
  <varray name="tetrahedronlist"  type="int" >
   <v type="int" >       24        1        2        2        4 </v>
   <v type="int" >       48        2        4        5        7 </v>
   <v type="int" >       48        2        3        5        7 </v>
   <v type="int" >       24        2        2        4        7 </v>
   <v type="int" >       48        3        5        6        6 </v>
   <v type="int" >       24        3        3        6        6 </v>
   <v type="int" >       48        3        5        6        7 </v>
   <v type="int" >       24        4        5        5        8 </v>
   <v type="int" >       24        4        5        5        7 </v>
   <v type="int" >       48        5        8        9       10 </v>
   <v type="int" >       48        5        6        9       10 </v>
   <v type="int" >       48        5        6        6       10 </v>
   <v type="int" >       24        5        5        8       10 </v>
   <v type="int" >       24        5        5        7       10 </v>
   <v type="int" >       48        5        6        7       10 </v>
   <v type="int" >       24        6        6        9       10 </v>
   <v type="int" >       24        6        6        7       10 </v>
   <v type="int" >       48        6        9       10       10 </v>
   <v type="int" >       24        6        6       10       10 </v>
   <v type="int" >       12        8        8        9        9 </v>
   <v type="int" >       24        8        9        9       10 </v>
   <v type="int" >       12        9        9       10       10 </v>
   <v type="int" >       24        9       10       10       10 </v>
   <v type="int" >        6       10       10       10       10 </v>
  </varray>
  <i name="volumeweight">      0.00133333 </i>
 </kpoints>
 <parameters>
  <separator name="general" >
   <i type="string" name="SYSTEM">unknown system</i>
   <i type="logical" name="LCOMPAT"> F  </i>
  </separator>
  <separator name="electronic" >
   <i type="string" name="PREC">accura</i>
   <i name="ENMAX">    680.00000000</i>
   <i name="ENAUG">   1360.00000000</i>
   <i name="EDIFF">      0.00001000</i>
   <i type="int" name="IALGO">    58</i>
   <i type="int" name="IWAVPR">    11</i>
   <i type="int" name="NBANDS">     9</i>
   <i type="int" name="NBANDSLOW">    -1</i>
   <i type="int" name="NBANDSHIGH">    -1</i>
   <i name="NELECT">      8.00000000</i>
   <i type="int" name="TURBO">     0</i>
   <i type="int" name="IRESTART">     0</i>
   <i type="int" name="NREBOOT">     0</i>
   <i type="int" name="NMIN">     0</i>
   <i name="EREF">      0.00000000</i>
   <separator name="electronic smearing" >
    <i type="int" name="ISMEAR">    -5</i>
    <i name="SIGMA">      0.05000000</i>
    <i name="KSPACING">      0.40000000</i>
    <i type="logical" name="KGAMMA"> T  </i>
    <i type="logical" name="KBLOWUP"> T  </i>
   </separator>
   <separator name="electronic projectors" >
    <i type="logical" name="LREAL"> T  </i>
    <v name="ROPT">     -0.00025000</v>
    <i type="int" name="LMAXPAW">  -100</i>
    <i type="int" name="LMAXMIX">     2</i>
    <i type="logical" name="NLSPLINE"> F  </i>
   </separator>
   <separator name="electronic startup" >
    <i type="int" name="ISTART">     0</i>
    <i type="int" name="ICHARG">     2</i>
    <i type="int" name="INIWAV">     1</i>
   </separator>
   <separator name="electronic spin" >
    <i type="int" name="ISPIN">     2</i>
    <i type="logical" name="LNONCOLLINEAR"> F  </i>
    <v name="MAGMOM">      0.60000000      0.60000000</v>
    <i name="NUPDOWN">     -1.00000000</i>
    <i type="logical" name="LSORBIT"> F  </i>
    <v name="SAXIS">      0.00000000      0.00000000      1.00000000</v>
    <i type="logical" name="LSPIRAL"> F  </i>
    <v name="QSPIRAL">      0.00000000      0.00000000      0.00000000</v>
    <i type="logical" name="LZEROZ"> F  </i>
   </separator>
   <separator name="electronic exchange-correlation" >
    <i type="logical" name="LASPH"> T  </i>
    <i type="logical" name="LMETAGGA"> F  </i>
   </separator>
   <separator name="electronic convergence" >
    <i type="int" name="NELM">   200</i>
    <i type="int" name="NELMDL">    -5</i>
    <i type="int" name="NELMIN">     2</i>
    <i name="ENINI">    680.00000000</i>
    <separator name="electronic convergence detail" >
     <i type="logical" name="LDIAG"> T  </i>
     <i type="logical" name="LSUBROT"> F  </i>
     <i name="WEIMIN">      0.00100000</i>
     <i name="EBREAK">      0.00000028</i>
     <i name="DEPER">      0.30000000</i>
     <i type="int" name="NRMM">     4</i>
     <i name="TIME">      0.40000000</i>
    </separator>
   </separator>
   <separator name="electronic mixer" >
    <i name="AMIX">      0.40000000</i>
    <i name="BMIX">      1.00000000</i>
    <i name="AMIN">      0.10000000</i>
    <i name="AMIX_MAG">      1.60000000</i>
    <i name="BMIX_MAG">      1.00000000</i>
    <separator name="electronic mixer details" >
     <i type="int" name="IMIX">     4</i>
     <i type="logical" name="MIXFIRST"> F  </i>
     <i type="int" name="MAXMIX">   -45</i>
     <i name="WC">    100.00000000</i>
     <i type="int" name="INIMIX">     1</i>
     <i type="int" name="MIXPRE">     1</i>
     <i type="int" name="MREMOVE">     5</i>
    </separator>
   </separator>
   <separator name="electronic dipolcorrection" >
    <i type="logical" name="LDIPOL"> F  </i>
    <i type="logical" name="LMONO"> F  </i>
    <i type="int" name="IDIPOL">     0</i>
    <i name="EPSILON">      1.00000000</i>
    <v name="DIPOL">   -100.00000000   -100.00000000   -100.00000000</v>
    <i name="EFIELD">      0.00000000</i>
   </separator>
  </separator>
  <separator name="grids" >
   <i type="int" name="NGX">    36</i>
   <i type="int" name="NGY">    36</i>
   <i type="int" name="NGZ">    36</i>
   <i type="int" name="NGXF">    72</i>
   <i type="int" name="NGYF">    72</i>
   <i type="int" name="NGZF">    72</i>
   <i type="logical" name="ADDGRID"> F  </i>
  </separator>
  <separator name="ionic" >
   <i type="int" name="NSW">     1</i>
   <i type="int" name="IBRION">     2</i>
   <i type="int" name="MDALGO">     0</i>
   <i type="int" name="ISIF">     3</i>
   <i name="PSTRESS">      0.00000000</i>
   <i name="EDIFFG">     -0.02000000</i>
   <i type="int" name="NFREE">     1</i>
   <i name="POTIM">      0.50000000</i>
   <i name="SMASS">     -3.00000000</i>
   <i name="SCALEE">      1.00000000</i>
  </separator>
  <separator name="ionic md" >
   <i name="TEBEG">      0.00010000</i>
   <i name="TEEND">      0.00010000</i>
   <i type="int" name="NBLOCK">     1</i>
   <i type="int" name="KBLOCK">     1</i>
   <i type="int" name="NPACO">   256</i>
   <i name="APACO">     16.00000000</i>
  </separator>
  <separator name="symmetry" >
   <i type="int" name="ISYM">     3</i>
   <i name="SYMPREC">      0.00001000</i>
  </separator>
  <separator name="dos" >
   <i type="int" name="LORBIT">    11</i>
   <v name="RWIGS">     -1.00000000</v>
   <i type="int" name="NEDOS">   301</i>
   <i name="EMIN">     10.00000000</i>
   <i name="EMAX">    -10.00000000</i>
   <i name="EFERMI">      0.00000000</i>
  </separator>
  <separator name="writing" >
   <i type="int" name="NWRITE">     2</i>
   <i type="logical" name="LWAVE"> F  </i>
   <i type="logical" name="LDOWNSAMPLE"> F  </i>
   <i type="logical" name="LCHARG"> T  </i>
   <i type="logical" name="LPARD"> F  </i>
   <i type="logical" name="LVTOT"> T  </i>
   <i type="logical" name="LVHAR"> F  </i>
   <i type="logical" name="LELF"> T  </i>
   <i type="logical" name="LOPTICS"> F  </i>
   <v name="STM">      0.00000000      0.00000000      0.00000000      0.00000000      0.00000000      0.00000000      0.00000000</v>
  </separator>
  <separator name="performance" >
   <i type="int" name="NPAR">     1</i>
   <i type="int" name="NSIM">     4</i>
   <i type="int" name="NBLK">    -1</i>
   <i type="logical" name="LPLANE"> T  </i>
   <i type="logical" name="LSCALAPACK"> F  </i>
   <i type="logical" name="LSCAAWARE"> F  </i>
   <i type="logical" name="LSCALU"> F  </i>
   <i type="logical" name="LASYNC"> F  </i>
   <i type="logical" name="LORBITALREAL"> F  </i>
  </separator>
  <separator name="miscellaneous" >
   <i type="int" name="IDIOT">     3</i>
   <i type="int" name="PHON_NSTRUCT">    -1</i>
   <i type="logical" name="LMUSIC"> F  </i>
   <v name="POMASS">     28.08500000</v>
   <v name="DARWINR">      0.00000000</v>
   <v name="DARWINV">      1.00000000</v>
   <i type="logical" name="LCORR"> T  </i>
  </separator>
  <i type="logical" name="GGA_COMPAT"> T  </i>
  <i type="logical" name="LBERRY"> F  </i>
  <i type="int" name="ICORELEVEL">     0</i>
  <i type="logical" name="LDAU"> F  </i>
  <i type="int" name="I_CONSTRAINED_M">     0</i>
  <separator name="electronic exchange-correlation" >
   <i type="string" name="GGA">PE</i>
   <i type="int" name="VOSKOWN">     0</i>
   <i type="logical" name="LHFCALC"> T  </i>
   <i type="string" name="PRECFOCK">fast</i>
   <i type="logical" name="LSYMGRAD"> F  </i>
   <i type="logical" name="LHFONE"> F  </i>
   <i type="logical" name="LRHFCALC"> F  </i>
   <i type="logical" name="LTHOMAS"> F  </i>
   <i type="logical" name="LMODELHF"> F  </i>
   <i type="logical" name="LFOCKACE"> T  </i>
   <i name="ENCUT4O">     -1.00000000</i>
   <i type="int" name="EXXOEP">     0</i>
   <i type="int" name="FOURORBIT">     0</i>
   <i name="AEXX">      0.25000000</i>
   <i name="HFALPHA">     -1.00000000</i>
   <i name="MCALPHA">      0.00000000</i>
   <i name="ALDAX">      0.75000000</i>
   <i name="AGGAX">      0.75000000</i>
   <i name="ALDAC">      1.00000000</i>
   <i name="AGGAC">      1.00000000</i>
   <i type="int" name="NKREDX">     1</i>
   <i type="int" name="NKREDY">     1</i>
   <i type="int" name="NKREDZ">     1</i>
   <i type="logical" name="SHIFTRED"> F  </i>
   <i type="logical" name="ODDONLY"> F  </i>
   <i type="logical" name="EVENONLY"> F  </i>
   <i type="int" name="LMAXFOCK">     4</i>
   <i type="int" name="NMAXFOCKAE">     1</i>
   <i type="logical" name="LFOCKAEDFT"> F  </i>
   <i name="HFSCREEN">      0.20000000</i>
   <i name="HFSCREENC">      0.20000000</i>
   <i type="int" name="NBANDSGWLOW">     1</i>
  </separator>
  <separator name="vdW DFT" >
   <i type="logical" name="LUSE_VDW"> F  </i>
   <i name="Zab_VDW">     -0.84910000</i>
   <i name="PARAM1">      0.12340000</i>
   <i name="PARAM2">      1.00000000</i>
   <i name="PARAM3">      0.00000000</i>
  </separator>
  <separator name="model GW" >
   <i type="int" name="MODEL_GW">     0</i>
   <i name="MODEL_EPS0">     12.26648953</i>
   <i name="MODEL_ALPHA">      1.00000000</i>
  </separator>
  <separator name="linear response parameters" >
   <i type="logical" name="LEPSILON"> F  </i>
   <i type="logical" name="LRPA"> F  </i>
   <i type="logical" name="LNABLA"> F  </i>
   <i type="logical" name="LVEL"> F  </i>
   <i type="int" name="KINTER">     0</i>
   <i name="CSHIFT">      0.10000000</i>
   <i name="OMEGAMAX">     -1.00000000</i>
   <i name="DEG_THRESHOLD">      0.00200000</i>
   <i name="RTIME">     -0.10000000</i>
   <i name="WPLASMAI">      0.00000000</i>
   <v name="DFIELD">      0.00000000      0.00000000      0.00000000</v>
   <v name="WPLASMA">      0.00000000      0.00000000      0.00000000      0.00000000      0.00000000      0.00000000      0.00000000      0.00000000      0.00000000</v>
  </separator>
  <separator name="orbital magnetization" >
   <i type="logical" name="NUCIND"> F  </i>
   <v name="MAGPOS">      0.00000000      0.00000000      0.00000000</v>
   <i type="logical" name="LNICSALL"> T  </i>
   <i type="logical" name="ORBITALMAG"> F  </i>
   <i type="logical" name="LMAGBLOCH"> F  </i>
   <i type="logical" name="LCHIMAG"> F  </i>
   <i type="logical" name="LGAUGE"> T  </i>
   <i type="int" name="MAGATOM">     0</i>
   <v name="MAGDIPOL">      0.00000000      0.00000000      0.00000000</v>
   <v name="AVECCONST">      0.00000000      0.00000000      0.00000000</v>
  </separator>
  <separator name="response functions" >
   <i type="logical" name="LFINITE_TEMPERATURE"> F  </i>
   <i type="logical" name="LADDER"> F  </i>
   <i type="logical" name="LRPAFORCE"> F  </i>
   <i type="logical" name="LFXC"> F  </i>
   <i type="logical" name="LHARTREE"> T  </i>
   <i type="int" name="IBSE">     0</i>
   <v type="int" name="KPOINT">    -1     0     0     0</v>
   <i type="logical" name="LTCTC"> F  </i>
   <i type="logical" name="LTCTE"> F  </i>
   <i type="logical" name="LTETE"> F  </i>
   <i type="logical" name="LTRIPLET"> F  </i>
   <i type="logical" name="LFXCEPS"> F  </i>
   <i type="logical" name="LFXHEG"> F  </i>
   <i type="int" name="NATURALO">     2</i>
   <i type="logical" name="LHOLEGF"> F  </i>
   <i type="logical" name="L2ORDER"> F  </i>
   <i type="logical" name="LDMP1"> F  </i>
   <i type="logical" name="LMP2LT"> F  </i>
   <i type="logical" name="LSMP2LT"> F  </i>
   <i type="logical" name="LGWLF"> F  </i>
   <i name="ENCUTGW">     -2.00000000</i>
   <i name="ENCUTGWSOFT">     -2.00000000</i>
   <i name="ENCUTLF">     -1.00000000</i>
   <i type="logical" name="LESF_SPLINES"> F  </i>
   <i type="int" name="LMAXMP2">    -1</i>
   <i name="SCISSOR">      0.00000000</i>
   <i type="int" name="NOMEGA">     0</i>
   <i type="int" name="NOMEGAR">     0</i>
   <i type="int" name="NBANDSGW">    -1</i>
   <i type="int" name="NBANDSO">    -1</i>
   <i type="int" name="NBANDSV">    -1</i>
   <i type="int" name="NELM">   200</i>
   <i type="int" name="NELMHF">     1</i>
   <i type="int" name="DIM">     3</i>
   <i type="int" name="IESPILON">     4</i>
   <i type="int" name="ANTIRES">     0</i>
   <i name="OMEGAMAX">    -30.00000000</i>
   <i name="OMEGAMIN">    -30.00000000</i>
   <i name="OMEGATL">   -200.00000000</i>
   <i type="int" name="OMEGAGRID">     0</i>
   <i name="CSHIFT">     -0.10000000</i>
   <i type="logical" name="LSELFENERGY"> F  </i>
   <i type="logical" name="LSPECTRAL"> F  </i>
   <i type="logical" name="LSPECTRALGW"> F  </i>
   <i type="logical" name="LSINGLES"> F  </i>
   <i type="logical" name="LFERMIGW"> F  </i>
   <i type="logical" name="ODDONLYGW"> F  </i>
   <i type="logical" name="EVENONLYGW"> F  </i>
   <i type="int" name="NKREDLFX">     1</i>
   <i type="int" name="NKREDLFY">     1</i>
   <i type="int" name="NKREDLFZ">     1</i>
   <i type="int" name="MAXMEM">  2800</i>
   <i type="int" name="TELESCOPE">     0</i>
   <i type="int" name="NTAUPAR">    -1</i>
   <i type="int" name="NOMEGAPAR">    -1</i>
   <i name="DAMP_NEWTON">      0.80000001</i>
   <i name="LAMBDA">      1.00000000</i>
  </separator>
  <separator name="External order field" >
   <i name="OFIELD_KAPPA">      0.00000000</i>
   <v name="OFIELD_K">      0.00000000      0.00000000      0.00000000</v>
   <i name="OFIELD_Q6_NEAR">      0.00000000</i>
   <i name="OFIELD_Q6_FAR">      0.00000000</i>
   <i name="OFIELD_A">      0.00000000</i>
  </separator>
 </parameters>
 <atominfo>
  <atoms>       2 </atoms>
  <types>       1 </types>
  <array name="atoms" >
   <dimension dim="1">ion</dimension>
   <field type="string">element</field>
   <field type="int">atomtype</field>
   <set>
    <rc><c>Si</c><c>   1</c></rc>
    <rc><c>Si</c><c>   1</c></rc>
   </set>
  </array>
  <array name="atomtypes" >
   <dimension dim="1">type</dimension>
   <field type="int">atomspertype</field>
   <field type="string">element</field>
   <field>mass</field>
   <field>valence</field>
   <field type="string">pseudopotential</field>
   <set>
    <rc><c>   2</c><c>Si</c><c>     28.08500000</c><c>      4.00000000</c><c>  PAW_PBE Si 05Jan2001                  </c></rc>
   </set>
  </array>
 </atominfo>
 <structure name="initialpos" >
  <crystal>
   <varray name="basis" >
    <v>       3.34889800       0.00000000       1.93348700 </v>
    <v>       1.11629900       3.15737200       1.93348700 </v>
    <v>       0.00000000       0.00000000       3.86697500 </v>
   </varray>
   <i name="volume">     40.88829843 </i>
   <varray name="rec_basis" >
    <v>       0.29860569      -0.10557300       0.00000000 </v>
    <v>       0.00000000       0.31671909       0.00000000 </v>
    <v>      -0.14930281      -0.10557302       0.25860007 </v>
   </varray>
  </crystal>
  <varray name="positions" >
   <v>       0.25000000       0.25000000       0.25000000 </v>
   <v>       0.00000000       0.00000000       0.00000000 </v>
  </varray>
 </structure>
 <calculation>
  <scstep>
   <time name="total">    0.69    0.71</time>
   <energy>
    <i name="alphaZ">      3.29317992 </i>
    <i name="ewald">   -226.94489173 </i>
    <i name="hartreedc">    -11.32339116 </i>
    <i name="XCdc">    -18.60636939 </i>
    <i name="pawpsdc">    176.18363791 </i>
    <i name="pawaedc">   -391.56082810 </i>
    <i name="eentropy">      0.00000000 </i>
    <i name="bandstr">     17.59688665 </i>
    <i name="atom">    203.99906502 </i>
    <i name="e_fr_energy">   -247.36271089 </i>
    <i name="e_wo_entrp">   -247.36271089 </i>
    <i name="e_0_energy">   -247.36271089 </i>
   </energy>
  </scstep>
  <scstep>
   <time name="total">    0.48    0.48</time>
   <energy>
    <i name="e_fr_energy">   -266.78725903 </i>
    <i name="e_wo_entrp">   -266.78725903 </i>
    <i name="e_0_energy">   -266.78725903 </i>
   </energy>
  </scstep>
  <scstep>
   <time name="total">    0.48    0.48</time>
   <energy>
    <i name="e_fr_energy">   -267.24871785 </i>
    <i name="e_wo_entrp">   -267.24871785 </i>
    <i name="e_0_energy">   -267.24871785 </i>
   </energy>
  </scstep>
  <scstep>
   <time name="total">    0.78    0.82</time>
   <energy>
    <i name="e_fr_energy">   -267.25189032 </i>
    <i name="e_wo_entrp">   -267.25189032 </i>
    <i name="e_0_energy">   -267.25189032 </i>
   </energy>
  </scstep>
  <scstep>
   <time name="total">   17.07   18.10</time>
   <energy>
    <i name="e_fr_energy">    -12.76811357 </i>
    <i name="e_wo_entrp">    -12.76811357 </i>
    <i name="e_0_energy">    -12.76811357 </i>
   </energy>
  </scstep>
  <scstep>
   <time name="total">   28.31   28.74</time>
   <energy>
    <i name="e_fr_energy">    -12.40638158 </i>
    <i name="e_wo_entrp">    -12.40638158 </i>
    <i name="e_0_energy">    -12.40638158 </i>
   </energy>
  </scstep>
  <scstep>
   <time name="total">   24.31   24.38</time>
   <energy>
    <i name="e_fr_energy">    -12.50288651 </i>
    <i name="e_wo_entrp">    -12.50288651 </i>
    <i name="e_0_energy">    -12.50288651 </i>
   </energy>
  </scstep>
  <scstep>
   <time name="total">   29.79   30.91</time>
   <energy>
    <i name="e_fr_energy">    -12.52104203 </i>
    <i name="e_wo_entrp">    -12.52104203 </i>
    <i name="e_0_energy">    -12.52104203 </i>
   </energy>
  </scstep>
  <scstep>
   <time name="total">   27.88   28.22</time>
   <energy>
    <i name="e_fr_energy">    -12.52750191 </i>
    <i name="e_wo_entrp">    -12.52750191 </i>
    <i name="e_0_energy">    -12.52750191 </i>
   </energy>
  </scstep>
  <scstep>
   <time name="total">   33.01   33.77</time>
   <energy>
    <i name="e_fr_energy">    -12.52870988 </i>
    <i name="e_wo_entrp">    -12.52870988 </i>
    <i name="e_0_energy">    -12.52870988 </i>
   </energy>
  </scstep>
  <scstep>
   <time name="total">   27.16   27.34</time>
   <energy>
    <i name="e_fr_energy">    -12.52885825 </i>
    <i name="e_wo_entrp">    -12.52885825 </i>
    <i name="e_0_energy">    -12.52885825 </i>
   </energy>
  </scstep>
  <scstep>
   <time name="total">   31.62   32.28</time>
   <energy>
    <i name="e_fr_energy">    -12.52887115 </i>
    <i name="e_wo_entrp">    -12.52887115 </i>
    <i name="e_0_energy">    -12.52887115 </i>
   </energy>
  </scstep>
  <scstep>
   <time name="total">   45.67   46.83</time>
   <energy>
    <i name="alphaZ">      3.29317992 </i>
    <i name="ewald">   -226.94489173 </i>
    <i name="hartreedc">    -15.33770218 </i>
    <i name="XCdc">    -14.43411296 </i>
    <i name="pawpsdc">   1635.36848066 </i>
    <i name="pawaedc">  -1607.72144497 </i>
    <i name="eentropy">      0.00000000 </i>
    <i name="bandstr">     -1.99697630 </i>
    <i name="atom">    203.99906502 </i>
    <i name="e_fr_energy">    -12.52887403 </i>
    <i name="e_wo_entrp">    -12.52887403 </i>
    <i name="e_0_energy">    -12.52887403 </i>
   </energy>
  </scstep>
  <structure>
   <crystal>
    <varray name="basis" >
     <v>       3.34889800       0.00000000       1.93348700 </v>
     <v>       1.11629900       3.15737200       1.93348700 </v>
     <v>       0.00000000       0.00000000       3.86697500 </v>
    </varray>
    <i name="volume">     40.88829843 </i>
    <varray name="rec_basis" >
     <v>       0.29860569      -0.10557300       0.00000000 </v>
     <v>       0.00000000       0.31671909       0.00000000 </v>
     <v>      -0.14930281      -0.10557302       0.25860007 </v>
    </varray>
   </crystal>
   <varray name="positions" >
    <v>       0.25000000       0.25000000       0.25000000 </v>
    <v>       0.00000000       0.00000000       0.00000000 </v>
   </varray>
  </structure>
  <varray name="forces" >
   <v>      -0.00000000      -0.00000000      -0.00000000 </v>
   <v>       0.00000000       0.00000000       0.00000000 </v>
  </varray>
  <varray name="stress" >
   <v>     -16.93566495       0.00000179       0.00000253 </v>
   <v>       0.00000179     -16.93567232       0.00000179 </v>
   <v>       0.00000253       0.00000179     -16.93567088 </v>
  </varray>
  <energy>
   <i name="e_fr_energy">    -12.52887403 </i>
   <i name="e_wo_entrp">    -12.52887403 </i>
   <i name="e_0_energy">    -12.52887403 </i>
  </energy>
  <time name="totalsc">  284.27  290.47</time>
  <eigenvalues>
   <array>
    <dimension dim="1">band</dimension>
    <dimension dim="2">kpoint</dimension>
    <dimension dim="3">spin</dimension>
    <field>eigene</field>
    <field>occ</field>
    <set>
     <set comment="spin 1">
      <set comment="kpoint 1">
       <r>   -7.8759    1.0000 </r>
       <r>    5.2583    1.0000 </r>
       <r>    5.2583    1.0000 </r>
       <r>    5.2583    1.0000 </r>
       <r>    8.5978    0.0000 </r>
       <r>    8.5978    0.0000 </r>
       <r>    8.5978    0.0000 </r>
       <r>    9.3580    0.0000 </r>
       <r>   14.0007    0.0000 </r>
      </set>
      <set comment="kpoint 2">
       <r>   -7.3122    1.0000 </r>
       <r>    2.0314    1.0000 </r>
       <r>    4.6564    1.0000 </r>
       <r>    4.6564    1.0000 </r>
       <r>    8.1848    0.0000 </r>
       <r>    9.4372    0.0000 </r>
       <r>    9.4372    0.0000 </r>
       <r>   12.1806    0.0000 </r>
       <r>   13.3181    0.0000 </r>
      </set>
      <set comment="kpoint 3">
       <r>   -5.8281    1.0000 </r>
       <r>   -1.5801    1.0000 </r>
       <r>    4.0488    1.0000 </r>
       <r>    4.0488    1.0000 </r>
       <r>    7.5395    0.0000 </r>
       <r>    9.5072    0.0000 </r>
       <r>    9.5072    0.0000 </r>
       <r>   14.0050    0.0000 </r>
       <r>   15.4063    0.0000 </r>
      </set>
      <set comment="kpoint 4">
       <r>   -7.1178    1.0000 </r>
       <r>    2.4227    1.0000 </r>
       <r>    3.6937    1.0000 </r>
       <r>    3.6937    1.0000 </r>
       <r>    7.4040    0.0000 </r>
       <r>    9.9634    0.0000 </r>
       <r>   11.0457    0.0000 </r>
       <r>   11.0457    0.0000 </r>
       <r>   13.2801    0.0000 </r>
      </set>
      <set comment="kpoint 5">
       <r>   -5.8720    1.0000 </r>
       <r>   -0.5396    1.0000 </r>
       <r>    2.4895    1.0000 </r>
       <r>    3.1269    1.0000 </r>
       <r>    7.7266    0.0000 </r>
       <r>   10.1712    0.0000 </r>
       <r>   11.0606    0.0000 </r>
       <r>   11.6337    0.0000 </r>
       <r>   16.8174    0.0000 </r>
      </set>
      <set comment="kpoint 6">
       <r>   -4.9101    1.0000 </r>
       <r>   -2.0692    1.0000 </r>
       <r>    1.6050    1.0000 </r>
       <r>    3.4257    1.0000 </r>
       <r>    8.0381    0.0000 </r>
       <r>   10.6817    0.0000 </r>
       <r>   10.9767    0.0000 </r>
       <r>   13.8608    0.0000 </r>
       <r>   14.7192    0.0000 </r>
      </set>
      <set comment="kpoint 7">
       <r>   -6.4051    1.0000 </r>
       <r>    0.3784    1.0000 </r>
       <r>    2.0970    1.0000 </r>
       <r>    4.3604    1.0000 </r>
       <r>    8.9300    0.0000 </r>
       <r>   10.1410    0.0000 </r>
       <r>   10.3410    0.0000 </r>
       <r>   11.9052    0.0000 </r>
       <r>   12.3155    0.0000 </r>
      </set>
      <set comment="kpoint 8">
       <r>   -4.9106    1.0000 </r>
       <r>   -1.5252    1.0000 </r>
       <r>    2.3589    1.0000 </r>
       <r>    2.3589    1.0000 </r>
       <r>    6.4728    0.0000 </r>
       <r>    7.2577    0.0000 </r>
       <r>   14.8925    0.0000 </r>
       <r>   14.8926    0.0000 </r>
       <r>   17.5775    0.0000 </r>
      </set>
      <set comment="kpoint 9">
       <r>   -3.5941    1.0000 </r>
       <r>   -2.9164    1.0000 </r>
       <r>    0.9291    1.0000 </r>
       <r>    2.4872    1.0000 </r>
       <r>    6.9541    0.0000 </r>
       <r>    9.1725    0.0000 </r>
       <r>   14.4788    0.0000 </r>
       <r>   14.9881    0.0000 </r>
       <r>   15.0949    0.0000 </r>
      </set>
      <set comment="kpoint 10">
       <r>   -4.4331    1.0000 </r>
       <r>   -1.9512    1.0000 </r>
       <r>    1.0218    1.0000 </r>
       <r>    2.0911    1.0000 </r>
       <r>    9.4308    0.0000 </r>
       <r>    9.8068    0.0000 </r>
       <r>   10.5681    0.0000 </r>
       <r>   14.0924    0.0000 </r>
       <r>   14.8270    0.0000 </r>
      </set>
     </set>
     <set comment="spin 2">
      <set comment="kpoint 1">
       <r>   -7.8759    1.0000 </r>
       <r>    5.2590    1.0000 </r>
       <r>    5.2590    1.0000 </r>
       <r>    5.2590    1.0000 </r>
       <r>    8.5975    0.0000 </r>
       <r>    8.5975    0.0000 </r>
       <r>    8.5975    0.0000 </r>
       <r>    9.3580    0.0000 </r>
       <r>   14.0462    0.0000 </r>
      </set>
      <set comment="kpoint 2">
       <r>   -7.3122    1.0000 </r>
       <r>    2.0316    1.0000 </r>
       <r>    4.6569    1.0000 </r>
       <r>    4.6569    1.0000 </r>
       <r>    8.1845    0.0000 </r>
       <r>    9.4369    0.0000 </r>
       <r>    9.4369    0.0000 </r>
       <r>   12.1807    0.0000 </r>
       <r>   13.3177    0.0000 </r>
      </set>
      <set comment="kpoint 3">
       <r>   -5.8280    1.0000 </r>
       <r>   -1.5801    1.0000 </r>
       <r>    4.0492    1.0000 </r>
       <r>    4.0492    1.0000 </r>
       <r>    7.5392    0.0000 </r>
       <r>    9.5068    0.0000 </r>
       <r>    9.5069    0.0000 </r>
       <r>   14.0027    0.0000 </r>
       <r>   15.3762    0.0000 </r>
      </set>
      <set comment="kpoint 4">
       <r>   -7.1177    1.0000 </r>
       <r>    2.4231    1.0000 </r>
       <r>    3.6940    1.0000 </r>
       <r>    3.6941    1.0000 </r>
       <r>    7.4035    0.0000 </r>
       <r>    9.9630    0.0000 </r>
       <r>   11.0456    0.0000 </r>
       <r>   11.0456    0.0000 </r>
       <r>   13.2796    0.0000 </r>
      </set>
      <set comment="kpoint 5">
       <r>   -5.8719    1.0000 </r>
       <r>   -0.5394    1.0000 </r>
       <r>    2.4896    1.0000 </r>
       <r>    3.1271    1.0000 </r>
       <r>    7.7262    0.0000 </r>
       <r>   10.1709    0.0000 </r>
       <r>   11.0605    0.0000 </r>
       <r>   11.6336    0.0000 </r>
       <r>   16.7520    0.0000 </r>
      </set>
      <set comment="kpoint 6">
       <r>   -4.9099    1.0000 </r>
       <r>   -2.0692    1.0000 </r>
       <r>    1.6050    1.0000 </r>
       <r>    3.4260    1.0000 </r>
       <r>    8.0377    0.0000 </r>
       <r>   10.6816    0.0000 </r>
       <r>   10.9764    0.0000 </r>
       <r>   13.8577    0.0000 </r>
       <r>   14.6925    0.0000 </r>
      </set>
      <set comment="kpoint 7">
       <r>   -6.4051    1.0000 </r>
       <r>    0.3786    1.0000 </r>
       <r>    2.0970    1.0000 </r>
       <r>    4.3609    1.0000 </r>
       <r>    8.9296    0.0000 </r>
       <r>   10.1407    0.0000 </r>
       <r>   10.3411    0.0000 </r>
       <r>   11.9049    0.0000 </r>
       <r>   12.3153    0.0000 </r>
      </set>
      <set comment="kpoint 8">
       <r>   -4.9105    1.0000 </r>
       <r>   -1.5249    1.0000 </r>
       <r>    2.3591    1.0000 </r>
       <r>    2.3591    1.0000 </r>
       <r>    6.4722    0.0000 </r>
       <r>    7.2571    0.0000 </r>
       <r>   14.8926    0.0000 </r>
       <r>   14.8926    0.0000 </r>
       <r>   17.4756    0.0000 </r>
      </set>
      <set comment="kpoint 9">
       <r>   -3.5938    1.0000 </r>
       <r>   -2.9162    1.0000 </r>
       <r>    0.9289    1.0000 </r>
       <r>    2.4874    1.0000 </r>
       <r>    6.9535    0.0000 </r>
       <r>    9.1723    0.0000 </r>
       <r>   14.4787    0.0000 </r>
       <r>   14.9896    0.0000 </r>
       <r>   15.0947    0.0000 </r>
      </set>
      <set comment="kpoint 10">
       <r>   -4.4329    1.0000 </r>
       <r>   -1.9509    1.0000 </r>
       <r>    1.0217    1.0000 </r>
       <r>    2.0912    1.0000 </r>
       <r>    9.4306    0.0000 </r>
       <r>    9.8065    0.0000 </r>
       <r>   10.5679    0.0000 </r>
       <r>   14.0923    0.0000 </r>
       <r>   14.8270    0.0000 </r>
      </set>
     </set>
    </set>
   </array>
  </eigenvalues>
  <separator name="orbital magnetization" >
   <v name="MAGDIPOLOUT">      0.00000000      0.00000000      0.00000000</v>
  </separator>
  <dos>
   <i name="efermi">      5.25901063 </i>
   <total>
    <array>
     <dimension dim="1">gridpoints</dimension>
     <dimension dim="2">spin</dimension>
     <field>energy</field>
     <field>total</field>
     <field>integrated</field>
     <set>
      <set comment="spin 1">
       <r>    -9.1486     0.0000     0.0000 </r>
       <r>    -9.0553     0.0000     0.0000 </r>
       <r>    -8.9619     0.0000     0.0000 </r>
       <r>    -8.8686     0.0000     0.0000 </r>
       <r>    -8.7753     0.0000     0.0000 </r>
       <r>    -8.6819     0.0000     0.0000 </r>
       <r>    -8.5886     0.0000     0.0000 </r>
       <r>    -8.4953     0.0000     0.0000 </r>
       <r>    -8.4020     0.0000     0.0000 </r>
       <r>    -8.3086     0.0000     0.0000 </r>
       <r>    -8.2153     0.0000     0.0000 </r>
       <r>    -8.1220     0.0000     0.0000 </r>
       <r>    -8.0286     0.0000     0.0000 </r>
       <r>    -7.9353     0.0000     0.0000 </r>
       <r>    -7.8420     0.0005     0.0000 </r>
       <r>    -7.7487     0.0065     0.0003 </r>
       <r>    -7.6553     0.0194     0.0014 </r>
       <r>    -7.5620     0.0393     0.0041 </r>
       <r>    -7.4687     0.0661     0.0090 </r>
       <r>    -7.3753     0.0999     0.0167 </r>
       <r>    -7.2820     0.1209     0.0275 </r>
       <r>    -7.1887     0.1125     0.0383 </r>
       <r>    -7.0953     0.1177     0.0490 </r>
       <r>    -7.0020     0.1272     0.0604 </r>
       <r>    -6.9087     0.1371     0.0727 </r>
       <r>    -6.8154     0.1474     0.0860 </r>
       <r>    -6.7220     0.1580     0.1002 </r>
       <r>    -6.6287     0.1690     0.1155 </r>
       <r>    -6.5354     0.1804     0.1318 </r>
       <r>    -6.4420     0.1921     0.1492 </r>
       <r>    -6.3487     0.2041     0.1677 </r>
       <r>    -6.2554     0.2159     0.1873 </r>
       <r>    -6.1621     0.2274     0.2079 </r>
       <r>    -6.0687     0.2387     0.2297 </r>
       <r>    -5.9754     0.2497     0.2525 </r>
       <r>    -5.8821     0.2604     0.2763 </r>
       <r>    -5.7887     0.2905     0.3016 </r>
       <r>    -5.6954     0.3315     0.3307 </r>
       <r>    -5.6021     0.3643     0.3633 </r>
       <r>    -5.5087     0.3890     0.3985 </r>
       <r>    -5.4154     0.4056     0.4356 </r>
       <r>    -5.3221     0.4141     0.4739 </r>
       <r>    -5.2288     0.4144     0.5127 </r>
       <r>    -5.1354     0.4067     0.5510 </r>
       <r>    -5.0421     0.3908     0.5883 </r>
       <r>    -4.9488     0.3669     0.6237 </r>
       <r>    -4.8554     0.3750     0.6577 </r>
       <r>    -4.7621     0.3969     0.6938 </r>
       <r>    -4.6688     0.4023     0.7312 </r>
       <r>    -4.5755     0.3914     0.7684 </r>
       <r>    -4.4821     0.3641     0.8038 </r>
       <r>    -4.3888     0.5116     0.8487 </r>
       <r>    -4.2955     0.3619     0.8854 </r>
       <r>    -4.2021     0.3015     0.9164 </r>
       <r>    -4.1088     0.2450     0.9418 </r>
       <r>    -4.0155     0.1921     0.9622 </r>
       <r>    -3.9221     0.1430     0.9778 </r>
       <r>    -3.8288     0.0976     0.9890 </r>
       <r>    -3.7355     0.0560     0.9961 </r>
       <r>    -3.6422     0.0181     0.9996 </r>
       <r>    -3.5488     0.0000     1.0000 </r>
       <r>    -3.4555     0.0000     1.0000 </r>
       <r>    -3.3622     0.0000     1.0000 </r>
       <r>    -3.2688     0.0000     1.0000 </r>
       <r>    -3.1755     0.0000     1.0000 </r>
       <r>    -3.0822     0.0000     1.0000 </r>
       <r>    -2.9889     0.0000     1.0000 </r>
       <r>    -2.8955     0.0063     1.0001 </r>
       <r>    -2.8022     0.0387     1.0021 </r>
       <r>    -2.7089     0.0777     1.0075 </r>
       <r>    -2.6155     0.1233     1.0168 </r>
       <r>    -2.5222     0.1755     1.0307 </r>
       <r>    -2.4289     0.2344     1.0498 </r>
       <r>    -2.3356     0.2998     1.0747 </r>
       <r>    -2.2422     0.3719     1.1060 </r>
       <r>    -2.1489     0.4506     1.1443 </r>
       <r>    -2.0556     0.7277     1.1916 </r>
       <r>    -1.9622     0.7141     1.2781 </r>
       <r>    -1.8689     0.5688     1.3317 </r>
       <r>    -1.7756     0.4840     1.3771 </r>
       <r>    -1.6822     0.4459     1.4208 </r>
       <r>    -1.5889     0.3687     1.4591 </r>
       <r>    -1.4956     0.3378     1.4917 </r>
       <r>    -1.4023     0.3176     1.5223 </r>
       <r>    -1.3089     0.2981     1.5510 </r>
       <r>    -1.2156     0.2795     1.5780 </r>
       <r>    -1.1223     0.2616     1.6032 </r>
       <r>    -1.0289     0.2444     1.6268 </r>
       <r>    -0.9356     0.2281     1.6489 </r>
       <r>    -0.8423     0.2125     1.6694 </r>
       <r>    -0.7490     0.1977     1.6886 </r>
       <r>    -0.6556     0.1836     1.7064 </r>
       <r>    -0.5623     0.1704     1.7229 </r>
       <r>    -0.4690     0.1576     1.7382 </r>
       <r>    -0.3756     0.1458     1.7523 </r>
       <r>    -0.2823     0.1351     1.7654 </r>
       <r>    -0.1890     0.1255     1.7776 </r>
       <r>    -0.0956     0.1171     1.7889 </r>
       <r>    -0.0023     0.1097     1.7994 </r>
       <r>     0.0910     0.1035     1.8094 </r>
       <r>     0.1843     0.0984     1.8188 </r>
       <r>     0.2777     0.0943     1.8278 </r>
       <r>     0.3710     0.0914     1.8364 </r>
       <r>     0.4643     0.0892     1.8449 </r>
       <r>     0.5577     0.0870     1.8531 </r>
       <r>     0.6510     0.0849     1.8611 </r>
       <r>     0.7443     0.0829     1.8690 </r>
       <r>     0.8376     0.0809     1.8766 </r>
       <r>     0.9310     0.1032     1.8841 </r>
       <r>     1.0243     0.5593     1.9627 </r>
       <r>     1.1176     0.5127     2.0088 </r>
       <r>     1.2110     0.5421     2.0581 </r>
       <r>     1.3043     0.5618     2.1097 </r>
       <r>     1.3976     0.5718     2.1627 </r>
       <r>     1.4910     0.5721     2.2161 </r>
       <r>     1.5843     0.5626     2.2691 </r>
       <r>     1.6776     0.5357     2.3205 </r>
       <r>     1.7709     0.5066     2.3691 </r>
       <r>     1.8643     0.4786     2.4151 </r>
       <r>     1.9576     0.4518     2.4585 </r>
       <r>     2.0509     0.4233     2.4994 </r>
       <r>     2.1443     0.7384     2.5586 </r>
       <r>     2.2376     0.7142     2.6218 </r>
       <r>     2.3309     0.8479     2.6942 </r>
       <r>     2.4242     1.1211     2.7880 </r>
       <r>     2.5176     0.7612     2.8735 </r>
       <r>     2.6109     0.7466     2.9439 </r>
       <r>     2.7042     0.7305     3.0128 </r>
       <r>     2.7976     0.7129     3.0802 </r>
       <r>     2.8909     0.6939     3.1458 </r>
       <r>     2.9842     0.6733     3.2096 </r>
       <r>     3.0776     0.6513     3.2715 </r>
       <r>     3.1709     0.6268     3.3311 </r>
       <r>     3.2642     0.6152     3.3889 </r>
       <r>     3.3575     0.6232     3.4466 </r>
       <r>     3.4509     0.6373     3.5057 </r>
       <r>     3.5442     0.6168     3.5643 </r>
       <r>     3.6375     0.5883     3.6206 </r>
       <r>     3.7309     0.5515     3.6738 </r>
       <r>     3.8242     0.5057     3.7232 </r>
       <r>     3.9175     0.4507     3.7679 </r>
       <r>     4.0108     0.3864     3.8071 </r>
       <r>     4.1042     0.3429     3.8406 </r>
       <r>     4.1975     0.3150     3.8713 </r>
       <r>     4.2908     0.2830     3.8993 </r>
       <r>     4.3842     0.2471     3.9240 </r>
       <r>     4.4775     0.2078     3.9453 </r>
       <r>     4.5708     0.1655     3.9627 </r>
       <r>     4.6642     0.1207     3.9761 </r>
       <r>     4.7575     0.0858     3.9857 </r>
       <r>     4.8508     0.0568     3.9923 </r>
       <r>     4.9441     0.0338     3.9965 </r>
       <r>     5.0375     0.0167     3.9988 </r>
       <r>     5.1308     0.0056     3.9998 </r>
       <r>     5.2241     0.0004     4.0000 </r>
       <r>     5.3175     0.0000     4.0000 </r>
       <r>     5.4108     0.0000     4.0000 </r>
       <r>     5.5041     0.0000     4.0000 </r>
       <r>     5.5974     0.0000     4.0000 </r>
       <r>     5.6908     0.0000     4.0000 </r>
       <r>     5.7841     0.0000     4.0000 </r>
       <r>     5.8774     0.0000     4.0000 </r>
       <r>     5.9708     0.0000     4.0000 </r>
       <r>     6.0641     0.0000     4.0000 </r>
       <r>     6.1574     0.0000     4.0000 </r>
       <r>     6.2508     0.0000     4.0000 </r>
       <r>     6.3441     0.0000     4.0000 </r>
       <r>     6.4374     0.0000     4.0000 </r>
       <r>     6.5307     0.0223     4.0007 </r>
       <r>     6.6241     0.0506     4.0041 </r>
       <r>     6.7174     0.0698     4.0098 </r>
       <r>     6.8107     0.0798     4.0169 </r>
       <r>     6.9041     0.0807     4.0244 </r>
       <r>     6.9974     0.0852     4.0319 </r>
       <r>     7.0907     0.1041     4.0407 </r>
       <r>     7.1840     0.1255     4.0514 </r>
       <r>     7.2774     0.1499     4.0643 </r>
       <r>     7.3707     0.1790     4.0796 </r>
       <r>     7.4640     0.2122     4.0978 </r>
       <r>     7.5574     0.2695     4.1196 </r>
       <r>     7.6507     0.4549     4.1526 </r>
       <r>     7.7440     0.7351     4.2076 </r>
       <r>     7.8374     0.9404     4.2870 </r>
       <r>     7.9307     0.9865     4.3782 </r>
       <r>     8.0240     0.8734     4.4662 </r>
       <r>     8.1173     0.8474     4.5453 </r>
       <r>     8.2107     0.8102     4.6236 </r>
       <r>     8.3040     0.7134     4.6946 </r>
       <r>     8.3973     0.6285     4.7571 </r>
       <r>     8.4907     0.5553     4.8123 </r>
       <r>     8.5840     0.4938     4.8611 </r>
       <r>     8.6773     0.4421     4.9048 </r>
       <r>     8.7706     0.3967     4.9439 </r>
       <r>     8.8640     0.3576     4.9790 </r>
       <r>     8.9573     0.3248     5.0108 </r>
       <r>     9.0506     0.3002     5.0399 </r>
       <r>     9.1440     0.2845     5.0671 </r>
       <r>     9.2373     0.2868     5.0936 </r>
       <r>     9.3306     0.3097     5.1213 </r>
       <r>     9.4240     0.3506     5.1519 </r>
       <r>     9.5173     0.5238     5.1940 </r>
       <r>     9.6106     0.6359     5.2442 </r>
       <r>     9.7039     0.8294     5.3126 </r>
       <r>     9.7973     1.0185     5.3989 </r>
       <r>     9.8906     1.1046     5.4962 </r>
       <r>     9.9839     1.2200     5.6002 </r>
       <r>    10.0773     1.5183     5.7270 </r>
       <r>    10.1706     1.1476     5.8794 </r>
       <r>    10.2639     1.0416     5.9804 </r>
       <r>    10.3572     0.9376     6.0730 </r>
       <r>    10.4506     0.8449     6.1559 </r>
       <r>    10.5439     0.7849     6.2317 </r>
       <r>    10.6372     0.9216     6.3155 </r>
       <r>    10.7306     0.9036     6.3948 </r>
       <r>    10.8239     0.9835     6.4836 </r>
       <r>    10.9172     0.9699     6.5755 </r>
       <r>    11.0106     0.5375     6.6557 </r>
       <r>    11.1039     0.2090     6.6839 </r>
       <r>    11.1972     0.2198     6.7038 </r>
       <r>    11.2905     0.2443     6.7253 </r>
       <r>    11.3839     0.2826     6.7498 </r>
       <r>    11.4772     0.3346     6.7785 </r>
       <r>    11.5705     0.4003     6.8127 </r>
       <r>    11.6639     0.4490     6.8532 </r>
       <r>    11.7572     0.4379     6.8946 </r>
       <r>    11.8505     0.4263     6.9349 </r>
       <r>    11.9438     0.4128     6.9741 </r>
       <r>    12.0372     0.3851     7.0115 </r>
       <r>    12.1305     0.3403     7.0455 </r>
       <r>    12.2238     0.3093     7.0751 </r>
       <r>    12.3172     0.3099     7.1040 </r>
       <r>    12.4105     0.3125     7.1330 </r>
       <r>    12.5038     0.3185     7.1625 </r>
       <r>    12.5972     0.3280     7.1926 </r>
       <r>    12.6905     0.3410     7.2238 </r>
       <r>    12.7838     0.3574     7.2563 </r>
       <r>    12.8771     0.3773     7.2906 </r>
       <r>    12.9705     0.4008     7.3269 </r>
       <r>    13.0638     0.4276     7.3655 </r>
       <r>    13.1571     0.4580     7.4068 </r>
       <r>    13.2505     0.4918     7.4511 </r>
       <r>    13.3438     0.5427     7.4997 </r>
       <r>    13.4371     0.5196     7.5492 </r>
       <r>    13.5304     0.5019     7.5969 </r>
       <r>    13.6238     0.4896     7.6431 </r>
       <r>    13.7171     0.4828     7.6884 </r>
       <r>    13.8104     0.4815     7.7334 </r>
       <r>    13.9038     0.8333     7.7869 </r>
       <r>    13.9971     0.6833     7.8674 </r>
       <r>    14.0904     0.5087     7.9217 </r>
       <r>    14.1838     0.6373     7.9837 </r>
       <r>    14.2771     0.4981     8.0326 </r>
       <r>    14.3704     0.4521     8.0769 </r>
       <r>    14.4637     0.4136     8.1173 </r>
       <r>    14.5571     0.4105     8.1555 </r>
       <r>    14.6504     0.4010     8.1935 </r>
       <r>    14.7437     0.8550     8.2362 </r>
       <r>    14.8371     1.5509     8.3572 </r>
       <r>    14.9304     1.2131     8.4754 </r>
       <r>    15.0237     0.5816     8.5560 </r>
       <r>    15.1170     0.4509     8.6024 </r>
       <r>    15.2104     0.4270     8.6435 </r>
       <r>    15.3037     0.3878     8.6816 </r>
       <r>    15.3970     0.3330     8.7154 </r>
       <r>    15.4904     0.3039     8.7449 </r>
       <r>    15.5837     0.2798     8.7721 </r>
       <r>    15.6770     0.2571     8.7972 </r>
       <r>    15.7704     0.2357     8.8202 </r>
       <r>    15.8637     0.2157     8.8412 </r>
       <r>    15.9570     0.1971     8.8605 </r>
       <r>    16.0503     0.1799     8.8780 </r>
       <r>    16.1437     0.1640     8.8941 </r>
       <r>    16.2370     0.1495     8.9087 </r>
       <r>    16.3303     0.1364     8.9220 </r>
       <r>    16.4237     0.1246     8.9342 </r>
       <r>    16.5170     0.1142     8.9453 </r>
       <r>    16.6103     0.1052     8.9556 </r>
       <r>    16.7036     0.0976     8.9650 </r>
       <r>    16.7970     0.0913     8.9738 </r>
       <r>    16.8903     0.0747     8.9817 </r>
       <r>    16.9836     0.0570     8.9878 </r>
       <r>    17.0770     0.0417     8.9924 </r>
       <r>    17.1703     0.0288     8.9957 </r>
       <r>    17.2636     0.0182     8.9978 </r>
       <r>    17.3570     0.0100     8.9991 </r>
       <r>    17.4503     0.0042     8.9998 </r>
       <r>    17.5436     0.0007     9.0000 </r>
       <r>    17.6369     0.0000     9.0000 </r>
       <r>    17.7303     0.0000     9.0000 </r>
       <r>    17.8236     0.0000     9.0000 </r>
       <r>    17.9169     0.0000     9.0000 </r>
       <r>    18.0103     0.0000     9.0000 </r>
       <r>    18.1036     0.0000     9.0000 </r>
       <r>    18.1969     0.0000     9.0000 </r>
       <r>    18.2902     0.0000     9.0000 </r>
       <r>    18.3836     0.0000     9.0000 </r>
       <r>    18.4769     0.0000     9.0000 </r>
       <r>    18.5702     0.0000     9.0000 </r>
       <r>    18.6636     0.0000     9.0000 </r>
       <r>    18.7569     0.0000     9.0000 </r>
       <r>    18.8502     0.0000     9.0000 </r>
      </set>
      <set comment="spin 2">
       <r>    -9.1486     0.0000     0.0000 </r>
       <r>    -9.0553     0.0000     0.0000 </r>
       <r>    -8.9619     0.0000     0.0000 </r>
       <r>    -8.8686     0.0000     0.0000 </r>
       <r>    -8.7753     0.0000     0.0000 </r>
       <r>    -8.6819     0.0000     0.0000 </r>
       <r>    -8.5886     0.0000     0.0000 </r>
       <r>    -8.4953     0.0000     0.0000 </r>
       <r>    -8.4020     0.0000     0.0000 </r>
       <r>    -8.3086     0.0000     0.0000 </r>
       <r>    -8.2153     0.0000     0.0000 </r>
       <r>    -8.1220     0.0000     0.0000 </r>
       <r>    -8.0286     0.0000     0.0000 </r>
       <r>    -7.9353     0.0000     0.0000 </r>
       <r>    -7.8420     0.0005     0.0000 </r>
       <r>    -7.7487     0.0065     0.0003 </r>
       <r>    -7.6553     0.0194     0.0014 </r>
       <r>    -7.5620     0.0393     0.0041 </r>
       <r>    -7.4687     0.0661     0.0090 </r>
       <r>    -7.3753     0.0998     0.0167 </r>
       <r>    -7.2820     0.1209     0.0275 </r>
       <r>    -7.1887     0.1125     0.0383 </r>
       <r>    -7.0953     0.1177     0.0490 </r>
       <r>    -7.0020     0.1272     0.0604 </r>
       <r>    -6.9087     0.1371     0.0727 </r>
       <r>    -6.8154     0.1474     0.0860 </r>
       <r>    -6.7220     0.1580     0.1002 </r>
       <r>    -6.6287     0.1690     0.1155 </r>
       <r>    -6.5354     0.1804     0.1318 </r>
       <r>    -6.4420     0.1921     0.1492 </r>
       <r>    -6.3487     0.2041     0.1676 </r>
       <r>    -6.2554     0.2159     0.1872 </r>
       <r>    -6.1621     0.2274     0.2079 </r>
       <r>    -6.0687     0.2386     0.2297 </r>
       <r>    -5.9754     0.2497     0.2525 </r>
       <r>    -5.8821     0.2604     0.2763 </r>
       <r>    -5.7887     0.2905     0.3016 </r>
       <r>    -5.6954     0.3314     0.3307 </r>
       <r>    -5.6021     0.3642     0.3632 </r>
       <r>    -5.5087     0.3889     0.3984 </r>
       <r>    -5.4154     0.4055     0.4356 </r>
       <r>    -5.3221     0.4140     0.4739 </r>
       <r>    -5.2288     0.4144     0.5126 </r>
       <r>    -5.1354     0.4067     0.5510 </r>
       <r>    -5.0421     0.3908     0.5883 </r>
       <r>    -4.9488     0.3669     0.6237 </r>
       <r>    -4.8554     0.3749     0.6576 </r>
       <r>    -4.7621     0.3968     0.6937 </r>
       <r>    -4.6688     0.4023     0.7312 </r>
       <r>    -4.5755     0.3914     0.7683 </r>
       <r>    -4.4821     0.3641     0.8037 </r>
       <r>    -4.3888     0.5117     0.8486 </r>
       <r>    -4.2955     0.3620     0.8854 </r>
       <r>    -4.2021     0.3016     0.9163 </r>
       <r>    -4.1088     0.2451     0.9418 </r>
       <r>    -4.0155     0.1922     0.9622 </r>
       <r>    -3.9221     0.1431     0.9778 </r>
       <r>    -3.8288     0.0977     0.9890 </r>
       <r>    -3.7355     0.0561     0.9961 </r>
       <r>    -3.6422     0.0182     0.9996 </r>
       <r>    -3.5488     0.0000     1.0000 </r>
       <r>    -3.4555     0.0000     1.0000 </r>
       <r>    -3.3622     0.0000     1.0000 </r>
       <r>    -3.2688     0.0000     1.0000 </r>
       <r>    -3.1755     0.0000     1.0000 </r>
       <r>    -3.0822     0.0000     1.0000 </r>
       <r>    -2.9889     0.0000     1.0000 </r>
       <r>    -2.8955     0.0063     1.0001 </r>
       <r>    -2.8022     0.0386     1.0021 </r>
       <r>    -2.7089     0.0776     1.0075 </r>
       <r>    -2.6155     0.1232     1.0168 </r>
       <r>    -2.5222     0.1754     1.0307 </r>
       <r>    -2.4289     0.2342     1.0497 </r>
       <r>    -2.3356     0.2997     1.0746 </r>
       <r>    -2.2422     0.3717     1.1059 </r>
       <r>    -2.1489     0.4504     1.1442 </r>
       <r>    -2.0556     0.7261     1.1915 </r>
       <r>    -1.9622     0.7174     1.2779 </r>
       <r>    -1.8689     0.5688     1.3316 </r>
       <r>    -1.7756     0.4840     1.3770 </r>
       <r>    -1.6822     0.4459     1.4207 </r>
       <r>    -1.5889     0.3687     1.4590 </r>
       <r>    -1.4956     0.3378     1.4917 </r>
       <r>    -1.4023     0.3176     1.5223 </r>
       <r>    -1.3089     0.2982     1.5510 </r>
       <r>    -1.2156     0.2795     1.5779 </r>
       <r>    -1.1223     0.2616     1.6032 </r>
       <r>    -1.0289     0.2445     1.6268 </r>
       <r>    -0.9356     0.2281     1.6488 </r>
       <r>    -0.8423     0.2125     1.6694 </r>
       <r>    -0.7490     0.1977     1.6885 </r>
       <r>    -0.6556     0.1837     1.7063 </r>
       <r>    -0.5623     0.1704     1.7228 </r>
       <r>    -0.4690     0.1576     1.7381 </r>
       <r>    -0.3756     0.1458     1.7523 </r>
       <r>    -0.2823     0.1351     1.7654 </r>
       <r>    -0.1890     0.1255     1.7775 </r>
       <r>    -0.0956     0.1171     1.7888 </r>
       <r>    -0.0023     0.1097     1.7994 </r>
       <r>     0.0910     0.1035     1.8094 </r>
       <r>     0.1843     0.0984     1.8188 </r>
       <r>     0.2777     0.0944     1.8278 </r>
       <r>     0.3710     0.0915     1.8364 </r>
       <r>     0.4643     0.0892     1.8448 </r>
       <r>     0.5577     0.0870     1.8531 </r>
       <r>     0.6510     0.0849     1.8611 </r>
       <r>     0.7443     0.0829     1.8689 </r>
       <r>     0.8376     0.0809     1.8766 </r>
       <r>     0.9310     0.1049     1.8841 </r>
       <r>     1.0243     0.5593     1.9627 </r>
       <r>     1.1176     0.5126     2.0088 </r>
       <r>     1.2110     0.5420     2.0581 </r>
       <r>     1.3043     0.5617     2.1097 </r>
       <r>     1.3976     0.5717     2.1626 </r>
       <r>     1.4910     0.5720     2.2161 </r>
       <r>     1.5843     0.5626     2.2691 </r>
       <r>     1.6776     0.5357     2.3205 </r>
       <r>     1.7709     0.5065     2.3691 </r>
       <r>     1.8643     0.4785     2.4151 </r>
       <r>     1.9576     0.4517     2.4585 </r>
       <r>     2.0509     0.4233     2.4994 </r>
       <r>     2.1443     0.7382     2.5586 </r>
       <r>     2.2376     0.7140     2.6218 </r>
       <r>     2.3309     0.8474     2.6941 </r>
       <r>     2.4242     1.1211     2.7878 </r>
       <r>     2.5176     0.7611     2.8734 </r>
       <r>     2.6109     0.7465     2.9437 </r>
       <r>     2.7042     0.7304     3.0127 </r>
       <r>     2.7976     0.7129     3.0800 </r>
       <r>     2.8909     0.6938     3.1457 </r>
       <r>     2.9842     0.6733     3.2095 </r>
       <r>     3.0776     0.6512     3.2713 </r>
       <r>     3.1709     0.6267     3.3309 </r>
       <r>     3.2642     0.6151     3.3887 </r>
       <r>     3.3575     0.6231     3.4464 </r>
       <r>     3.4509     0.6373     3.5055 </r>
       <r>     3.5442     0.6168     3.5641 </r>
       <r>     3.6375     0.5883     3.6204 </r>
       <r>     3.7309     0.5516     3.6736 </r>
       <r>     3.8242     0.5058     3.7230 </r>
       <r>     3.9175     0.4509     3.7678 </r>
       <r>     4.0108     0.3866     3.8069 </r>
       <r>     4.1042     0.3430     3.8405 </r>
       <r>     4.1975     0.3151     3.8712 </r>
       <r>     4.2908     0.2832     3.8991 </r>
       <r>     4.3842     0.2473     3.9239 </r>
       <r>     4.4775     0.2080     3.9452 </r>
       <r>     4.5708     0.1657     3.9627 </r>
       <r>     4.6642     0.1209     3.9760 </r>
       <r>     4.7575     0.0859     3.9856 </r>
       <r>     4.8508     0.0569     3.9923 </r>
       <r>     4.9441     0.0339     3.9964 </r>
       <r>     5.0375     0.0168     3.9988 </r>
       <r>     5.1308     0.0056     3.9998 </r>
       <r>     5.2241     0.0004     4.0000 </r>
       <r>     5.3175     0.0000     4.0000 </r>
       <r>     5.4108     0.0000     4.0000 </r>
       <r>     5.5041     0.0000     4.0000 </r>
       <r>     5.5974     0.0000     4.0000 </r>
       <r>     5.6908     0.0000     4.0000 </r>
       <r>     5.7841     0.0000     4.0000 </r>
       <r>     5.8774     0.0000     4.0000 </r>
       <r>     5.9708     0.0000     4.0000 </r>
       <r>     6.0641     0.0000     4.0000 </r>
       <r>     6.1574     0.0000     4.0000 </r>
       <r>     6.2508     0.0000     4.0000 </r>
       <r>     6.3441     0.0000     4.0000 </r>
       <r>     6.4374     0.0000     4.0000 </r>
       <r>     6.5307     0.0225     4.0007 </r>
       <r>     6.6241     0.0508     4.0042 </r>
       <r>     6.7174     0.0699     4.0099 </r>
       <r>     6.8107     0.0799     4.0169 </r>
       <r>     6.9041     0.0806     4.0245 </r>
       <r>     6.9974     0.0853     4.0320 </r>
       <r>     7.0907     0.1042     4.0408 </r>
       <r>     7.1840     0.1256     4.0515 </r>
       <r>     7.2774     0.1500     4.0643 </r>
       <r>     7.3707     0.1792     4.0797 </r>
       <r>     7.4640     0.2124     4.0979 </r>
       <r>     7.5574     0.2699     4.1197 </r>
       <r>     7.6507     0.4558     4.1528 </r>
       <r>     7.7440     0.7363     4.2079 </r>
       <r>     7.8374     0.9410     4.2874 </r>
       <r>     7.9307     0.9863     4.3786 </r>
       <r>     8.0240     0.8724     4.4665 </r>
       <r>     8.1173     0.8472     4.5457 </r>
       <r>     8.2107     0.8097     4.6239 </r>
       <r>     8.3040     0.7131     4.6949 </r>
       <r>     8.3973     0.6281     4.7574 </r>
       <r>     8.4907     0.5550     4.8125 </r>
       <r>     8.5840     0.4935     4.8613 </r>
       <r>     8.6773     0.4419     4.9049 </r>
       <r>     8.7706     0.3965     4.9440 </r>
       <r>     8.8640     0.3574     4.9791 </r>
       <r>     8.9573     0.3247     5.0109 </r>
       <r>     9.0506     0.3001     5.0400 </r>
       <r>     9.1440     0.2845     5.0672 </r>
       <r>     9.2373     0.2869     5.0936 </r>
       <r>     9.3306     0.3098     5.1214 </r>
       <r>     9.4240     0.3508     5.1520 </r>
       <r>     9.5173     0.5245     5.1942 </r>
       <r>     9.6106     0.6365     5.2444 </r>
       <r>     9.7039     0.8299     5.3128 </r>
       <r>     9.7973     1.0190     5.3991 </r>
       <r>     9.8906     1.1050     5.4965 </r>
       <r>     9.9839     1.2206     5.6005 </r>
       <r>    10.0773     1.5193     5.7274 </r>
       <r>    10.1706     1.1323     5.8797 </r>
       <r>    10.2639     1.0411     5.9806 </r>
       <r>    10.3572     0.9371     6.0731 </r>
       <r>    10.4506     0.8446     6.1560 </r>
       <r>    10.5439     0.7848     6.2318 </r>
       <r>    10.6372     0.9219     6.3156 </r>
       <r>    10.7306     0.9040     6.3950 </r>
       <r>    10.8239     0.9836     6.4838 </r>
       <r>    10.9172     0.9697     6.5756 </r>
       <r>    11.0106     0.5361     6.6557 </r>
       <r>    11.1039     0.2090     6.6839 </r>
       <r>    11.1972     0.2198     6.7038 </r>
       <r>    11.2905     0.2444     6.7254 </r>
       <r>    11.3839     0.2826     6.7499 </r>
       <r>    11.4772     0.3347     6.7786 </r>
       <r>    11.5705     0.4004     6.8127 </r>
       <r>    11.6639     0.4490     6.8533 </r>
       <r>    11.7572     0.4379     6.8946 </r>
       <r>    11.8505     0.4264     6.9350 </r>
       <r>    11.9438     0.4129     6.9742 </r>
       <r>    12.0372     0.3852     7.0116 </r>
       <r>    12.1305     0.3404     7.0456 </r>
       <r>    12.2238     0.3095     7.0752 </r>
       <r>    12.3172     0.3101     7.1041 </r>
       <r>    12.4105     0.3127     7.1332 </r>
       <r>    12.5038     0.3188     7.1626 </r>
       <r>    12.5972     0.3284     7.1928 </r>
       <r>    12.6905     0.3415     7.2240 </r>
       <r>    12.7838     0.3581     7.2566 </r>
       <r>    12.8771     0.3782     7.2910 </r>
       <r>    12.9705     0.4018     7.3273 </r>
       <r>    13.0638     0.4290     7.3661 </r>
       <r>    13.1571     0.4596     7.4075 </r>
       <r>    13.2505     0.4938     7.4520 </r>
       <r>    13.3438     0.5378     7.5005 </r>
       <r>    13.4371     0.5185     7.5498 </r>
       <r>    13.5304     0.5037     7.5974 </r>
       <r>    13.6238     0.4935     7.6439 </r>
       <r>    13.7171     0.4880     7.6897 </r>
       <r>    13.8104     0.4870     7.7351 </r>
       <r>    13.9038     0.8478     7.7901 </r>
       <r>    13.9971     0.6632     7.8701 </r>
       <r>    14.0904     0.5098     7.9243 </r>
       <r>    14.1838     0.6391     7.9865 </r>
       <r>    14.2771     0.5004     8.0356 </r>
       <r>    14.3704     0.4548     8.0801 </r>
       <r>    14.4637     0.4168     8.1207 </r>
       <r>    14.5571     0.4139     8.1593 </r>
       <r>    14.6504     0.4047     8.1976 </r>
       <r>    14.7437     0.9913     8.2517 </r>
       <r>    14.8371     1.5183     8.3699 </r>
       <r>    14.9304     1.2008     8.4862 </r>
       <r>    15.0237     0.5857     8.5669 </r>
       <r>    15.1170     0.4543     8.6137 </r>
       <r>    15.2104     0.4249     8.6549 </r>
       <r>    15.3037     0.3797     8.6926 </r>
       <r>    15.3970     0.3278     8.7254 </r>
       <r>    15.4904     0.3018     8.7547 </r>
       <r>    15.5837     0.2773     8.7818 </r>
       <r>    15.6770     0.2543     8.8066 </r>
       <r>    15.7704     0.2327     8.8293 </r>
       <r>    15.8637     0.2126     8.8500 </r>
       <r>    15.9570     0.1938     8.8690 </r>
       <r>    16.0503     0.1766     8.8863 </r>
       <r>    16.1437     0.1608     8.9020 </r>
       <r>    16.2370     0.1464     8.9163 </r>
       <r>    16.3303     0.1335     8.9294 </r>
       <r>    16.4237     0.1220     8.9413 </r>
       <r>    16.5170     0.1119     8.9522 </r>
       <r>    16.6103     0.1033     8.9622 </r>
       <r>    16.7036     0.0962     8.9715 </r>
       <r>    16.7970     0.0825     8.9800 </r>
       <r>    16.8903     0.0628     8.9868 </r>
       <r>    16.9836     0.0457     8.9918 </r>
       <r>    17.0770     0.0313     8.9954 </r>
       <r>    17.1703     0.0196     8.9977 </r>
       <r>    17.2636     0.0105     8.9991 </r>
       <r>    17.3570     0.0042     8.9998 </r>
       <r>    17.4503     0.0005     9.0000 </r>
       <r>    17.5436     0.0000     9.0000 </r>
       <r>    17.6369     0.0000     9.0000 </r>
       <r>    17.7303     0.0000     9.0000 </r>
       <r>    17.8236     0.0000     9.0000 </r>
       <r>    17.9169     0.0000     9.0000 </r>
       <r>    18.0103     0.0000     9.0000 </r>
       <r>    18.1036     0.0000     9.0000 </r>
       <r>    18.1969     0.0000     9.0000 </r>
       <r>    18.2902     0.0000     9.0000 </r>
       <r>    18.3836     0.0000     9.0000 </r>
       <r>    18.4769     0.0000     9.0000 </r>
       <r>    18.5702     0.0000     9.0000 </r>
       <r>    18.6636     0.0000     9.0000 </r>
       <r>    18.7569     0.0000     9.0000 </r>
       <r>    18.8502     0.0000     9.0000 </r>
      </set>
     </set>
    </array>
   </total>
   <partial>
    <array>
     <dimension dim="1">gridpoints</dimension>
     <dimension dim="2">spin</dimension>
     <dimension dim="3">ion</dimension>
     <field>energy</field>
     <field>    s</field>
     <field>   py</field>
     <field>   pz</field>
     <field>   px</field>
     <field>  dxy</field>
     <field>  dyz</field>
     <field>  dz2</field>
     <field>  dxz</field>
     <field>x2-y2</field>
     <set>
      <set comment="ion 1">
       <set comment="spin 1">
        <r>    -9.1486     0.0000     0.0000     0.0000     0.0000     0.0000     0.0000     0.0000     0.0000     0.0000 </r>
        <r>    -9.0553     0.0000     0.0000     0.0000     0.0000     0.0000     0.0000     0.0000     0.0000     0.0000 </r>
        <r>    -8.9619     0.0000     0.0000     0.0000     0.0000     0.0000     0.0000     0.0000     0.0000     0.0000 </r>
        <r>    -8.8686     0.0000     0.0000     0.0000     0.0000     0.0000     0.0000     0.0000     0.0000     0.0000 </r>
        <r>    -8.7753     0.0000     0.0000     0.0000     0.0000     0.0000     0.0000     0.0000     0.0000     0.0000 </r>
        <r>    -8.6819     0.0000     0.0000     0.0000     0.0000     0.0000     0.0000     0.0000     0.0000     0.0000 </r>
        <r>    -8.5886     0.0000     0.0000     0.0000     0.0000     0.0000     0.0000     0.0000     0.0000     0.0000 </r>
        <r>    -8.4953     0.0000     0.0000     0.0000     0.0000     0.0000     0.0000     0.0000     0.0000     0.0000 </r>
        <r>    -8.4020     0.0000     0.0000     0.0000     0.0000     0.0000     0.0000     0.0000     0.0000     0.0000 </r>
        <r>    -8.3086     0.0000     0.0000     0.0000     0.0000     0.0000     0.0000     0.0000     0.0000     0.0000 </r>
        <r>    -8.2153     0.0000     0.0000     0.0000     0.0000     0.0000     0.0000     0.0000     0.0000     0.0000 </r>
        <r>    -8.1220     0.0000     0.0000     0.0000     0.0000     0.0000     0.0000     0.0000     0.0000     0.0000 </r>
        <r>    -8.0286     0.0000     0.0000     0.0000     0.0000     0.0000     0.0000     0.0000     0.0000     0.0000 </r>
        <r>    -7.9353     0.0000     0.0000     0.0000     0.0000     0.0000     0.0000     0.0000     0.0000     0.0000 </r>
        <r>    -7.8420     0.0001     0.0000     0.0000     0.0000     0.0000     0.0000     0.0000     0.0000     0.0000 </r>
        <r>    -7.7487     0.0014     0.0000     0.0000     0.0000     0.0000     0.0000     0.0000     0.0000     0.0000 </r>
        <r>    -7.6553     0.0042     0.0000     0.0000     0.0000     0.0000     0.0000     0.0000     0.0000     0.0000 </r>
        <r>    -7.5620     0.0085     0.0001     0.0001     0.0001     0.0000     0.0000     0.0000     0.0000     0.0000 </r>
        <r>    -7.4687     0.0143     0.0001     0.0001     0.0001     0.0000     0.0000     0.0000     0.0000     0.0000 </r>
        <r>    -7.3753     0.0216     0.0002     0.0002     0.0002     0.0000     0.0000     0.0000     0.0000     0.0000 </r>
        <r>    -7.2820     0.0261     0.0002     0.0002     0.0002     0.0000     0.0000     0.0000     0.0000     0.0000 </r>
        <r>    -7.1887     0.0242     0.0003     0.0003     0.0003     0.0000     0.0000     0.0000     0.0000     0.0000 </r>
        <r>    -7.0953     0.0252     0.0004     0.0004     0.0004     0.0000     0.0000     0.0000     0.0000     0.0000 </r>
        <r>    -7.0020     0.0273     0.0004     0.0004     0.0004     0.0000     0.0000     0.0000     0.0000     0.0000 </r>
        <r>    -6.9087     0.0294     0.0005     0.0005     0.0005     0.0000     0.0000     0.0000     0.0000     0.0000 </r>
        <r>    -6.8154     0.0315     0.0005     0.0005     0.0005     0.0000     0.0000     0.0000     0.0000     0.0000 </r>
        <r>    -6.7220     0.0338     0.0006     0.0006     0.0006     0.0000     0.0000     0.0000     0.0000     0.0000 </r>
        <r>    -6.6287     0.0362     0.0007     0.0007     0.0007     0.0000     0.0000     0.0000     0.0000     0.0000 </r>
        <r>    -6.5354     0.0386     0.0008     0.0008     0.0008     0.0000     0.0000     0.0000     0.0000     0.0000 </r>
        <r>    -6.4420     0.0411     0.0008     0.0008     0.0008     0.0000     0.0000     0.0000     0.0000     0.0000 </r>
        <r>    -6.3487     0.0436     0.0009     0.0009     0.0009     0.0000     0.0000     0.0000     0.0000     0.0000 </r>
        <r>    -6.2554     0.0462     0.0010     0.0010     0.0010     0.0000     0.0000     0.0000     0.0000     0.0000 </r>
        <r>    -6.1621     0.0487     0.0011     0.0011     0.0011     0.0000     0.0000     0.0000     0.0000     0.0000 </r>
        <r>    -6.0687     0.0511     0.0012     0.0012     0.0012     0.0000     0.0000     0.0000     0.0000     0.0000 </r>
        <r>    -5.9754     0.0535     0.0014     0.0014     0.0014     0.0000     0.0000     0.0000     0.0000     0.0000 </r>
        <r>    -5.8821     0.0558     0.0016     0.0016     0.0016     0.0000     0.0000     0.0000     0.0000     0.0000 </r>
        <r>    -5.7887     0.0624     0.0018     0.0018     0.0018     0.0000     0.0000     0.0000     0.0000     0.0000 </r>
        <r>    -5.6954     0.0714     0.0021     0.0021     0.0021     0.0000     0.0000     0.0000     0.0000     0.0000 </r>
        <r>    -5.6021     0.0786     0.0024     0.0024     0.0024     0.0000     0.0000     0.0000     0.0000     0.0000 </r>
        <r>    -5.5087     0.0840     0.0026     0.0026     0.0026     0.0000     0.0000     0.0000     0.0000     0.0000 </r>
        <r>    -5.4154     0.0876     0.0027     0.0027     0.0027     0.0000     0.0000     0.0000     0.0000     0.0000 </r>
        <r>    -5.3221     0.0894     0.0028     0.0028     0.0028     0.0000     0.0000     0.0000     0.0000     0.0000 </r>
        <r>    -5.2288     0.0895     0.0029     0.0029     0.0029     0.0000     0.0000     0.0000     0.0000     0.0000 </r>
        <r>    -5.1354     0.0877     0.0029     0.0029     0.0029     0.0000     0.0000     0.0000     0.0000     0.0000 </r>
        <r>    -5.0421     0.0842     0.0029     0.0029     0.0029     0.0000     0.0000     0.0000     0.0000     0.0000 </r>
        <r>    -4.9488     0.0788     0.0028     0.0028     0.0028     0.0000     0.0000     0.0000     0.0000     0.0000 </r>
        <r>    -4.8554     0.0805     0.0031     0.0031     0.0031     0.0000     0.0000     0.0000     0.0000     0.0000 </r>
        <r>    -4.7621     0.0852     0.0034     0.0034     0.0034     0.0000     0.0000     0.0000     0.0000     0.0000 </r>
        <r>    -4.6688     0.0863     0.0036     0.0036     0.0036     0.0000     0.0000     0.0000     0.0000     0.0000 </r>
        <r>    -4.5755     0.0838     0.0036     0.0036     0.0036     0.0000     0.0000     0.0000     0.0000     0.0000 </r>
        <r>    -4.4821     0.0778     0.0034     0.0034     0.0034     0.0000     0.0000     0.0000     0.0000     0.0000 </r>
        <r>    -4.3888     0.1087     0.0051     0.0051     0.0051     0.0000     0.0000     0.0000     0.0000     0.0000 </r>
        <r>    -4.2955     0.0769     0.0036     0.0036     0.0036     0.0000     0.0000     0.0000     0.0000     0.0000 </r>
        <r>    -4.2021     0.0640     0.0030     0.0030     0.0030     0.0000     0.0000     0.0000     0.0000     0.0000 </r>
        <r>    -4.1088     0.0519     0.0025     0.0025     0.0025     0.0000     0.0000     0.0000     0.0000     0.0000 </r>
        <r>    -4.0155     0.0407     0.0020     0.0020     0.0020     0.0000     0.0000     0.0000     0.0000     0.0000 </r>
        <r>    -3.9221     0.0302     0.0015     0.0015     0.0015     0.0000     0.0000     0.0000     0.0000     0.0000 </r>
        <r>    -3.8288     0.0206     0.0010     0.0010     0.0010     0.0000     0.0000     0.0000     0.0000     0.0000 </r>
        <r>    -3.7355     0.0118     0.0006     0.0006     0.0006     0.0000     0.0000     0.0000     0.0000     0.0000 </r>
        <r>    -3.6422     0.0038     0.0002     0.0002     0.0002     0.0000     0.0000     0.0000     0.0000     0.0000 </r>
        <r>    -3.5488     0.0000     0.0000     0.0000     0.0000     0.0000     0.0000     0.0000     0.0000     0.0000 </r>
        <r>    -3.4555     0.0000     0.0000     0.0000     0.0000     0.0000     0.0000     0.0000     0.0000     0.0000 </r>
        <r>    -3.3622     0.0000     0.0000     0.0000     0.0000     0.0000     0.0000     0.0000     0.0000     0.0000 </r>
        <r>    -3.2688     0.0000     0.0000     0.0000     0.0000     0.0000     0.0000     0.0000     0.0000     0.0000 </r>
        <r>    -3.1755     0.0000     0.0000     0.0000     0.0000     0.0000     0.0000     0.0000     0.0000     0.0000 </r>
        <r>    -3.0822     0.0000     0.0000     0.0000     0.0000     0.0000     0.0000     0.0000     0.0000     0.0000 </r>
        <r>    -2.9889     0.0000     0.0000     0.0000     0.0000     0.0000     0.0000     0.0000     0.0000     0.0000 </r>
        <r>    -2.8955     0.0012     0.0001     0.0001     0.0001     0.0000     0.0000     0.0000     0.0000     0.0000 </r>
        <r>    -2.8022     0.0072     0.0008     0.0008     0.0008     0.0000     0.0000     0.0000     0.0000     0.0000 </r>
        <r>    -2.7089     0.0142     0.0016     0.0016     0.0016     0.0000     0.0000     0.0000     0.0000     0.0000 </r>
        <r>    -2.6155     0.0223     0.0025     0.0025     0.0025     0.0000     0.0000     0.0000     0.0000     0.0000 </r>
        <r>    -2.5222     0.0315     0.0036     0.0036     0.0036     0.0000     0.0000     0.0000     0.0000     0.0000 </r>
        <r>    -2.4289     0.0417     0.0049     0.0049     0.0049     0.0000     0.0000     0.0000     0.0000     0.0000 </r>
        <r>    -2.3356     0.0530     0.0064     0.0064     0.0064     0.0000     0.0000     0.0000     0.0000     0.0000 </r>
        <r>    -2.2422     0.0654     0.0080     0.0080     0.0080     0.0000     0.0000     0.0000     0.0000     0.0000 </r>
        <r>    -2.1489     0.0788     0.0097     0.0097     0.0097     0.0000     0.0000     0.0000     0.0000     0.0000 </r>
        <r>    -2.0556     0.1229     0.0165     0.0165     0.0165     0.0000     0.0000     0.0000     0.0000     0.0000 </r>
        <r>    -1.9622     0.1138     0.0174     0.0174     0.0174     0.0000     0.0000     0.0000     0.0000     0.0000 </r>
        <r>    -1.8689     0.0875     0.0145     0.0145     0.0145     0.0000     0.0000     0.0000     0.0000     0.0000 </r>
        <r>    -1.7756     0.0707     0.0130     0.0130     0.0130     0.0000     0.0000     0.0000     0.0000     0.0000 </r>
        <r>    -1.6822     0.0654     0.0120     0.0120     0.0120     0.0000     0.0000     0.0000     0.0000     0.0000 </r>
        <r>    -1.5889     0.0552     0.0098     0.0098     0.0098     0.0000     0.0000     0.0000     0.0000     0.0000 </r>
        <r>    -1.4956     0.0505     0.0091     0.0091     0.0091     0.0000     0.0000     0.0000     0.0000     0.0000 </r>
        <r>    -1.4023     0.0474     0.0086     0.0086     0.0086     0.0000     0.0000     0.0000     0.0000     0.0000 </r>
        <r>    -1.3089     0.0444     0.0082     0.0082     0.0082     0.0000     0.0000     0.0000     0.0000     0.0000 </r>
        <r>    -1.2156     0.0415     0.0077     0.0077     0.0077     0.0000     0.0000     0.0000     0.0000     0.0000 </r>
        <r>    -1.1223     0.0386     0.0073     0.0073     0.0073     0.0000     0.0000     0.0000     0.0000     0.0000 </r>
        <r>    -1.0289     0.0359     0.0069     0.0069     0.0069     0.0000     0.0000     0.0000     0.0000     0.0000 </r>
        <r>    -0.9356     0.0333     0.0065     0.0065     0.0065     0.0000     0.0000     0.0000     0.0000     0.0000 </r>
        <r>    -0.8423     0.0309     0.0061     0.0061     0.0061     0.0000     0.0000     0.0000     0.0000     0.0000 </r>
        <r>    -0.7490     0.0285     0.0058     0.0058     0.0058     0.0000     0.0000     0.0000     0.0000     0.0000 </r>
        <r>    -0.6556     0.0262     0.0055     0.0055     0.0055     0.0000     0.0000     0.0000     0.0000     0.0000 </r>
        <r>    -0.5623     0.0241     0.0052     0.0052     0.0052     0.0000     0.0000     0.0000     0.0000     0.0000 </r>
        <r>    -0.4690     0.0220     0.0048     0.0048     0.0048     0.0000     0.0000     0.0000     0.0000     0.0000 </r>
        <r>    -0.3756     0.0202     0.0045     0.0045     0.0045     0.0000     0.0000     0.0000     0.0000     0.0000 </r>
        <r>    -0.2823     0.0185     0.0043     0.0043     0.0043     0.0000     0.0000     0.0000     0.0000     0.0000 </r>
        <r>    -0.1890     0.0170     0.0040     0.0040     0.0040     0.0000     0.0000     0.0000     0.0000     0.0000 </r>
        <r>    -0.0956     0.0157     0.0038     0.0038     0.0038     0.0000     0.0000     0.0000     0.0000     0.0000 </r>
        <r>    -0.0023     0.0145     0.0036     0.0036     0.0036     0.0000     0.0000     0.0000     0.0000     0.0000 </r>
        <r>     0.0910     0.0136     0.0035     0.0035     0.0035     0.0000     0.0000     0.0000     0.0000     0.0000 </r>
        <r>     0.1843     0.0128     0.0034     0.0034     0.0034     0.0000     0.0000     0.0000     0.0000     0.0000 </r>
        <r>     0.2777     0.0122     0.0032     0.0032     0.0032     0.0000     0.0000     0.0000     0.0000     0.0000 </r>
        <r>     0.3710     0.0118     0.0032     0.0032     0.0032     0.0000     0.0000     0.0000     0.0000     0.0000 </r>
        <r>     0.4643     0.0115     0.0031     0.0031     0.0031     0.0000     0.0000     0.0000     0.0000     0.0000 </r>
        <r>     0.5577     0.0112     0.0030     0.0030     0.0030     0.0000     0.0000     0.0000     0.0000     0.0000 </r>
        <r>     0.6510     0.0109     0.0030     0.0030     0.0030     0.0000     0.0000     0.0000     0.0000     0.0000 </r>
        <r>     0.7443     0.0106     0.0029     0.0029     0.0029     0.0000     0.0000     0.0000     0.0000     0.0000 </r>
        <r>     0.8376     0.0103     0.0029     0.0029     0.0029     0.0000     0.0000     0.0000     0.0000     0.0000 </r>
        <r>     0.9310     0.0101     0.0041     0.0041     0.0041     0.0000     0.0000     0.0000     0.0000     0.0000 </r>
        <r>     1.0243     0.0145     0.0285     0.0285     0.0285     0.0000     0.0000     0.0000     0.0000     0.0000 </r>
        <r>     1.1176     0.0150     0.0261     0.0261     0.0261     0.0000     0.0000     0.0000     0.0000     0.0000 </r>
        <r>     1.2110     0.0158     0.0278     0.0278     0.0278     0.0000     0.0000     0.0000     0.0000     0.0000 </r>
        <r>     1.3043     0.0164     0.0289     0.0289     0.0289     0.0000     0.0000     0.0000     0.0000     0.0000 </r>
        <r>     1.3976     0.0169     0.0295     0.0295     0.0295     0.0000     0.0000     0.0000     0.0000     0.0000 </r>
        <r>     1.4910     0.0171     0.0296     0.0296     0.0296     0.0000     0.0000     0.0000     0.0000     0.0000 </r>
        <r>     1.5843     0.0172     0.0292     0.0292     0.0292     0.0000     0.0000     0.0000     0.0000     0.0000 </r>
        <r>     1.6776     0.0165     0.0280     0.0280     0.0280     0.0000     0.0000     0.0000     0.0000     0.0000 </r>
        <r>     1.7709     0.0157     0.0266     0.0266     0.0266     0.0000     0.0000     0.0000     0.0000     0.0000 </r>
        <r>     1.8643     0.0149     0.0253     0.0253     0.0253     0.0000     0.0000     0.0000     0.0000     0.0000 </r>
        <r>     1.9576     0.0142     0.0240     0.0240     0.0240     0.0000     0.0000     0.0000     0.0000     0.0000 </r>
        <r>     2.0509     0.0131     0.0227     0.0227     0.0227     0.0000     0.0000     0.0000     0.0000     0.0000 </r>
        <r>     2.1443     0.0113     0.0425     0.0425     0.0425     0.0000     0.0000     0.0000     0.0000     0.0000 </r>
        <r>     2.2376     0.0094     0.0423     0.0423     0.0423     0.0000     0.0000     0.0000     0.0000     0.0000 </r>
        <r>     2.3309     0.0083     0.0516     0.0516     0.0516     0.0000     0.0000     0.0000     0.0000     0.0000 </r>
        <r>     2.4242     0.0077     0.0701     0.0701     0.0701     0.0000     0.0000     0.0000     0.0000     0.0000 </r>
        <r>     2.5176     0.0071     0.0472     0.0472     0.0472     0.0000     0.0000     0.0000     0.0000     0.0000 </r>
        <r>     2.6109     0.0066     0.0465     0.0465     0.0465     0.0000     0.0000     0.0000     0.0000     0.0000 </r>
[...]
        <r>  0.0000  0.0707  0.0190  0.0600  0.0000  0.0000  0.0000  0.0000  0.0000 </r>
       </set>
       <set comment="band 7">
        <r>  0.0000  0.0021  0.0971  0.0505  0.0000  0.0000  0.0000  0.0000  0.0000 </r>
        <r>  0.0000  0.0021  0.0971  0.0505  0.0000  0.0000  0.0000  0.0000  0.0000 </r>
       </set>
       <set comment="band 8">
        <r>  0.3651  0.0000  0.0000  0.0000  0.0000  0.0000  0.0000  0.0000  0.0000 </r>
        <r>  0.3651  0.0000  0.0000  0.0000  0.0000  0.0000  0.0000  0.0000  0.0000 </r>
       </set>
       <set comment="band 9">
        <r>  0.0089  0.0000  0.0000  0.0000  0.0000  0.0000  0.0000  0.0000  0.0000 </r>
        <r>  0.0089  0.0000  0.0000  0.0000  0.0000  0.0000  0.0000  0.0000  0.0000 </r>
       </set>
      </set>
      <set comment="kpoint 2">
       <set comment="band 1">
        <r>  0.2157  0.0006  0.0000  0.0048  0.0000  0.0000  0.0000  0.0000  0.0000 </r>
        <r>  0.2157  0.0006  0.0000  0.0048  0.0000  0.0000  0.0000  0.0000  0.0000 </r>
       </set>
       <set comment="band 2">
        <r>  0.0849  0.0149  0.0000  0.1192  0.0000  0.0000  0.0000  0.0000  0.0000 </r>
        <r>  0.0849  0.0149  0.0000  0.1192  0.0000  0.0000  0.0000  0.0000  0.0000 </r>
       </set>
       <set comment="band 3">
        <r>  0.0000  0.0118  0.1993  0.0015  0.0000  0.0000  0.0000  0.0000  0.0000 </r>
        <r>  0.0000  0.0118  0.1993  0.0015  0.0000  0.0000  0.0000  0.0000  0.0000 </r>
       </set>
       <set comment="band 4">
        <r>  0.0000  0.1772  0.0133  0.0221  0.0000  0.0000  0.0000  0.0000  0.0000 </r>
        <r>  0.0000  0.1772  0.0133  0.0221  0.0000  0.0000  0.0000  0.0000  0.0000 </r>
       </set>
       <set comment="band 5">
        <r>  0.1408  0.0068  0.0000  0.0543  0.0000  0.0000  0.0000  0.0000  0.0000 </r>
        <r>  0.1408  0.0068  0.0000  0.0543  0.0000  0.0000  0.0000  0.0000  0.0000 </r>
       </set>
       <set comment="band 6">
        <r>  0.0000  0.0624  0.0773  0.0078  0.0000  0.0000  0.0000  0.0000  0.0000 </r>
        <r>  0.0000  0.0624  0.0773  0.0078  0.0000  0.0000  0.0000  0.0000  0.0000 </r>
       </set>
       <set comment="band 7">
        <r>  0.0000  0.0688  0.0702  0.0086  0.0000  0.0000  0.0000  0.0000  0.0000 </r>
        <r>  0.0000  0.0688  0.0702  0.0086  0.0000  0.0000  0.0000  0.0000  0.0000 </r>
       </set>
       <set comment="band 8">
        <r>  0.1546  0.0140  0.0000  0.1123  0.0000  0.0000  0.0000  0.0000  0.0000 </r>
        <r>  0.1546  0.0140  0.0000  0.1123  0.0000  0.0000  0.0000  0.0000  0.0000 </r>
       </set>
       <set comment="band 9">
        <r>  0.0000  0.0032  0.0036  0.0004  0.0000  0.0000  0.0000  0.0000  0.0000 </r>
        <r>  0.0000  0.0032  0.0036  0.0004  0.0000  0.0000  0.0000  0.0000  0.0000 </r>
       </set>
      </set>
      <set comment="kpoint 3">
       <set comment="band 1">
        <r>  0.2191  0.0016  0.0000  0.0132  0.0000  0.0000  0.0000  0.0000  0.0000 </r>
        <r>  0.2191  0.0016  0.0000  0.0132  0.0000  0.0000  0.0000  0.0000  0.0000 </r>
       </set>
       <set comment="band 2">
        <r>  0.1081  0.0107  0.0000  0.0855  0.0000  0.0000  0.0000  0.0000  0.0000 </r>
        <r>  0.1081  0.0107  0.0000  0.0855  0.0000  0.0000  0.0000  0.0000  0.0000 </r>
       </set>
       <set comment="band 3">
        <r>  0.0000  0.0106  0.2041  0.0013  0.0000  0.0000  0.0000  0.0000  0.0000 </r>
        <r>  0.0000  0.0106  0.2041  0.0013  0.0000  0.0000  0.0000  0.0000  0.0000 </r>
       </set>
       <set comment="band 4">
        <r>  0.0000  0.1814  0.0119  0.0227  0.0000  0.0000  0.0000  0.0000  0.0000 </r>
        <r>  0.0000  0.1814  0.0119  0.0227  0.0000  0.0000  0.0000  0.0000  0.0000 </r>
       </set>
       <set comment="band 5">
        <r>  0.1828  0.0026  0.0000  0.0209  0.0000  0.0000  0.0000  0.0000  0.0000 </r>
        <r>  0.1828  0.0026  0.0000  0.0209  0.0000  0.0000  0.0000  0.0000  0.0000 </r>
       </set>
       <set comment="band 6">
        <r>  0.0000  0.0206  0.0761  0.0026  0.0000  0.0000  0.0000  0.0000  0.0000 </r>
        <r>  0.0000  0.0206  0.0761  0.0026  0.0000  0.0000  0.0000  0.0000  0.0000 </r>
       </set>
       <set comment="band 7">
        <r>  0.0000  0.0677  0.0232  0.0085  0.0000  0.0000  0.0000  0.0000  0.0000 </r>
        <r>  0.0000  0.0677  0.0232  0.0085  0.0000  0.0000  0.0000  0.0000  0.0000 </r>
       </set>
       <set comment="band 8">
        <r>  0.0040  0.0071  0.0000  0.0583  0.0000  0.0000  0.0000  0.0000  0.0000 </r>
        <r>  0.0040  0.0075  0.0000  0.0579  0.0000  0.0000  0.0000  0.0000  0.0000 </r>
       </set>
       <set comment="band 9">
        <r>  0.0017  0.0115  0.0293  0.0037  0.0000  0.0000  0.0000  0.0000  0.0000 </r>
        <r>  0.0016  0.0083  0.0293  0.0069  0.0000  0.0000  0.0000  0.0000  0.0000 </r>
       </set>
      </set>
      <set comment="kpoint 4">
       <set comment="band 1">
        <r>  0.2143  0.0025  0.0000  0.0050  0.0000  0.0000  0.0000  0.0000  0.0000 </r>
        <r>  0.2143  0.0025  0.0000  0.0050  0.0000  0.0000  0.0000  0.0000  0.0000 </r>
       </set>
       <set comment="band 2">
        <r>  0.1349  0.0395  0.0000  0.0790  0.0000  0.0000  0.0000  0.0000  0.0000 </r>
        <r>  0.1349  0.0395  0.0000  0.0790  0.0000  0.0000  0.0000  0.0000  0.0000 </r>
       </set>
       <set comment="band 3">
        <r>  0.0000  0.0049  0.1923  0.0024  0.0000  0.0000  0.0000  0.0000  0.0000 </r>
        <r>  0.0000  0.0049  0.1923  0.0024  0.0000  0.0000  0.0000  0.0000  0.0000 </r>
       </set>
       <set comment="band 4">
        <r>  0.0000  0.1282  0.0073  0.0641  0.0000  0.0000  0.0000  0.0000  0.0000 </r>
        <r>  0.0000  0.1282  0.0073  0.0641  0.0000  0.0000  0.0000  0.0000  0.0000 </r>
       </set>
       <set comment="band 5">
        <r>  0.0362  0.0298  0.0000  0.0596  0.0000  0.0000  0.0000  0.0000  0.0000 </r>
        <r>  0.0362  0.0298  0.0000  0.0596  0.0000  0.0000  0.0000  0.0000  0.0000 </r>
       </set>
       <set comment="band 6">
        <r>  0.0771  0.0165  0.0000  0.0329  0.0000  0.0000  0.0000  0.0000  0.0000 </r>
        <r>  0.0771  0.0165  0.0000  0.0329  0.0000  0.0000  0.0000  0.0000  0.0000 </r>
       </set>
       <set comment="band 7">
        <r>  0.0000  0.0954  0.0214  0.0477  0.0000  0.0000  0.0000  0.0000  0.0000 </r>
        <r>  0.0000  0.0954  0.0214  0.0477  0.0000  0.0000  0.0000  0.0000  0.0000 </r>
       </set>
       <set comment="band 8">
        <r>  0.0000  0.0143  0.1430  0.0071  0.0000  0.0000  0.0000  0.0000  0.0000 </r>
        <r>  0.0000  0.0143  0.1430  0.0071  0.0000  0.0000  0.0000  0.0000  0.0000 </r>
       </set>
       <set comment="band 9">
        <r>  0.1531  0.0205  0.0000  0.0410  0.0000  0.0000  0.0000  0.0000  0.0000 </r>
        <r>  0.1535  0.0206  0.0000  0.0412  0.0000  0.0000  0.0000  0.0000  0.0000 </r>
       </set>
      </set>
      <set comment="kpoint 5">
       <set comment="band 1">
        <r>  0.2119  0.0016  0.0000  0.0166  0.0000  0.0000  0.0000  0.0000  0.0000 </r>
        <r>  0.2119  0.0016  0.0000  0.0166  0.0000  0.0000  0.0000  0.0000  0.0000 </r>
       </set>
       <set comment="band 2">
        <r>  0.1421  0.0107  0.0000  0.0805  0.0000  0.0000  0.0000  0.0000  0.0000 </r>
        <r>  0.1421  0.0107  0.0000  0.0805  0.0000  0.0000  0.0000  0.0000  0.0000 </r>
       </set>
       <set comment="band 3">
        <r>  0.0297  0.1340  0.0000  0.0308  0.0000  0.0000  0.0000  0.0000  0.0000 </r>
        <r>  0.0297  0.1340  0.0000  0.0308  0.0000  0.0000  0.0000  0.0000  0.0000 </r>
       </set>
       <set comment="band 4">
        <r>  0.0000  0.0000  0.2009  0.0000  0.0000  0.0000  0.0000  0.0000  0.0000 </r>
        <r>  0.0000  0.0000  0.2009  0.0000  0.0000  0.0000  0.0000  0.0000  0.0000 </r>
       </set>
       <set comment="band 5">
        <r>  0.0474  0.0494  0.0000  0.0176  0.0000  0.0000  0.0000  0.0000  0.0000 </r>
        <r>  0.0474  0.0494  0.0000  0.0176  0.0000  0.0000  0.0000  0.0000  0.0000 </r>
       </set>
       <set comment="band 6">
        <r>  0.0313  0.0307  0.0000  0.0356  0.0000  0.0000  0.0000  0.0000  0.0000 </r>
        <r>  0.0313  0.0307  0.0000  0.0356  0.0000  0.0000  0.0000  0.0000  0.0000 </r>
       </set>
       <set comment="band 7">
        <r>  0.0641  0.1157  0.0000  0.0035  0.0000  0.0000  0.0000  0.0000  0.0000 </r>
        <r>  0.0641  0.1157  0.0000  0.0035  0.0000  0.0000  0.0000  0.0000  0.0000 </r>
       </set>
       <set comment="band 8">
        <r>  0.0000  0.0000  0.1234  0.0000  0.0000  0.0000  0.0000  0.0000  0.0000 </r>
        <r>  0.0000  0.0000  0.1234  0.0000  0.0000  0.0000  0.0000  0.0000  0.0000 </r>
       </set>
       <set comment="band 9">
        <r>  0.0370  0.0063  0.0151  0.0661  0.0000  0.0000  0.0000  0.0000  0.0000 </r>
        <r>  0.0400  0.0039  0.0151  0.0876  0.0000  0.0000  0.0000  0.0000  0.0000 </r>
       </set>
      </set>
      <set comment="kpoint 6">
       <set comment="band 1">
        <r>  0.2222  0.0084  0.0000  0.0124  0.0000  0.0000  0.0000  0.0000  0.0000 </r>
        <r>  0.2222  0.0084  0.0000  0.0124  0.0000  0.0000  0.0000  0.0000  0.0000 </r>
       </set>
       <set comment="band 2">
        <r>  0.1322  0.0075  0.0000  0.0756  0.0000  0.0000  0.0000  0.0000  0.0000 </r>
        <r>  0.1322  0.0075  0.0000  0.0756  0.0000  0.0000  0.0000  0.0000  0.0000 </r>
       </set>
       <set comment="band 3">
        <r>  0.0333  0.1240  0.0000  0.0291  0.0000  0.0000  0.0000  0.0000  0.0000 </r>
        <r>  0.0333  0.1240  0.0000  0.0291  0.0000  0.0000  0.0000  0.0000  0.0000 </r>
       </set>
       <set comment="band 4">
        <r>  0.0000  0.0000  0.2073  0.0000  0.0000  0.0000  0.0000  0.0000  0.0000 </r>
        <r>  0.0000  0.0000  0.2073  0.0000  0.0000  0.0000  0.0000  0.0000  0.0000 </r>
       </set>
       <set comment="band 5">
        <r>  0.0640  0.0268  0.0000  0.0270  0.0000  0.0000  0.0000  0.0000  0.0000 </r>
        <r>  0.0640  0.0268  0.0000  0.0270  0.0000  0.0000  0.0000  0.0000  0.0000 </r>
       </set>
       <set comment="band 6">
        <r>  0.0581  0.0908  0.0000  0.0045  0.0000  0.0000  0.0000  0.0000  0.0000 </r>
        <r>  0.0581  0.0908  0.0000  0.0045  0.0000  0.0000  0.0000  0.0000  0.0000 </r>
       </set>
       <set comment="band 7">
        <r>  0.0000  0.0000  0.1076  0.0000  0.0000  0.0000  0.0000  0.0000  0.0000 </r>
        <r>  0.0000  0.0000  0.1076  0.0000  0.0000  0.0000  0.0000  0.0000  0.0000 </r>
       </set>
       <set comment="band 8">
        <r>  0.0184  0.0675  0.0001  0.0385  0.0000  0.0000  0.0000  0.0000  0.0000 </r>
        <r>  0.0185  0.0673  0.0001  0.0381  0.0000  0.0000  0.0000  0.0000  0.0000 </r>
       </set>
       <set comment="band 9">
        <r>  0.0245  0.0225  0.0027  0.1156  0.0000  0.0000  0.0000  0.0000  0.0000 </r>
        <r>  0.0245  0.0224  0.0027  0.1153  0.0000  0.0000  0.0000  0.0000  0.0000 </r>
       </set>
      </set>
      <set comment="kpoint 7">
       <set comment="band 1">
        <r>  0.2133  0.0087  0.0000  0.0047  0.0000  0.0000  0.0000  0.0000  0.0000 </r>
        <r>  0.2133  0.0087  0.0000  0.0047  0.0000  0.0000  0.0000  0.0000  0.0000 </r>
       </set>
       <set comment="band 2">
        <r>  0.1368  0.0555  0.0000  0.0457  0.0000  0.0000  0.0000  0.0000  0.0000 </r>
        <r>  0.1368  0.0555  0.0000  0.0458  0.0000  0.0000  0.0000  0.0000  0.0000 </r>
       </set>
       <set comment="band 3">
        <r>  0.0124  0.0769  0.0000  0.0876  0.0000  0.0000  0.0000  0.0000  0.0000 </r>
        <r>  0.0124  0.0769  0.0000  0.0876  0.0000  0.0000  0.0000  0.0000  0.0000 </r>
       </set>
       <set comment="band 4">
        <r>  0.0000  0.0000  0.2166  0.0000  0.0000  0.0000  0.0000  0.0000  0.0000 </r>
        <r>  0.0000  0.0000  0.2166  0.0000  0.0000  0.0000  0.0000  0.0000  0.0000 </r>
       </set>
       <set comment="band 5">
        <r>  0.0840  0.0270  0.0000  0.0524  0.0000  0.0000  0.0000  0.0000  0.0000 </r>
        <r>  0.0840  0.0270  0.0000  0.0524  0.0000  0.0000  0.0000  0.0000  0.0000 </r>
       </set>
       <set comment="band 6">
        <r>  0.0000  0.0000  0.1478  0.0000  0.0000  0.0000  0.0000  0.0000  0.0000 </r>
        <r>  0.0000  0.0000  0.1478  0.0000  0.0000  0.0000  0.0000  0.0000  0.0000 </r>
       </set>
       <set comment="band 7">
        <r>  0.0337  0.0397  0.0000  0.0699  0.0000  0.0000  0.0000  0.0000  0.0000 </r>
        <r>  0.0337  0.0397  0.0000  0.0699  0.0000  0.0000  0.0000  0.0000  0.0000 </r>
       </set>
       <set comment="band 8">
        <r>  0.0743  0.0615  0.0000  0.0352  0.0000  0.0000  0.0000  0.0000  0.0000 </r>
        <r>  0.0743  0.0615  0.0000  0.0352  0.0000  0.0000  0.0000  0.0000  0.0000 </r>
       </set>
       <set comment="band 9">
        <r>  0.0000  0.0000  0.0026  0.0000  0.0000  0.0000  0.0000  0.0000  0.0000 </r>
        <r>  0.0000  0.0000  0.0026  0.0000  0.0000  0.0000  0.0000  0.0000  0.0000 </r>
       </set>
      </set>
      <set comment="kpoint 8">
       <set comment="band 1">
        <r>  0.2040  0.0098  0.0000  0.0196  0.0000  0.0000  0.0000  0.0000  0.0000 </r>
        <r>  0.2040  0.0098  0.0000  0.0196  0.0000  0.0000  0.0000  0.0000  0.0000 </r>
       </set>
       <set comment="band 2">
        <r>  0.1857  0.0216  0.0000  0.0431  0.0000  0.0000  0.0000  0.0000  0.0000 </r>
        <r>  0.1857  0.0216  0.0000  0.0431  0.0000  0.0000  0.0000  0.0000  0.0000 </r>
       </set>
       <set comment="band 3">
        <r>  0.0000  0.0025  0.1928  0.0012  0.0000  0.0000  0.0000  0.0000  0.0000 </r>
        <r>  0.0000  0.0025  0.1928  0.0012  0.0000  0.0000  0.0000  0.0000  0.0000 </r>
       </set>
       <set comment="band 4">
        <r>  0.0000  0.1285  0.0037  0.0643  0.0000  0.0000  0.0000  0.0000  0.0000 </r>
        <r>  0.0000  0.1285  0.0037  0.0643  0.0000  0.0000  0.0000  0.0000  0.0000 </r>
       </set>
       <set comment="band 5">
        <r>  0.0534  0.0150  0.0000  0.0301  0.0000  0.0000  0.0000  0.0000  0.0000 </r>
        <r>  0.0534  0.0150  0.0000  0.0301  0.0000  0.0000  0.0000  0.0000  0.0000 </r>
       </set>
       <set comment="band 6">
        <r>  0.0472  0.0098  0.0000  0.0197  0.0000  0.0000  0.0000  0.0000  0.0000 </r>
        <r>  0.0472  0.0098  0.0000  0.0197  0.0000  0.0000  0.0000  0.0000  0.0000 </r>
       </set>
       <set comment="band 7">
        <r>  0.0000  0.0389  0.1064  0.0195  0.0000  0.0000  0.0000  0.0000  0.0000 </r>
        <r>  0.0000  0.0389  0.1064  0.0195  0.0000  0.0000  0.0000  0.0000  0.0000 </r>
       </set>
       <set comment="band 8">
        <r>  0.0000  0.0708  0.0583  0.0356  0.0000  0.0000  0.0000  0.0000  0.0000 </r>
        <r>  0.0000  0.0712  0.0583  0.0353  0.0000  0.0000  0.0000  0.0000  0.0000 </r>
       </set>
       <set comment="band 9">
        <r>  0.0710  0.0344  0.0000  0.0690  0.0000  0.0000  0.0000  0.0000  0.0000 </r>
        <r>  0.0706  0.0353  0.0000  0.0698  0.0000  0.0000  0.0000  0.0000  0.0000 </r>
       </set>
      </set>
      <set comment="kpoint 9">
       <set comment="band 1">
        <r>  0.2120  0.0142  0.0000  0.0224  0.0000  0.0000  0.0000  0.0000  0.0000 </r>
        <r>  0.2120  0.0142  0.0000  0.0224  0.0000  0.0000  0.0000  0.0000  0.0000 </r>
       </set>
       <set comment="band 2">
        <r>  0.1899  0.0198  0.0000  0.0321  0.0000  0.0000  0.0000  0.0000  0.0000 </r>
        <r>  0.1899  0.0198  0.0000  0.0321  0.0000  0.0000  0.0000  0.0000  0.0000 </r>
       </set>
       <set comment="band 3">
        <r>  0.0005  0.0973  0.0000  0.0645  0.0000  0.0000  0.0000  0.0000  0.0000 </r>
        <r>  0.0005  0.0973  0.0000  0.0645  0.0000  0.0000  0.0000  0.0000  0.0000 </r>
       </set>
       <set comment="band 4">
        <r>  0.0000  0.0000  0.1985  0.0000  0.0000  0.0000  0.0000  0.0000  0.0000 </r>
        <r>  0.0000  0.0000  0.1985  0.0000  0.0000  0.0000  0.0000  0.0000  0.0000 </r>
       </set>
       <set comment="band 5">
        <r>  0.0525  0.0129  0.0000  0.0248  0.0000  0.0000  0.0000  0.0000  0.0000 </r>
        <r>  0.0525  0.0129  0.0000  0.0248  0.0000  0.0000  0.0000  0.0000  0.0000 </r>
       </set>
       <set comment="band 6">
        <r>  0.0311  0.0448  0.0000  0.0310  0.0000  0.0000  0.0000  0.0000  0.0000 </r>
        <r>  0.0311  0.0448  0.0000  0.0310  0.0000  0.0000  0.0000  0.0000  0.0000 </r>
       </set>
       <set comment="band 7">
        <r>  0.0000  0.0000  0.1627  0.0000  0.0000  0.0000  0.0000  0.0000  0.0000 </r>
        <r>  0.0000  0.0000  0.1640  0.0000  0.0000  0.0000  0.0000  0.0000  0.0000 </r>
       </set>
       <set comment="band 8">
        <r>  0.0302  0.0314  0.0001  0.0619  0.0000  0.0000  0.0000  0.0000  0.0000 </r>
        <r>  0.0302  0.0313  0.0001  0.0618  0.0000  0.0000  0.0000  0.0000  0.0000 </r>
       </set>
       <set comment="band 9">
        <r>  0.0433  0.1158  0.0000  0.0750  0.0000  0.0000  0.0000  0.0000  0.0000 </r>
        <r>  0.0434  0.1158  0.0000  0.0750  0.0000  0.0000  0.0000  0.0000  0.0000 </r>
       </set>
      </set>
      <set comment="kpoint 10">
       <set comment="band 1">
        <r>  0.2113  0.0055  0.0039  0.0205  0.0000  0.0000  0.0000  0.0000  0.0000 </r>
        <r>  0.2113  0.0055  0.0039  0.0205  0.0000  0.0000  0.0000  0.0000  0.0000 </r>
       </set>
       <set comment="band 2">
        <r>  0.1885  0.0136  0.0143  0.0331  0.0000  0.0000  0.0000  0.0000  0.0000 </r>
        <r>  0.1885  0.0136  0.0143  0.0331  0.0000  0.0000  0.0000  0.0000  0.0000 </r>
       </set>
       <set comment="band 3">
        <r>  0.0064  0.0267  0.0663  0.0659  0.0000  0.0000  0.0000  0.0000  0.0000 </r>
        <r>  0.0064  0.0267  0.0663  0.0659  0.0000  0.0000  0.0000  0.0000  0.0000 </r>
       </set>
       <set comment="band 4">
        <r>  0.0016  0.1029  0.0626  0.0104  0.0000  0.0000  0.0000  0.0000  0.0000 </r>
        <r>  0.0016  0.1029  0.0626  0.0104  0.0000  0.0000  0.0000  0.0000  0.0000 </r>
       </set>
       <set comment="band 5">
        <r>  0.0281  0.0526  0.0326  0.0071  0.0000  0.0000  0.0000  0.0000  0.0000 </r>
        <r>  0.0281  0.0526  0.0326  0.0071  0.0000  0.0000  0.0000  0.0000  0.0000 </r>
       </set>
       <set comment="band 6">
        <r>  0.0065  0.0130  0.0328  0.0234  0.0000  0.0000  0.0000  0.0000  0.0000 </r>
        <r>  0.0065  0.0130  0.0328  0.0234  0.0000  0.0000  0.0000  0.0000  0.0000 </r>
       </set>
       <set comment="band 7">
        <r>  0.0715  0.0432  0.0301  0.0204  0.0000  0.0000  0.0000  0.0000  0.0000 </r>
        <r>  0.0715  0.0432  0.0301  0.0204  0.0000  0.0000  0.0000  0.0000  0.0000 </r>
       </set>
       <set comment="band 8">
        <r>  0.0192  0.0071  0.0267  0.0716  0.0000  0.0000  0.0000  0.0000  0.0000 </r>
        <r>  0.0191  0.0071  0.0268  0.0719  0.0000  0.0000  0.0000  0.0000  0.0000 </r>
       </set>
       <set comment="band 9">
        <r>  0.0051  0.0701  0.0676  0.0148  0.0000  0.0000  0.0000  0.0000  0.0000 </r>
        <r>  0.0053  0.0703  0.0674  0.0149  0.0000  0.0000  0.0000  0.0000  0.0000 </r>
       </set>
      </set>
     </set>
    </set>
   </array>
  </projected>
 </calculation>
 <structure name="finalpos" >
  <crystal>
   <varray name="basis" >
    <v>       3.34889800       0.00000000       1.93348700 </v>
    <v>       1.11629900       3.15737200       1.93348700 </v>
    <v>       0.00000000       0.00000000       3.86697500 </v>
   </varray>
   <i name="volume">     40.88829843 </i>
   <varray name="rec_basis" >
    <v>       0.29860569      -0.10557300       0.00000000 </v>
    <v>       0.00000000       0.31671909       0.00000000 </v>
    <v>      -0.14930281      -0.10557302       0.25860007 </v>
   </varray>
  </crystal>
  <varray name="positions" >
   <v>       0.25000000       0.25000000       0.25000000 </v>
   <v>       0.00000000       0.00000000       0.00000000 </v>
  </varray>
 </structure>
</modeling>
