 vasp.6.3.0 20Jan22 (build Feb 02 2022 18:12:33) complex

 executed on             LinuxIFC date 2022.04.15  08:38:42
 running on  144 total cores
 distrk:  each k-point on  144 cores,    1 groups
 distr:  one band on NCORE=   1 cores,  144 groups


--------------------------------------------------------------------------------------------------------


 INCAR:
   ALGO = Fast
   EDIFF = 1e-05
   ENAUG = 1360.0
   ENCUT = 500
   GGA = Ps
   ISMEAR = 0
   ISPIN = 2
   LAECHG = False
   LASPH = True
   LCHARG = True
   LELF = False
   LMIXTAU = True
   LORBIT = 11
   LREAL = False
   LVTOT = True
   LWAVE = True
   MAGMOM = 1*0.001 1*0.0 1*0.001 1*0.0 1*0.001 1*0.0 1*0.001
   NELECT = 28.0
   NELM = 200
   NELMIN = 6
   NSW = 0
   PREC = Accurate
   SIGMA = 0.05

 POTCAR:    PAW_PBE Si 05Jan2001
 WARNING: For LVTOT=.TRUE., VASP.5.x writes the TOTAL local potential to the
     file LOCPOT. If you want only the Hartree contributions, use LVHAR=.TRUE.
     instead.

 -----------------------------------------------------------------------------
|                                                                             |
|           W    W    AA    RRRRR   N    N  II  N    N   GGGG   !!!           |
|           W    W   A  A   R    R  NN   N  II  NN   N  G    G  !!!           |
|           W    W  A    A  R    R  N N  N  II  N N  N  G       !!!           |
|           W WW W  AAAAAA  RRRRR   N  N N  II  N  N N  G  GGG   !            |
|           WW  WW  A    A  R   R   N   NN  II  N   NN  G    G                |
|           W    W  A    A  R    R  N    N  II  N    N   GGGG   !!!           |
|                                                                             |
|     For optimal performance we recommend to set                             |
|       NCORE = 2 up to number-of-cores-per-socket                            |
|     NCORE specifies how many cores store one orbital (NPAR=cpu/NCORE).      |
|     This setting can greatly improve the performance of VASP for DFT.       |
|     The default, NCORE=1 might be grossly inefficient on modern             |
|     multi-core architectures or massively parallel machines. Do your        |
|     own testing! More info at https://www.vasp.at/wiki/index.php/NCORE      |
|     Unfortunately you need to use the default for GW and RPA                |
|     calculations (for HF NCORE is supported but not extensively tested      |
|     yet).                                                                   |
|                                                                             |
 -----------------------------------------------------------------------------

 POTCAR:    PAW_PBE Si 05Jan2001
   VRHFIN =Si: s2p2
   LEXCH  = PE
   EATOM  =   103.0669 eV,    7.5752 Ry

   TITEL  = PAW_PBE Si 05Jan2001
   LULTRA =        F    use ultrasoft PP ?
   IUNSCR =        1    unscreen: 0-lin 1-nonlin 2-no
   RPACOR =    1.500    partial core radius
   POMASS =   28.085; ZVAL   =    4.000    mass and valenz
   RCORE  =    1.900    outmost cutoff radius
   RWIGS  =    2.480; RWIGS  =    1.312    wigner-seitz radius (au A)
   ENMAX  =  245.345; ENMIN  =  184.009 eV
   ICORE  =        2    local potential
   LCOR   =        T    correct aug charges
   LPAW   =        T    paw PP
   EAUG   =  322.069
   DEXC   =    0.000
   RMAX   =    1.950    core radius for proj-oper
   RAUG   =    1.300    factor for augmentation sphere
   RDEP   =    1.993    radius for radial grids
   RDEPT  =    1.837    core radius for aug-charge

   Atomic configuration
    6 entries
     n  l   j            E        occ.
     1  0  0.50     -1785.8828   2.0000
     2  0  0.50      -139.4969   2.0000
     2  1  1.50       -95.5546   6.0000
     3  0  0.50       -10.8127   2.0000
     3  1  0.50        -4.0811   2.0000
     3  2  1.50        -4.0817   0.0000
   Description
     l       E           TYP  RCUT    TYP  RCUT
     0    -10.8127223     23  1.900
     0     -7.6451159     23  1.900
     1     -4.0811372     23  1.900
     1      2.4879257     23  1.900
     2     -4.0817478      7  1.900
  local pseudopotential read in
  partial core-charges read in
  partial kinetic energy density read in
  atomic valenz-charges read in
  non local Contribution for L=           0  read in
    real space projection operators read in
  non local Contribution for L=           0  read in
    real space projection operators read in
  non local Contribution for L=           1  read in
    real space projection operators read in
  non local Contribution for L=           1  read in
    real space projection operators read in
    PAW grid and wavefunctions read in

   number of l-projection  operators is LMAX  =           4
   number of lm-projection operators is LMMAX =           8

 -----------------------------------------------------------------------------
|                                                                             |
|               ----> ADVICE to this user running VASP <----                  |
|                                                                             |
|     You enforced a specific xc type in the INCAR file but a different       |
|     type was found in the POTCAR file.                                      |
|     I HOPE YOU KNOW WHAT YOU ARE DOING!                                     |
|                                                                             |
 -----------------------------------------------------------------------------

  PAW_PBE Si 05Jan2001                  :
 energy of atom  1       EATOM= -103.0669
 kinetic energy error for atom=    0.0006 (will be added to EATOM!!)


 POSCAR: Si7
  positions in direct lattice
  No initial velocities read in
 exchange correlation table for  LEXCH =       14
   RHO(1)=    0.500       N(1)  =     2000
   RHO(2)= 2000.500       N(2)  =     4000



--------------------------------------------------------------------------------------------------------


 ion  position               nearest neighbor table
   1  0.256  0.744  0.256-   2 2.38   4 2.38   6 2.38
   2  0.000  0.000  0.500-   1 2.38   3 2.38   5 2.38   7 2.38
   3  0.256  0.256  0.744-   2 2.38   4 2.38   6 2.38
   4  0.000  0.500  0.000-   1 2.38   3 2.38   5 2.38   7 2.38
   5  0.744  0.744  0.744-   2 2.38   4 2.38   6 2.38
   6  0.500  0.000  0.000-   1 2.38   3 2.38   5 2.38   7 2.38
   7  0.744  0.256  0.256-   2 2.38   4 2.38   6 2.38

  LATTYP: Found a simple cubic cell.
 ALAT       =     5.4378483500

  Lattice vectors:

 A1 = (   5.4378483500,   0.0000000000,   0.0000000000)
 A2 = (   0.0000000000,   5.4378483500,   0.0000000000)
 A3 = (   0.0000000000,   0.0000000000,   5.4378483500)


Analysis of symmetry for initial positions (statically):
=====================================================================
 Subroutine PRICEL returns:
 Original cell was already a primitive cell.


 Routine SETGRP: Setting up the symmetry group for a
 simple cubic supercell.


 Subroutine GETGRP returns: Found 24 space group operations
 (whereof 24 operations were pure point group operations)
 out of a pool of 48 trial point group operations.


The static configuration has the point symmetry T_d .


Analysis of symmetry for dynamics (positions and initial velocities):
=====================================================================
 Subroutine PRICEL returns:
 Original cell was already a primitive cell.


 Routine SETGRP: Setting up the symmetry group for a
 simple cubic supercell.


 Subroutine GETGRP returns: Found 24 space group operations
 (whereof 24 operations were pure point group operations)
 out of a pool of 48 trial point group operations.


The dynamic configuration has the point symmetry T_d .


Analysis of structural, dynamic, and magnetic symmetry:
=====================================================================
 Subroutine PRICEL returns:
 Original cell was already a primitive cell.


 Routine SETGRP: Setting up the symmetry group for a
 simple cubic supercell.


 Subroutine GETGRP returns: Found 24 space group operations
 (whereof 24 operations were pure point group operations)
 out of a pool of 48 trial point group operations.


The overall configuration has the point symmetry T_d .


 Subroutine INISYM returns: Found 24 space group operations
 (whereof 24 operations are pure point group operations),
 and found     1 'primitive' translations


----------------------------------------------------------------------------------------

                                     Primitive cell

  volume of cell :     160.7982

  direct lattice vectors                    reciprocal lattice vectors
     5.437848350  0.000000000  0.000000000     0.183896265  0.000000000  0.000000000
     0.000000000  5.437848350  0.000000000     0.000000000  0.183896265  0.000000000
     0.000000000  0.000000000  5.437848350     0.000000000  0.000000000  0.183896265

  length of vectors
     5.437848350  5.437848350  5.437848350     0.183896265  0.183896265  0.183896265

  position of ions in fractional coordinates (direct lattice)
     0.256408882  0.743591118  0.256408882
     0.000000000  0.000000000  0.500000000
     0.256408882  0.256408882  0.743591118
     0.000000000  0.500000000  0.000000000
     0.743591118  0.743591118  0.743591118
     0.500000000  0.000000000  0.000000000
     0.743591118  0.256408882  0.256408882

  ion indices of the primitive-cell ions
   primitive index   ion index
                 1           1
                 2           2
                 3           3
                 4           4
                 5           5
                 6           6
                 7           7

----------------------------------------------------------------------------------------



 KPOINTS: pymatgen with grid density = 691 / numbe

Automatic generation of k-mesh.
 Grid dimensions read from file:
 generate k-points for:    4    4    4

 Generating k-lattice:

  Cartesian coordinates                     Fractional coordinates (reciprocal lattice)
     0.045974066  0.000000000  0.000000000     0.250000000  0.000000000  0.000000000
     0.000000000  0.045974066  0.000000000     0.000000000  0.250000000  0.000000000
     0.000000000  0.000000000  0.045974066     0.000000000  0.000000000  0.250000000

  Length of vectors
     0.045974066  0.045974066  0.045974066

  Shift w.r.t. Gamma in fractional coordinates (k-lattice)
     0.000000000  0.000000000  0.000000000


 Subroutine IBZKPT returns following result:
 ===========================================

 Found     10 irreducible k-points:

 Following reciprocal coordinates:
            Coordinates               Weight
  0.000000  0.000000  0.000000      1.000000
  0.250000  0.000000  0.000000      6.000000
  0.500000  0.000000  0.000000      3.000000
  0.250000  0.250000  0.000000     12.000000
  0.500000  0.250000  0.000000     12.000000
  0.500000  0.500000  0.000000      3.000000
  0.250000  0.250000  0.250000      8.000000
  0.500000  0.250000  0.250000     12.000000
  0.500000  0.500000  0.250000      6.000000
  0.500000  0.500000  0.500000      1.000000

 Following cartesian coordinates:
            Coordinates               Weight
  0.000000  0.000000  0.000000      1.000000
  0.045974  0.000000  0.000000      6.000000
  0.091948  0.000000  0.000000      3.000000
  0.045974  0.045974  0.000000     12.000000
  0.091948  0.045974  0.000000     12.000000
  0.091948  0.091948  0.000000      3.000000
  0.045974  0.045974  0.045974      8.000000
  0.091948  0.045974  0.045974     12.000000
  0.091948  0.091948  0.045974      6.000000
  0.091948  0.091948  0.091948      1.000000



--------------------------------------------------------------------------------------------------------




 Dimension of arrays:
   k-points           NKPTS =     10   k-points in BZ     NKDIM =     10   number of bands    NBANDS=    144
   number of dos      NEDOS =    301   number of ions     NIONS =      7
   non local maximal  LDIM  =      4   non local SUM 2l+1 LMDIM =      8
   total plane-waves  NPLWV =  64000
   max r-space proj   IRMAX =      1   max aug-charges    IRDMAX=  13506
   dimension x,y,z NGX =    40 NGY =   40 NGZ =   40
   dimension x,y,z NGXF=    80 NGYF=   80 NGZF=   80
   support grid    NGXF=    80 NGYF=   80 NGZF=   80
   ions per type =               7
   NGX,Y,Z   is equivalent  to a cutoff of  12.23, 12.23, 12.23 a.u.
   NGXF,Y,Z  is equivalent  to a cutoff of  24.46, 24.46, 24.46 a.u.

 SYSTEM =  unknown system
 POSCAR =  Si7

 Startparameter for this run:
   NWRITE =      2    write-flag & timer
   PREC   = accura    normal or accurate (medium, high low for compatibility)
   ISTART =      0    job   : 0-new  1-cont  2-samecut
   ICHARG =      2    charge: 1-file 2-atom 10-const
   ISPIN  =      2    spin polarized calculation?
   LNONCOLLINEAR =      F non collinear calculations
   LSORBIT =      F    spin-orbit coupling
   INIWAV =      1    electr: 0-lowe 1-rand  2-diag
   LASPH  =      T    aspherical Exc in radial PAW
 Electronic Relaxation 1
   ENCUT  =  500.0 eV  36.75 Ry    6.06 a.u.   9.91  9.91  9.91*2*pi/ulx,y,z
   ENINI  =  500.0     initial cutoff
   ENAUG  = 1360.0 eV  augmentation charge cutoff
   NELM   =    200;   NELMIN=  6; NELMDL= -5     # of ELM steps
   EDIFF  = 0.1E-04   stopping-criterion for ELM
   LREAL  =      F    real-space projection
   NLSPLINE    = F    spline interpolate recip. space projectors
   LCOMPAT=      F    compatible to vasp.4.4
   GGA_COMPAT  = T    GGA compatible to vasp.4.4-vasp.4.6
   LMAXPAW     = -100 max onsite density
   LMAXMIX     =    2 max onsite mixed and CHGCAR
   VOSKOWN=      0    Vosko Wilk Nusair interpolation
   ROPT   =    0.00000
 Ionic relaxation
   EDIFFG = 0.1E-03   stopping-criterion for IOM
   NSW    =      0    number of steps for IOM
   NBLOCK =      1;   KBLOCK =      1    inner block; outer block
   IBRION =     -1    ionic relax: 0-MD 1-quasi-New 2-CG
   NFREE  =      0    steps in history (QN), initial steepest desc. (CG)
   ISIF   =      2    stress and relaxation
   IWAVPR =     10    prediction:  0-non 1-charg 2-wave 3-comb
   ISYM   =      2    0-nonsym 1-usesym 2-fastsym
   LCORR  =      T    Harris-Foulkes like correction to forces

   POTIM  = 0.5000    time-step for ionic-motion
   TEIN   =    0.0    initial temperature
   TEBEG  =    0.0;   TEEND  =   0.0 temperature during run
   SMASS  =  -3.00    Nose mass-parameter (am)
   estimated Nose-frequenzy (Omega)   =  0.10E-29 period in steps = 0.13E+47 mass=  -0.676E-27a.u.
   SCALEE = 1.0000    scale energy and forces
   NPACO  =    256;   APACO  = 10.0  distance and # of slots for P.C.
   PSTRESS=    0.0 pullay stress

  Mass of Ions in am
   POMASS =  28.09
  Ionic Valenz
   ZVAL   =   4.00
  Atomic Wigner-Seitz radii
   RWIGS  =  -1.00
  virtual crystal weights
   VCA    =   1.00
   NELECT =      28.0000    total number of electrons
   NUPDOWN=      -1.0000    fix difference up-down

 DOS related values:
   EMIN   =  10.00;   EMAX   =-10.00  energy-range for DOS
   EFERMI =   0.00
   ISMEAR =     0;   SIGMA  =   0.05  broadening in eV -4-tet -1-fermi 0-gaus

 Electronic relaxation 2 (details)
   IALGO  =     68    algorithm
   LDIAG  =      T    sub-space diagonalisation (order eigenvalues)
   LSUBROT=      F    optimize rotation matrix (better conditioning)
   TURBO    =      0    0=normal 1=particle mesh
   IRESTART =      0    0=no restart 2=restart with 2 vectors
   NREBOOT  =      0    no. of reboots
   NMIN     =      0    reboot dimension
   EREF     =   0.00    reference energy to select bands
   IMIX   =      4    mixing-type and parameters
     AMIX     =   0.40;   BMIX     =  1.00
     AMIX_MAG =   1.60;   BMIX_MAG =  1.00
     AMIN     =   0.10
     WC   =   100.;   INIMIX=   1;  MIXPRE=   1;  MAXMIX= -45

 Intra band minimization:
   WEIMIN = 0.0000     energy-eigenvalue tresh-hold
   EBREAK =  0.17E-07  absolut break condition
   DEPER  =   0.30     relativ break condition

   TIME   =   0.40     timestep for ELM

  volume/ion in A,a.u.               =      22.97       155.02
  Fermi-wavevector in a.u.,A,eV,Ry     =   0.914184  1.727558 11.370836  0.835733
  Thomas-Fermi vector in A             =   2.038782

 Write flags
   LWAVE        =      T    write WAVECAR
   LDOWNSAMPLE  =      F    k-point downsampling of WAVECAR
   LCHARG       =      T    write CHGCAR
   LVTOT        =      T    write LOCPOT, total local potential
   LVHAR        =      F    write LOCPOT, Hartree potential only
   LELF         =      F    write electronic localiz. function (ELF)
   LORBIT       =     11    0 simple, 1 ext, 2 COOP (PROOUT), +10 PAW based schemes


 Dipole corrections
   LMONO  =      F    monopole corrections only (constant potential shift)
   LDIPOL =      F    correct potential (dipole corrections)
   IDIPOL =      0    1-x, 2-y, 3-z, 4-all directions
   EPSILON=  1.0000000 bulk dielectric constant

 Exchange correlation treatment:
   GGA     =    PS    GGA type
   LEXCH   =    14    internal setting for exchange type
   LIBXC   =     F    Libxc
   VOSKOWN =     0    Vosko Wilk Nusair interpolation
   LHFCALC =     F    Hartree Fock is set to
   LHFONE  =     F    Hartree Fock one center treatment
   AEXX    =    0.0000 exact exchange contribution

 Linear response parameters
   LEPSILON=     F    determine dielectric tensor
   LRPA    =     F    only Hartree local field effects (RPA)
   LNABLA  =     F    use nabla operator in PAW spheres
   LVEL    =     F    velocity operator in full k-point grid
   CSHIFT  =0.1000    complex shift for real part using Kramers Kronig
   OMEGAMAX=  -1.0    maximum frequency
   DEG_THRESHOLD= 0.2000000E-02 threshold for treating states as degnerate
   RTIME   =   -0.100 relaxation time in fs
  (WPLASMAI=    0.000 imaginary part of plasma frequency in eV, 0.658/RTIME)
   DFIELD  = 0.0000000 0.0000000 0.0000000 field for delta impulse in time

  Optional k-point grid parameters
   LKPOINTS_OPT  =     F    use optional k-point grid
   KPOINTS_OPT_MODE=     1    mode for optional k-point grid

 Orbital magnetization related:
   ORBITALMAG=     F  switch on orbital magnetization
   LCHIMAG   =     F  perturbation theory with respect to B field
   DQ        =  0.001000  dq finite difference perturbation B field
   LLRAUG    =     F  two centre corrections for induced B field



--------------------------------------------------------------------------------------------------------


 Static calculation
 charge density and potential will be updated during run
 spin polarized calculation
 RMM-DIIS sequential band-by-band and
  variant of blocked Davidson during initial phase
 perform sub-space diagonalisation
    before iterative eigenvector-optimisation
 modified Broyden-mixing scheme, WC =      100.0
 initial mixing is a Kerker type mixing with AMIX =  0.4000 and BMIX =      1.0000
 Hartree-type preconditioning will be used
 using additional bands          130
 reciprocal scheme for non local part
 use partial core corrections
 calculate Harris-corrections to forces
   (improved forces if not selfconsistent)
 use gradient corrections
 use of overlap-Matrix (Vanderbilt PP)
 Gauss-broadening in eV      SIGMA  =   0.05


--------------------------------------------------------------------------------------------------------


  energy-cutoff  :      500.00
  volume of cell :      160.80
      direct lattice vectors                 reciprocal lattice vectors
     5.437848350  0.000000000  0.000000000     0.183896265  0.000000000  0.000000000
     0.000000000  5.437848350  0.000000000     0.000000000  0.183896265  0.000000000
     0.000000000  0.000000000  5.437848350     0.000000000  0.000000000  0.183896265

  length of vectors
     5.437848350  5.437848350  5.437848350     0.183896265  0.183896265  0.183896265



 k-points in units of 2pi/SCALE and weight: pymatgen with grid density = 691 / numbe
   0.00000000  0.00000000  0.00000000       0.016
   0.04597407  0.00000000  0.00000000       0.094
   0.09194813  0.00000000  0.00000000       0.047
   0.04597407  0.04597407  0.00000000       0.188
   0.09194813  0.04597407  0.00000000       0.188
   0.09194813  0.09194813  0.00000000       0.047
   0.04597407  0.04597407  0.04597407       0.125
   0.09194813  0.04597407  0.04597407       0.188
   0.09194813  0.09194813  0.04597407       0.094
   0.09194813  0.09194813  0.09194813       0.016

 k-points in reciprocal lattice and weights: pymatgen with grid density = 691 / numbe
   0.00000000  0.00000000  0.00000000       0.016
   0.25000000  0.00000000  0.00000000       0.094
   0.50000000  0.00000000  0.00000000       0.047
   0.25000000  0.25000000  0.00000000       0.188
   0.50000000  0.25000000  0.00000000       0.188
   0.50000000  0.50000000  0.00000000       0.047
   0.25000000  0.25000000  0.25000000       0.125
   0.50000000  0.25000000  0.25000000       0.188
   0.50000000  0.50000000  0.25000000       0.094
   0.50000000  0.50000000  0.50000000       0.016

 position of ions in fractional coordinates (direct lattice)
   0.25640888  0.74359112  0.25640888
   0.00000000  0.00000000  0.50000000
   0.25640888  0.25640888  0.74359112
   0.00000000  0.50000000  0.00000000
   0.74359112  0.74359112  0.74359112
   0.50000000  0.00000000  0.00000000
   0.74359112  0.25640888  0.25640888

 position of ions in cartesian coordinates  (Angst):
   1.39431262  4.04353573  1.39431262
   0.00000000  0.00000000  2.71892418
   1.39431262  1.39431262  4.04353573
   0.00000000  2.71892418  0.00000000
   4.04353573  4.04353573  4.04353573
   2.71892418  0.00000000  0.00000000
   4.04353573  1.39431262  1.39431262



--------------------------------------------------------------------------------------------------------


 k-point   1 :   0.0000 0.0000 0.0000  plane waves:    4067
 k-point   2 :   0.2500 0.0000 0.0000  plane waves:    4072
 k-point   3 :   0.5000 0.0000 0.0000  plane waves:    4116
 k-point   4 :   0.2500 0.2500 0.0000  plane waves:    4080
 k-point   5 :   0.5000 0.2500 0.0000  plane waves:    4072
 k-point   6 :   0.5000 0.5000 0.0000  plane waves:    4076
 k-point   7 :   0.2500 0.2500 0.2500  plane waves:    4094
 k-point   8 :   0.5000 0.2500 0.2500  plane waves:    4076
 k-point   9 :   0.5000 0.5000 0.2500  plane waves:    4092
 k-point  10 :   0.5000 0.5000 0.5000  plane waves:    4032

 maximum and minimum number of plane-waves per node :      4116     4032

 maximum number of plane-waves:      4116
 maximum index in each direction:
   IXMAX=    9   IYMAX=    9   IZMAX=    9
   IXMIN=  -10   IYMIN=  -10   IZMIN=  -10


 serial   3D FFT for wavefunctions
 parallel 3D FFT for charge:
    minimum data exchange during FFTs selected (reduces bandwidth)


 total amount of memory used by VASP MPI-rank0    40713. kBytes
=======================================================================

   base      :      30000. kBytes
   nonl-proj :       3140. kBytes
   fftplans  :        508. kBytes
   grid      :       5640. kBytes
   one-center:         43. kBytes
   wavefun   :       1382. kBytes

     INWAV:  cpu time      0.0001: real time      0.0001
 Broyden mixing: mesh for mixing (old mesh)
   NGX = 19   NGY = 19   NGZ = 19
  (NGX  = 80   NGY  = 80   NGZ  = 80)
  gives a total of   6859 points

 initial charge density was supplied:
 charge density of overlapping atoms calculated
 number of electron      28.0000000 magnetization       0.0040000
 keeping initial charge density in first step


--------------------------------------------------------------------------------------------------------


 Maximum index for augmentation-charges          665 (set IRDMAX)


--------------------------------------------------------------------------------------------------------


 First call to EWALD:  gamma=   0.326
 Maximum number of real-space cells 3x 3x 3
 Maximum number of reciprocal cells 3x 3x 3

    FEWALD:  cpu time      0.0018: real time      0.0031


--------------------------------------- Iteration      1(   1)  ---------------------------------------


    POTLOK:  cpu time      0.0253: real time      0.0314
    SETDIJ:  cpu time      0.2011: real time      0.2011
     EDDAV:  cpu time      5.1862: real time      5.1874
       DOS:  cpu time      0.0031: real time      0.0032
    --------------------------------------------
      LOOP:  cpu time      5.4158: real time      5.4232

 eigenvalue-minimisations  :  5760
 total energy-change (2. order) :-0.1917972E+02  (-0.1138311E+04)
 number of electron      28.0000000 magnetization       0.0040000
 augmentation part       28.0000000 magnetization       0.0040000

 Free energy of the ion-electron system (eV)
  ---------------------------------------------------
  alpha Z        PSCENC =        10.25815623
  Ewald energy   TEWEN  =      -752.22079585
  -Hartree energ DENC   =       -54.17061977
  -exchange      EXHF   =         0.00000000
  -V(xc)+E(xc)   XCENC  =       -62.66570854
  PAW double counting   =       612.34974622     -491.33201668
  entropy T*S    EENTRO =        -0.00793547
  eigenvalues    EBANDS =         0.58133625
  atomic energy  EATOM  =       718.02812073
  Solvation  Ediel_sol  =         0.00000000
  ---------------------------------------------------
  free energy    TOTEN  =       -19.17971689 eV

  energy without entropy =      -19.17178142  energy(sigma->0) =      -19.17574916


--------------------------------------------------------------------------------------------------------




--------------------------------------- Iteration      1(   2)  ---------------------------------------


     EDDAV:  cpu time     12.3134: real time     12.3292
       DOS:  cpu time      0.0030: real time      0.0030
    --------------------------------------------
      LOOP:  cpu time     12.3163: real time     12.3322

 eigenvalue-minimisations  :  8640
 total energy-change (2. order) :-0.1856266E+02  (-0.1855764E+02)
 number of electron      28.0000000 magnetization       0.0040000
 augmentation part       28.0000000 magnetization       0.0040000

 Free energy of the ion-electron system (eV)
  ---------------------------------------------------
  alpha Z        PSCENC =        10.25815623
  Ewald energy   TEWEN  =      -752.22079585
  -Hartree energ DENC   =       -54.17061977
  -exchange      EXHF   =         0.00000000
  -V(xc)+E(xc)   XCENC  =       -62.66570854
  PAW double counting   =       612.34974622     -491.33201668
  entropy T*S    EENTRO =        -0.00936239
  eigenvalues    EBANDS =       -17.97989588
  atomic energy  EATOM  =       718.02812073
  Solvation  Ediel_sol  =         0.00000000
  ---------------------------------------------------
  free energy    TOTEN  =       -37.74237594 eV

  energy without entropy =      -37.73301355  energy(sigma->0) =      -37.73769474


--------------------------------------------------------------------------------------------------------




--------------------------------------- Iteration      1(   3)  ---------------------------------------


     EDDAV:  cpu time      5.3307: real time      5.3319
       DOS:  cpu time      0.0029: real time      0.0029
    --------------------------------------------
      LOOP:  cpu time      5.3336: real time      5.3348

 eigenvalue-minimisations  :  5760
 total energy-change (2. order) :-0.1481713E-01  (-0.1481708E-01)
 number of electron      28.0000000 magnetization       0.0040000
 augmentation part       28.0000000 magnetization       0.0040000

 Free energy of the ion-electron system (eV)
  ---------------------------------------------------
  alpha Z        PSCENC =        10.25815623
  Ewald energy   TEWEN  =      -752.22079585
  -Hartree energ DENC   =       -54.17061977
  -exchange      EXHF   =         0.00000000
  -V(xc)+E(xc)   XCENC  =       -62.66570854
  PAW double counting   =       612.34974622     -491.33201668
  entropy T*S    EENTRO =        -0.00936363
  eigenvalues    EBANDS =       -17.99471177
  atomic energy  EATOM  =       718.02812073
  Solvation  Ediel_sol  =         0.00000000
  ---------------------------------------------------
  free energy    TOTEN  =       -37.75719306 eV

  energy without entropy =      -37.74782944  energy(sigma->0) =      -37.75251125


--------------------------------------------------------------------------------------------------------




--------------------------------------- Iteration      1(   4)  ---------------------------------------


     EDDAV:  cpu time     25.4896: real time     25.5105
       DOS:  cpu time      0.0029: real time      0.0029
    --------------------------------------------
      LOOP:  cpu time     25.4924: real time     25.5134

 eigenvalue-minimisations  : 11520
 total energy-change (2. order) :-0.7402847E-05  (-0.7402971E-05)
 number of electron      28.0000000 magnetization       0.0040000
 augmentation part       28.0000000 magnetization       0.0040000

 Free energy of the ion-electron system (eV)
  ---------------------------------------------------
  alpha Z        PSCENC =        10.25815623
  Ewald energy   TEWEN  =      -752.22079585
  -Hartree energ DENC   =       -54.17061977
  -exchange      EXHF   =         0.00000000
  -V(xc)+E(xc)   XCENC  =       -62.66570854
  PAW double counting   =       612.34974622     -491.33201668
  entropy T*S    EENTRO =        -0.00936363
  eigenvalues    EBANDS =       -17.99471917
  atomic energy  EATOM  =       718.02812073
  Solvation  Ediel_sol  =         0.00000000
  ---------------------------------------------------
  free energy    TOTEN  =       -37.75720047 eV

  energy without entropy =      -37.74783683  energy(sigma->0) =      -37.75251865


--------------------------------------------------------------------------------------------------------




--------------------------------------- Iteration      1(   5)  ---------------------------------------


     EDDAV:  cpu time      5.6897: real time      5.7051
       DOS:  cpu time      0.0029: real time      0.0029
    CHARGE:  cpu time      0.0448: real time      0.0448
    MIXING:  cpu time      0.0020: real time      0.0021
    --------------------------------------------
      LOOP:  cpu time      5.7395: real time      5.7550

 eigenvalue-minimisations  :  5760
 total energy-change (2. order) :-0.2495426E-09  (-0.2865614E-11)
 number of electron      28.0000001 magnetization       0.0027631
 augmentation part       -1.6663861 magnetization       0.0000172

 Broyden mixing:
  rms(total) = 0.80879E+00    rms(broyden)= 0.80879E+00
  rms(prec ) = 0.11845E+01
  weight for this iteration     100.00

 Free energy of the ion-electron system (eV)
  ---------------------------------------------------
  alpha Z        PSCENC =        10.25815623
  Ewald energy   TEWEN  =      -752.22079585
  -Hartree energ DENC   =       -54.17061977
  -exchange      EXHF   =         0.00000000
  -V(xc)+E(xc)   XCENC  =       -62.66570854
  PAW double counting   =       612.34974622     -491.33201668
  entropy T*S    EENTRO =        -0.00936363
  eigenvalues    EBANDS =       -17.99471917
  atomic energy  EATOM  =       718.02812073
  Solvation  Ediel_sol  =         0.00000000
  ---------------------------------------------------
  free energy    TOTEN  =       -37.75720047 eV

  energy without entropy =      -37.74783684  energy(sigma->0) =      -37.75251865


--------------------------------------------------------------------------------------------------------




--------------------------------------- Iteration      1(   6)  ---------------------------------------


    POTLOK:  cpu time      0.0234: real time      0.0423
    SETDIJ:  cpu time      0.2006: real time      0.2006
    EDDIAG:  cpu time      0.8078: real time      0.8083
  RMM-DIIS:  cpu time      0.2010: real time      0.2013
    ORTHCH:  cpu time      0.1132: real time      0.1132
       DOS:  cpu time      0.0025: real time      0.0025
    CHARGE:  cpu time      0.0377: real time      0.0377
    MIXING:  cpu time      0.0006: real time      0.0006
    --------------------------------------------
      LOOP:  cpu time      1.3867: real time      1.4064

 eigenvalue-minimisations  :  5811
 total energy-change (2. order) : 0.5719409E+00  (-0.9925353E-03)
 number of electron      28.0000001 magnetization       0.0016480
 augmentation part       -1.6564361 magnetization      -0.0005616

 Broyden mixing:
  rms(total) = 0.47150E+00    rms(broyden)= 0.47150E+00
  rms(prec ) = 0.63481E+00
  weight for this iteration     100.00

 eigenvalues of (default mixing * dielectric matrix)
  average eigenvalue GAMMA=   2.3407
  2.3407

 Free energy of the ion-electron system (eV)
  ---------------------------------------------------
  alpha Z        PSCENC =        10.25815623
  Ewald energy   TEWEN  =      -752.22079585
  -Hartree energ DENC   =       -58.84759571
  -exchange      EXHF   =         0.00000000
  -V(xc)+E(xc)   XCENC  =       -62.07341532
  PAW double counting   =      1188.50014598    -1067.71674259
  entropy T*S    EENTRO =        -0.00715680
  eigenvalues    EBANDS =       -13.10597623
  atomic energy  EATOM  =       718.02812073
  Solvation  Ediel_sol  =         0.00000000
  ---------------------------------------------------
  free energy    TOTEN  =       -37.18525957 eV

  energy without entropy =      -37.17810278  energy(sigma->0) =      -37.18168117


--------------------------------------------------------------------------------------------------------




--------------------------------------- Iteration      1(   7)  ---------------------------------------


    POTLOK:  cpu time      0.0210: real time      0.0368
    SETDIJ:  cpu time      0.2002: real time      0.2002
    EDDIAG:  cpu time      0.7768: real time      0.7769
  RMM-DIIS:  cpu time      0.2835: real time      0.2835
    ORTHCH:  cpu time      0.1120: real time      0.1120
       DOS:  cpu time      0.0022: real time      0.0022
    CHARGE:  cpu time      0.0375: real time      0.0375
    MIXING:  cpu time      0.0004: real time      0.0004
    --------------------------------------------
      LOOP:  cpu time      1.4336: real time      1.4496

 eigenvalue-minimisations  :  6380
 total energy-change (2. order) : 0.1598003E+00  (-0.1772559E-02)
 number of electron      28.0000001 magnetization       0.0012075
 augmentation part       -1.6487361 magnetization      -0.0002357

 Broyden mixing:
  rms(total) = 0.89405E-01    rms(broyden)= 0.89405E-01
  rms(prec ) = 0.13180E+00
  weight for this iteration     100.00

 eigenvalues of (default mixing * dielectric matrix)
  average eigenvalue GAMMA=   1.8479
  1.3687  2.3271

 Free energy of the ion-electron system (eV)
  ---------------------------------------------------
  alpha Z        PSCENC =        10.25815623
  Ewald energy   TEWEN  =      -752.22079585
  -Hartree energ DENC   =       -63.70592158
  -exchange      EXHF   =         0.00000000
  -V(xc)+E(xc)   XCENC  =       -61.32497623
  PAW double counting   =      2168.86248046    -2048.32086753
  entropy T*S    EENTRO =        -0.00675922
  eigenvalues    EBANDS =        -8.59489624
  atomic energy  EATOM  =       718.02812073
  Solvation  Ediel_sol  =         0.00000000
  ---------------------------------------------------
  free energy    TOTEN  =       -37.02545923 eV

  energy without entropy =      -37.01870001  energy(sigma->0) =      -37.02207962


--------------------------------------------------------------------------------------------------------




--------------------------------------- Iteration      1(   8)  ---------------------------------------


    POTLOK:  cpu time      0.0209: real time      0.0394
    SETDIJ:  cpu time      0.2004: real time      0.2004
    EDDIAG:  cpu time      0.7711: real time      0.7712
  RMM-DIIS:  cpu time      0.2767: real time      0.2767
    ORTHCH:  cpu time      0.1120: real time      0.1120
       DOS:  cpu time      0.0025: real time      0.0025
    CHARGE:  cpu time      0.0368: real time      0.0368
    MIXING:  cpu time      0.0004: real time      0.0004
    --------------------------------------------
      LOOP:  cpu time      1.4206: real time      1.4392

 eigenvalue-minimisations  :  6257
 total energy-change (2. order) : 0.6226011E-02  (-0.2581373E-03)
 number of electron      28.0000001 magnetization       0.0008416
 augmentation part       -1.6503796 magnetization      -0.0001600

 Broyden mixing:
  rms(total) = 0.17540E-01    rms(broyden)= 0.17540E-01
  rms(prec ) = 0.26004E-01
  weight for this iteration     100.00

 eigenvalues of (default mixing * dielectric matrix)
  average eigenvalue GAMMA=   1.7969
  1.6053  1.6053  2.1802

 Free energy of the ion-electron system (eV)
  ---------------------------------------------------
  alpha Z        PSCENC =        10.25815623
  Ewald energy   TEWEN  =      -752.22079585
  -Hartree energ DENC   =       -64.01156020
  -exchange      EXHF   =         0.00000000
  -V(xc)+E(xc)   XCENC  =       -61.18043814
  PAW double counting   =      2405.30077708    -2284.78138574
  entropy T*S    EENTRO =        -0.00672428
  eigenvalues    EBANDS =        -8.40538306
  atomic energy  EATOM  =       718.02812073
  Solvation  Ediel_sol  =         0.00000000
  ---------------------------------------------------
  free energy    TOTEN  =       -37.01923322 eV

  energy without entropy =      -37.01250894  energy(sigma->0) =      -37.01587108


--------------------------------------------------------------------------------------------------------




--------------------------------------- Iteration      1(   9)  ---------------------------------------


    POTLOK:  cpu time      0.0241: real time      0.0407
    SETDIJ:  cpu time      0.2001: real time      0.2002
    EDDIAG:  cpu time      0.7659: real time      0.7659
  RMM-DIIS:  cpu time      0.3040: real time      0.3040
    ORTHCH:  cpu time      0.1119: real time      0.1119
       DOS:  cpu time      0.0025: real time      0.0025
    CHARGE:  cpu time      0.0366: real time      0.0366
    MIXING:  cpu time      0.0004: real time      0.0004
    --------------------------------------------
      LOOP:  cpu time      1.4455: real time      1.4622

 eigenvalue-minimisations  :  6788
 total energy-change (2. order) : 0.4968944E-04  (-0.2216214E-04)
 number of electron      28.0000001 magnetization       0.0004426
 augmentation part       -1.6512743 magnetization      -0.0002320

 Broyden mixing:
  rms(total) = 0.95819E-02    rms(broyden)= 0.95819E-02
  rms(prec ) = 0.12110E-01
  weight for this iteration     100.00

 eigenvalues of (default mixing * dielectric matrix)
  average eigenvalue GAMMA=   1.9693
  2.5137  2.5137  1.4249  1.4249

 Free energy of the ion-electron system (eV)
  ---------------------------------------------------
  alpha Z        PSCENC =        10.25815623
  Ewald energy   TEWEN  =      -752.22079585
  -Hartree energ DENC   =       -64.02298509
  -exchange      EXHF   =         0.00000000
  -V(xc)+E(xc)   XCENC  =       -61.16441051
  PAW double counting   =      2391.98224306    -2271.45863444
  entropy T*S    EENTRO =        -0.00674797
  eigenvalues    EBANDS =        -8.41412969
  atomic energy  EATOM  =       718.02812073
  Solvation  Ediel_sol  =         0.00000000
  ---------------------------------------------------
  free energy    TOTEN  =       -37.01918353 eV

  energy without entropy =      -37.01243557  energy(sigma->0) =      -37.01580955


--------------------------------------------------------------------------------------------------------




--------------------------------------- Iteration      1(  10)  ---------------------------------------


    POTLOK:  cpu time      0.0210: real time      0.0403
    SETDIJ:  cpu time      0.2002: real time      0.2002
    EDDIAG:  cpu time      0.7597: real time      0.7598
  RMM-DIIS:  cpu time      0.3068: real time      0.3068
    ORTHCH:  cpu time      0.1116: real time      0.1116
       DOS:  cpu time      0.0025: real time      0.0025
    CHARGE:  cpu time      0.0367: real time      0.0367
    MIXING:  cpu time      0.0004: real time      0.0004
    --------------------------------------------
      LOOP:  cpu time      1.4389: real time      1.4583

 eigenvalue-minimisations  :  6526
 total energy-change (2. order) :-0.3509305E-04  (-0.3921549E-05)
 number of electron      28.0000001 magnetization       0.0003758
 augmentation part       -1.6516973 magnetization      -0.0000451

 Broyden mixing:
  rms(total) = 0.24195E-02    rms(broyden)= 0.24195E-02
  rms(prec ) = 0.49117E-02
  weight for this iteration     100.00

 eigenvalues of (default mixing * dielectric matrix)
  average eigenvalue GAMMA=   1.7616
  2.5506  2.5506  1.5125  1.5125  0.6817

 Free energy of the ion-electron system (eV)
  ---------------------------------------------------
  alpha Z        PSCENC =        10.25815623
  Ewald energy   TEWEN  =      -752.22079585
  -Hartree energ DENC   =       -63.98559716
  -exchange      EXHF   =         0.00000000
  -V(xc)+E(xc)   XCENC  =       -61.15918506
  PAW double counting   =      2365.13604749    -2244.60909377
  entropy T*S    EENTRO =        -0.00676062
  eigenvalues    EBANDS =        -8.46011062
  atomic energy  EATOM  =       718.02812073
  Solvation  Ediel_sol  =         0.00000000
  ---------------------------------------------------
  free energy    TOTEN  =       -37.01921863 eV

  energy without entropy =      -37.01245801  energy(sigma->0) =      -37.01583832


--------------------------------------------------------------------------------------------------------




--------------------------------------- Iteration      1(  11)  ---------------------------------------


    POTLOK:  cpu time      0.0204: real time      0.0411
    SETDIJ:  cpu time      0.2003: real time      0.2003
    EDDIAG:  cpu time      0.7508: real time      0.7508
  RMM-DIIS:  cpu time      0.3139: real time      0.3140
    ORTHCH:  cpu time      0.1111: real time      0.1111
       DOS:  cpu time      0.0026: real time      0.0026
    CHARGE:  cpu time      0.0365: real time      0.0365
    MIXING:  cpu time      0.0004: real time      0.0004
    --------------------------------------------
      LOOP:  cpu time      1.4360: real time      1.4568

 eigenvalue-minimisations  :  6635
 total energy-change (2. order) : 0.1638743E-04  (-0.5522049E-06)
 number of electron      28.0000001 magnetization       0.0002757
 augmentation part       -1.6516576 magnetization       0.0000027

 Broyden mixing:
  rms(total) = 0.12036E-02    rms(broyden)= 0.12036E-02
  rms(prec ) = 0.13379E-02
  weight for this iteration     100.00

 eigenvalues of (default mixing * dielectric matrix)
  average eigenvalue GAMMA=   1.6405
  2.6732  2.5060  1.7522  1.4179  0.8457  0.6481

 Free energy of the ion-electron system (eV)
  ---------------------------------------------------
  alpha Z        PSCENC =        10.25815623
  Ewald energy   TEWEN  =      -752.22079585
  -Hartree energ DENC   =       -64.03544992
  -exchange      EXHF   =         0.00000000
  -V(xc)+E(xc)   XCENC  =       -61.15378853
  PAW double counting   =      2363.82762866    -2243.30249717
  entropy T*S    EENTRO =        -0.00675846
  eigenvalues    EBANDS =        -8.41381792
  atomic energy  EATOM  =       718.02812073
  Solvation  Ediel_sol  =         0.00000000
  ---------------------------------------------------
  free energy    TOTEN  =       -37.01920224 eV

  energy without entropy =      -37.01244378  energy(sigma->0) =      -37.01582301


--------------------------------------------------------------------------------------------------------




--------------------------------------- Iteration      1(  12)  ---------------------------------------


    POTLOK:  cpu time      0.0199: real time      0.0397
    SETDIJ:  cpu time      0.2003: real time      0.2003
    EDDIAG:  cpu time      0.7455: real time      0.7455
  RMM-DIIS:  cpu time      0.3124: real time      0.3124
    ORTHCH:  cpu time      0.1116: real time      0.1116
       DOS:  cpu time      0.0024: real time      0.0024
    --------------------------------------------
      LOOP:  cpu time      1.3922: real time      1.4120

 eigenvalue-minimisations  :  4996
 total energy-change (2. order) : 0.1504020E-07  (-0.5352778E-07)
 number of electron      28.0000001 magnetization       0.0002757
 augmentation part       -1.6516576 magnetization       0.0000027

 Free energy of the ion-electron system (eV)
  ---------------------------------------------------
  alpha Z        PSCENC =        10.25815623
  Ewald energy   TEWEN  =      -752.22079585
  -Hartree energ DENC   =       -64.04045283
  -exchange      EXHF   =         0.00000000
  -V(xc)+E(xc)   XCENC  =       -61.15347796
  PAW double counting   =      2361.32962986    -2240.80457232
  entropy T*S    EENTRO =        -0.00675833
  eigenvalues    EBANDS =        -8.40905174
  atomic energy  EATOM  =       718.02812073
  Solvation  Ediel_sol  =         0.00000000
  ---------------------------------------------------
  free energy    TOTEN  =       -37.01920222 eV

  energy without entropy =      -37.01244390  energy(sigma->0) =      -37.01582306


--------------------------------------------------------------------------------------------------------




 average (electrostatic) potential at core
  the test charge radii are     0.9892
  (the norm of the test charge is              1.0000)
       1 -84.7050       2 -84.4830       3 -84.7050       4 -84.4830       5 -84.7050
       6 -84.4830       7 -84.7050



 E-fermi :   4.7050     XC(G=0):  -9.0873     alpha+bet :-10.4411

 Fermi energy:         4.7050412160

 spin component 1

 k-point     1 :       0.0000    0.0000    0.0000
  band No.  band energies     occupation
      1      -6.8924      1.00000
      2      -3.2163      1.00000
      3      -3.2163      1.00000
      4      -2.8652      1.00000
      5      -2.8652      1.00000
      6      -2.8652      1.00000
      7       1.1480      1.00000
      8       1.7167      1.00000
      9       1.7167      1.00000
     10       1.7167      1.00000
     11       2.9824      1.00000
     12       2.9824      1.00000
     13       2.9824      1.00000
     14       5.5408      0.00000
     15       5.5408      0.00000
     16       5.5763      0.00000
     17       5.5763      0.00000
     18       5.5763      0.00000
     19       6.1822      0.00000
     20       6.1822      0.00000
     21       6.1822      0.00000
     22       6.3638      0.00000
     23       8.4670      0.00000
     24       8.4670      0.00000
     25       8.4670      0.00000
     26      10.0615      0.00000
     27      12.9744      0.00000
     28      12.9744      0.00000
     29      13.1094      0.00000
     30      14.5710      0.00000
     31      14.5710      0.00000
     32      14.5710      0.00000
     33      15.6906      0.00000
     34      15.6906      0.00000
     35      15.6906      0.00000
     36      15.7329      0.00000
     37      15.7329      0.00000
     38      15.7329      0.00000
     39      16.2876      0.00000
     40      16.2876      0.00000
     41      16.2876      0.00000
     42      17.0192      0.00000
     43      17.4645      0.00000
     44      17.4645      0.00000
     45      17.4896      0.00000
     46      17.4896      0.00000
     47      17.4896      0.00000
     48      18.0946      0.00000
     49      18.0946      0.00000
     50      18.0946      0.00000
     51      19.1304      0.00000
     52      19.1304      0.00000
     53      19.1906      0.00000
     54      20.3014      0.00000
     55      20.9005      0.00000
     56      20.9005      0.00000
     57      20.9005      0.00000
     58      23.6195      0.00000
     59      23.7058      0.00000
     60      23.7058      0.00000
     61      23.7058      0.00000
     62      24.3693      0.00000
     63      24.3693      0.00000
     64      24.3693      0.00000
     65      24.8114      0.00000
     66      24.8114      0.00000
     67      24.8114      0.00000
     68      24.9387      0.00000
     69      24.9387      0.00000
     70      24.9387      0.00000
     71      25.2051      0.00000
     72      25.2051      0.00000
     73      26.0944      0.00000
     74      26.0944      0.00000
     75      26.1726      0.00000
     76      26.1726      0.00000
     77      26.1726      0.00000
     78      27.0912      0.00000
     79      27.0912      0.00000
     80      27.0912      0.00000
     81      27.5184      0.00000
     82      28.5568      0.00000
     83      28.5568      0.00000
     84      28.5568      0.00000
     85      29.4137      0.00000
     86      29.4137      0.00000
     87      30.8531      0.00000
     88      31.7299      0.00000
     89      31.7299      0.00000
     90      31.7299      0.00000
     91      33.0211      0.00000
     92      33.0211      0.00000
     93      33.0921      0.00000
     94      33.0921      0.00000
     95      33.0921      0.00000
     96      33.9175      0.00000
     97      33.9175      0.00000
     98      33.9175      0.00000
     99      34.8523      0.00000
    100      34.8523      0.00000
    101      34.8523      0.00000
    102      37.6521      0.00000
    103      37.6521      0.00000
    104      37.6521      0.00000
    105      38.8643      0.00000
    106      38.8643      0.00000
    107      38.8643      0.00000
    108      39.0774      0.00000
    109      39.0774      0.00000
    110      39.0774      0.00000
    111      39.1957      0.00000
    112      39.1957      0.00000
    113      39.3207      0.00000
    114      40.1447      0.00000
    115      40.3605      0.00000
    116      40.3605      0.00000
    117      40.3605      0.00000
    118      40.8987      0.00000
    119      40.8987      0.00000
    120      40.8987      0.00000
    121      41.7456      0.00000
    122      41.7456      0.00000
    123      41.7456      0.00000
    124      42.2638      0.00000
    125      42.2638      0.00000
    126      42.5479      0.00000
    127      42.7871      0.00000
    128      42.8993      0.00000
    129      42.8993      0.00000
    130      43.2077      0.00000
    131      43.2077      0.00000
    132      43.2077      0.00000
    133      44.2663      0.00000
    134      44.2663      0.00000
    135      44.2663      0.00000
    136      44.8011      0.00000
    137      44.8014      0.00000
    138      45.1496      0.00000
    139      45.1496      0.00000
    140      45.1496      0.00000
    141      45.8855      0.00000
    142      45.8855      0.00000
    143      45.8856      0.00000
    144      46.2020      0.00000

 k-point     2 :       0.2500    0.0000    0.0000
  band No.  band energies     occupation
      1      -6.6463      1.00000
      2      -4.5604      1.00000
      3      -3.1431      1.00000
      4      -2.7978      1.00000
      5      -2.7978      1.00000
      6      -1.4922      1.00000
      7       1.2020      1.00000
      8       1.4772      1.00000
      9       1.4772      1.00000
     10       1.4922      1.00000
     11       2.2191      1.00000
     12       2.7817      1.00000
     13       2.7817      1.00000
     14       4.8574      0.00001
     15       5.2736      0.00000
     16       5.2736      0.00000
     17       5.6890      0.00000
     18       6.4112      0.00000
     19       6.7518      0.00000
     20       7.0537      0.00000
     21       7.0537      0.00000
     22       7.5674      0.00000
     23       8.0229      0.00000
     24       9.5340      0.00000
     25       9.5340      0.00000
     26      10.6808      0.00000
     27      11.9287      0.00000
     28      12.4045      0.00000
     29      12.5339      0.00000
     30      12.5339      0.00000
     31      13.3341      0.00000
     32      13.6641      0.00000
     33      14.2300      0.00000
     34      14.2708      0.00000
     35      14.2708      0.00000
     36      15.1492      0.00000
     37      15.8942      0.00000
     38      16.0176      0.00000
     39      16.0176      0.00000
     40      16.6765      0.00000
     41      16.7918      0.00000
     42      16.7918      0.00000
     43      17.0079      0.00000
     44      17.5441      0.00000
     45      17.6384      0.00000
     46      18.3588      0.00000
     47      18.3588      0.00000
     48      18.9687      0.00000
     49      18.9687      0.00000
     50      19.4256      0.00000
     51      19.8728      0.00000
     52      19.9833      0.00000
     53      20.6041      0.00000
     54      21.0617      0.00000
     55      21.4094      0.00000
     56      21.4094      0.00000
     57      21.6308      0.00000
     58      22.0108      0.00000
     59      22.1913      0.00000
     60      22.1913      0.00000
     61      22.9011      0.00000
     62      23.2720      0.00000
     63      23.2720      0.00000
     64      23.3806      0.00000
     65      23.8304      0.00000
     66      24.2463      0.00000
     67      24.2463      0.00000
     68      24.5809      0.00000
     69      24.7785      0.00000
     70      25.8622      0.00000
     71      25.8622      0.00000
     72      26.3612      0.00000
     73      26.8188      0.00000
     74      26.9551      0.00000
     75      26.9551      0.00000
     76      27.4832      0.00000
     77      28.1301      0.00000
     78      28.2506      0.00000
     79      28.3378      0.00000
     80      28.5161      0.00000
     81      28.5803      0.00000
     82      28.5803      0.00000
     83      29.3205      0.00000
     84      29.4277      0.00000
     85      29.4277      0.00000
     86      29.9547      0.00000
     87      30.1397      0.00000
     88      30.7496      0.00000
     89      31.0412      0.00000
     90      31.0412      0.00000
     91      31.4989      0.00000
     92      32.8387      0.00000
     93      32.8387      0.00000
     94      32.8951      0.00000
     95      33.8425      0.00000
     96      34.5863      0.00000
     97      34.5863      0.00000
     98      34.7501      0.00000
     99      35.1845      0.00000
    100      36.1052      0.00000
    101      36.1052      0.00000
    102      36.3488      0.00000
    103      36.3488      0.00000
    104      36.7301      0.00000
    105      36.8375      0.00000
    106      36.9281      0.00000
    107      37.5809      0.00000
    108      37.5809      0.00000
    109      37.6448      0.00000
    110      38.2161      0.00000
    111      38.2161      0.00000
    112      38.2892      0.00000
    113      38.6721      0.00000
    114      39.7341      0.00000
    115      39.7341      0.00000
    116      39.9518      0.00000
    117      40.4367      0.00000
    118      40.5444      0.00000
    119      40.5444      0.00000
    120      40.6968      0.00000
    121      40.9621      0.00000
    122      41.2589      0.00000
    123      41.8118      0.00000
    124      42.0987      0.00000
    125      42.3731      0.00000
    126      42.3731      0.00000
    127      42.8386      0.00000
    128      43.3264      0.00000
    129      43.3480      0.00000
    130      43.3480      0.00000
    131      44.0763      0.00000
    132      44.1095      0.00000
    133      44.5163      0.00000
    134      44.6848      0.00000
    135      44.6848      0.00000
    136      44.8827      0.00000
    137      45.0458      0.00000
    138      45.0458      0.00000
    139      45.2548      0.00000
    140      45.3759      0.00000
    141      45.6296      0.00000
    142      45.6296      0.00000
    143      45.9946      0.00000
    144      45.9948      0.00000

 k-point     3 :       0.5000    0.0000    0.0000
  band No.  band energies     occupation
      1      -6.1402      1.00000
      2      -5.5120      1.00000
      3      -3.0630      1.00000
      4      -2.7248      1.00000
      5      -2.7248      1.00000
      6      -0.5863      1.00000
      7       0.7940      1.00000
      8       1.0227      1.00000
      9       1.1855      1.00000
     10       1.1855      1.00000
     11       2.8179      1.00000
     12       2.8179      1.00000
     13       2.8951      1.00000
     14       3.4366      1.00000
     15       4.7646      0.04599
     16       4.7646      0.04599
     17       6.1586      0.00000
     18       6.4032      0.00000
     19       8.2146      0.00000
     20       8.7241      0.00000
     21       9.1434      0.00000
     22       9.2142      0.00000
     23       9.2142      0.00000
     24       9.5348      0.00000
     25       9.8665      0.00000
     26       9.8665      0.00000
     27      10.5092      0.00000
     28      10.7525      0.00000
     29      11.0020      0.00000
     30      11.0020      0.00000
     31      12.7736      0.00000
     32      12.7736      0.00000
     33      13.5688      0.00000
     34      13.7012      0.00000
     35      14.8636      0.00000
     36      14.9454      0.00000
     37      15.1607      0.00000
     38      16.0200      0.00000
     39      16.0200      0.00000
     40      16.2646      0.00000
     41      16.5503      0.00000
     42      17.5746      0.00000
     43      17.6095      0.00000
     44      17.6095      0.00000
     45      18.1620      0.00000
     46      18.4047      0.00000
     47      18.4820      0.00000
     48      18.4820      0.00000
     49      19.1710      0.00000
     50      19.3239      0.00000
     51      19.3239      0.00000
     52      20.3411      0.00000
     53      21.3170      0.00000
     54      21.3427      0.00000
     55      21.3427      0.00000
     56      21.6197      0.00000
     57      22.5958      0.00000
     58      22.5958      0.00000
     59      22.7178      0.00000
     60      22.7178      0.00000
     61      23.1314      0.00000
     62      23.1522      0.00000
     63      23.4277      0.00000
     64      23.4935      0.00000
     65      23.4935      0.00000
     66      23.9782      0.00000
     67      24.1387      0.00000
     68      24.2275      0.00000
     69      24.8150      0.00000
     70      25.7738      0.00000
     71      26.0210      0.00000
     72      26.0210      0.00000
     73      26.4345      0.00000
     74      26.6085      0.00000
     75      26.6085      0.00000
     76      26.9160      0.00000
     77      26.9486      0.00000
     78      27.7178      0.00000
     79      28.6881      0.00000
     80      29.5998      0.00000
     81      29.7116      0.00000
     82      29.7116      0.00000
     83      29.9739      0.00000
     84      31.3655      0.00000
     85      31.7721      0.00000
     86      31.7721      0.00000
     87      31.9019      0.00000
     88      32.0262      0.00000
     89      32.0908      0.00000
     90      32.3174      0.00000
     91      32.3174      0.00000
     92      32.3769      0.00000
     93      32.4970      0.00000
     94      32.4970      0.00000
     95      33.5560      0.00000
     96      33.8207      0.00000
     97      33.8207      0.00000
     98      34.0691      0.00000
     99      34.3711      0.00000
    100      34.5004      0.00000
    101      34.7988      0.00000
    102      34.8765      0.00000
    103      34.8765      0.00000
    104      35.2745      0.00000
    105      35.2745      0.00000
    106      35.8246      0.00000
    107      35.8783      0.00000
    108      35.8783      0.00000
    109      36.5462      0.00000
    110      37.8558      0.00000
    111      38.3196      0.00000
    112      38.6908      0.00000
    113      38.6908      0.00000
    114      39.7868      0.00000
    115      39.7936      0.00000
    116      40.0883      0.00000
    117      40.3982      0.00000
    118      40.3982      0.00000
    119      40.4213      0.00000
    120      41.3743      0.00000
    121      41.6102      0.00000
    122      41.6102      0.00000
    123      41.6509      0.00000
    124      41.9774      0.00000
    125      41.9774      0.00000
    126      42.3900      0.00000
    127      42.4243      0.00000
    128      42.4243      0.00000
    129      42.5380      0.00000
    130      42.6942      0.00000
    131      43.1577      0.00000
    132      43.1577      0.00000
    133      44.2856      0.00000
    134      44.8496      0.00000
    135      44.8496      0.00000
    136      45.0649      0.00000
    137      45.3316      0.00000
    138      45.3577      0.00000
    139      45.4047      0.00000
    140      45.4049      0.00000
    141      45.6145      0.00000
    142      46.0188      0.00000
    143      46.4202      0.00000
    144      46.5189      0.00000

 k-point     4 :       0.2500    0.2500    0.0000
  band No.  band energies     occupation
      1      -6.4047      1.00000
      2      -4.6195      1.00000
      3      -4.1359      1.00000
      4      -2.8959      1.00000
      5      -1.9724      1.00000
      6      -1.1122      1.00000
      7       0.5316      1.00000
      8       1.3095      1.00000
      9       1.4713      1.00000
     10       1.8906      1.00000
     11       1.9005      1.00000
     12       2.8441      1.00000
     13       2.9867      1.00000
     14       3.8908      1.00000
     15       4.6820      0.74237
     16       5.7535      0.00000
     17       6.2057      0.00000
     18       6.7976      0.00000
     19       7.2173      0.00000
     20       7.4826      0.00000
     21       7.6450      0.00000
     22       9.0144      0.00000
     23       9.0403      0.00000
     24       9.2812      0.00000
     25       9.4065      0.00000
     26      10.3678      0.00000
     27      11.4692      0.00000
     28      11.5321      0.00000
     29      11.9130      0.00000
     30      12.4390      0.00000
     31      12.6770      0.00000
     32      13.2263      0.00000
     33      13.3452      0.00000
     34      13.9572      0.00000
     35      14.1043      0.00000
     36      14.7495      0.00000
     37      15.0362      0.00000
     38      15.6035      0.00000
     39      15.7666      0.00000
     40      16.0637      0.00000
     41      16.3289      0.00000
     42      16.7050      0.00000
     43      17.4532      0.00000
     44      18.1622      0.00000
     45      18.5873      0.00000
     46      18.5985      0.00000
     47      19.0169      0.00000
     48      19.2302      0.00000
     49      19.4990      0.00000
     50      19.5840      0.00000
     51      19.6746      0.00000
     52      19.9292      0.00000
     53      20.3983      0.00000
     54      20.6201      0.00000
     55      21.0844      0.00000
     56      21.2479      0.00000
     57      21.3648      0.00000
     58      22.2559      0.00000
     59      22.3481      0.00000
     60      22.6239      0.00000
     61      22.9609      0.00000
     62      23.0658      0.00000
     63      23.2287      0.00000
     64      23.8253      0.00000
     65      24.4515      0.00000
     66      24.6778      0.00000
     67      24.8568      0.00000
     68      25.0702      0.00000
     69      25.9939      0.00000
     70      26.1034      0.00000
     71      26.2427      0.00000
     72      26.3094      0.00000
     73      26.4240      0.00000
     74      26.9624      0.00000
     75      26.9848      0.00000
     76      27.1867      0.00000
     77      27.3773      0.00000
     78      27.7697      0.00000
     79      28.2929      0.00000
     80      28.5559      0.00000
     81      28.6380      0.00000
     82      29.0287      0.00000
     83      29.2952      0.00000
     84      29.9226      0.00000
     85      30.2745      0.00000
     86      30.4761      0.00000
     87      30.8543      0.00000
     88      31.0611      0.00000
     89      31.9167      0.00000
     90      32.1515      0.00000
     91      32.5633      0.00000
     92      32.6921      0.00000
     93      32.9914      0.00000
     94      33.3136      0.00000
     95      33.3339      0.00000
     96      33.5671      0.00000
     97      34.1927      0.00000
     98      34.5679      0.00000
     99      34.6940      0.00000
    100      35.0425      0.00000
    101      35.5507      0.00000
    102      35.5977      0.00000
    103      36.0966      0.00000
    104      36.2883      0.00000
    105      36.9260      0.00000
    106      37.1332      0.00000
    107      37.3302      0.00000
    108      37.6024      0.00000
    109      37.7048      0.00000
    110      37.7442      0.00000
    111      37.9048      0.00000
    112      38.3438      0.00000
    113      38.5351      0.00000
    114      38.7794      0.00000
    115      38.8802      0.00000
    116      39.2132      0.00000
    117      39.4534      0.00000
    118      39.5545      0.00000
    119      40.0688      0.00000
    120      40.1372      0.00000
    121      40.4211      0.00000
    122      40.8823      0.00000
    123      41.4957      0.00000
    124      41.9306      0.00000
    125      42.0260      0.00000
    126      42.2708      0.00000
    127      42.4040      0.00000
    128      43.0002      0.00000
    129      43.0160      0.00000
    130      43.3206      0.00000
    131      43.3824      0.00000
    132      43.4492      0.00000
    133      44.1151      0.00000
    134      44.3199      0.00000
    135      44.5803      0.00000
    136      44.7599      0.00000
    137      44.8249      0.00000
    138      44.9565      0.00000
    139      45.3374      0.00000
    140      45.7460      0.00000
    141      45.7978      0.00000
    142      46.1075      0.00000
    143      46.2805      0.00000
    144      46.4743      0.00000

 k-point     5 :       0.5000    0.2500    0.0000
  band No.  band energies     occupation
      1      -5.8976      1.00000
      2      -5.3636      1.00000
      3      -4.1350      1.00000
      4      -3.0567      1.00000
      5      -1.6954      1.00000
      6      -0.6647      1.00000
      7       0.4342      1.00000
      8       0.6226      1.00000
      9       1.4174      1.00000
     10       1.8269      1.00000
     11       2.4321      1.00000
     12       2.6371      1.00000
     13       3.0156      1.00000
     14       3.3582      1.00000
     15       4.8845      0.00000
     16       4.8865      0.00000
     17       7.4029      0.00000
     18       7.6116      0.00000
     19       7.7735      0.00000
     20       7.9155      0.00000
     21       8.9993      0.00000
     22       9.3630      0.00000
     23       9.3763      0.00000
     24       9.7588      0.00000
     25       9.8120      0.00000
     26       9.9080      0.00000
     27      10.3160      0.00000
     28      10.6287      0.00000
     29      11.3668      0.00000
     30      12.0169      0.00000
     31      12.3587      0.00000
     32      12.4663      0.00000
     33      12.8680      0.00000
     34      12.9672      0.00000
     35      13.6691      0.00000
     36      14.1490      0.00000
     37      14.9387      0.00000
     38      15.2570      0.00000
     39      16.0471      0.00000
     40      16.2320      0.00000
     41      16.7634      0.00000
     42      16.8379      0.00000
     43      17.0623      0.00000
     44      17.5606      0.00000
     45      18.7016      0.00000
     46      19.0028      0.00000
     47      19.0464      0.00000
     48      19.2531      0.00000
     49      19.6202      0.00000
     50      19.6658      0.00000
     51      19.7471      0.00000
     52      20.1938      0.00000
     53      20.2966      0.00000
     54      20.2971      0.00000
     55      21.0413      0.00000
     56      21.3387      0.00000
     57      21.9341      0.00000
     58      21.9596      0.00000
     59      22.1818      0.00000
     60      22.9491      0.00000
     61      23.2078      0.00000
     62      23.7588      0.00000
     63      23.8632      0.00000
     64      23.9959      0.00000
     65      24.4102      0.00000
     66      24.4525      0.00000
     67      25.3457      0.00000
     68      25.4077      0.00000
     69      25.5351      0.00000
     70      25.9663      0.00000
     71      26.2354      0.00000
     72      26.4662      0.00000
     73      26.9176      0.00000
     74      27.1605      0.00000
     75      27.3779      0.00000
     76      27.3958      0.00000
     77      27.8458      0.00000
     78      28.2501      0.00000
     79      28.4895      0.00000
     80      28.9645      0.00000
     81      29.1107      0.00000
     82      29.5455      0.00000
     83      29.5938      0.00000
     84      30.0074      0.00000
     85      30.7635      0.00000
     86      30.7808      0.00000
     87      31.3944      0.00000
     88      31.8232      0.00000
     89      32.0360      0.00000
     90      32.1364      0.00000
     91      32.4384      0.00000
     92      32.6714      0.00000
     93      32.6799      0.00000
     94      33.3283      0.00000
     95      33.3738      0.00000
     96      33.7263      0.00000
     97      33.8393      0.00000
     98      34.1414      0.00000
     99      34.4794      0.00000
    100      34.6720      0.00000
    101      35.0224      0.00000
    102      35.0667      0.00000
    103      35.5754      0.00000
    104      36.1673      0.00000
    105      36.1832      0.00000
    106      36.2136      0.00000
    107      36.4583      0.00000
    108      36.9587      0.00000
    109      37.1733      0.00000
    110      37.2646      0.00000
    111      37.3791      0.00000
    112      38.0924      0.00000
    113      38.0990      0.00000
    114      38.3064      0.00000
    115      38.7022      0.00000
    116      38.9671      0.00000
    117      39.2615      0.00000
    118      39.4539      0.00000
    119      40.2482      0.00000
    120      40.4487      0.00000
    121      40.6802      0.00000
    122      40.7907      0.00000
    123      41.2462      0.00000
    124      41.4310      0.00000
    125      41.7888      0.00000
    126      41.9942      0.00000
    127      42.1875      0.00000
    128      42.3836      0.00000
    129      42.5976      0.00000
    130      42.8953      0.00000
    131      43.2301      0.00000
    132      43.5614      0.00000
    133      43.9373      0.00000
    134      44.1367      0.00000
    135      44.2724      0.00000
    136      44.6881      0.00000
    137      44.9550      0.00000
    138      45.2210      0.00000
    139      45.3365      0.00000
    140      45.3642      0.00000
    141      45.7843      0.00000
    142      45.9264      0.00000
    143      46.2406      0.00000
    144      46.6411      0.00000

 k-point     6 :       0.5000    0.5000    0.0000
  band No.  band energies     occupation
      1      -5.2219      1.00000
      2      -5.1699      1.00000
      3      -5.1699      1.00000
      4      -3.4368      1.00000
      5      -0.6082      1.00000
      6      -0.6082      1.00000
      7      -0.4898      1.00000
      8       0.7831      1.00000
      9       1.2293      1.00000
     10       1.2293      1.00000
     11       2.5858      1.00000
     12       2.9325      1.00000
     13       3.3081      1.00000
     14       3.3658      1.00000
     15       5.3754      0.00000
     16       5.3754      0.00000
     17       7.0493      0.00000
     18       7.0493      0.00000
     19       8.3972      0.00000
     20       8.3986      0.00000
     21       9.3611      0.00000
     22       9.5346      0.00000
     23       9.8458      0.00000
     24       9.8458      0.00000
     25      10.0361      0.00000
     26      10.2354      0.00000
     27      10.2354      0.00000
     28      10.6746      0.00000
     29      11.0279      0.00000
     30      11.8203      0.00000
     31      11.8203      0.00000
     32      12.4363      0.00000
     33      12.6032      0.00000
     34      12.6032      0.00000
     35      12.6380      0.00000
     36      12.9287      0.00000
     37      14.5801      0.00000
     38      15.4405      0.00000
     39      15.4405      0.00000
     40      15.6350      0.00000
     41      17.4886      0.00000
     42      17.5224      0.00000
     43      17.5224      0.00000
     44      18.1823      0.00000
     45      18.1823      0.00000
     46      18.2631      0.00000
     47      18.4508      0.00000
     48      18.8115      0.00000
     49      19.0444      0.00000
     50      19.0617      0.00000
     51      19.0617      0.00000
     52      20.4645      0.00000
     53      21.3387      0.00000
     54      21.7367      0.00000
     55      21.7367      0.00000
     56      21.7790      0.00000
     57      21.8531      0.00000
     58      21.8531      0.00000
     59      21.9347      0.00000
     60      22.5537      0.00000
     61      23.0068      0.00000
     62      23.3322      0.00000
     63      23.5908      0.00000
     64      23.5908      0.00000
     65      24.3630      0.00000
     66      25.1942      0.00000
     67      26.3547      0.00000
     68      26.3547      0.00000
     69      26.5583      0.00000
     70      26.5583      0.00000
     71      26.8001      0.00000
     72      26.8036      0.00000
     73      26.8036      0.00000
     74      27.5043      0.00000
     75      27.5740      0.00000
     76      27.6477      0.00000
     77      28.8096      0.00000
     78      28.8968      0.00000
     79      28.8968      0.00000
     80      29.4950      0.00000
     81      29.6359      0.00000
     82      29.7597      0.00000
     83      29.7597      0.00000
     84      31.0400      0.00000
     85      31.1405      0.00000
     86      31.2511      0.00000
     87      31.2511      0.00000
     88      31.2684      0.00000
     89      31.2945      0.00000
     90      31.6086      0.00000
     91      31.9738      0.00000
     92      31.9738      0.00000
     93      32.6771      0.00000
     94      32.6771      0.00000
     95      32.8103      0.00000
     96      32.8103      0.00000
     97      32.8371      0.00000
     98      33.3896      0.00000
     99      33.7665      0.00000
    100      34.1310      0.00000
    101      34.1385      0.00000
    102      34.5259      0.00000
    103      35.4023      0.00000
    104      35.5065      0.00000
    105      35.5065      0.00000
    106      36.2528      0.00000
    107      36.6170      0.00000
    108      36.6170      0.00000
    109      37.1027      0.00000
    110      37.1027      0.00000
    111      37.6374      0.00000
    112      38.3078      0.00000
    113      39.0198      0.00000
    114      39.0198      0.00000
    115      39.0396      0.00000
    116      39.7673      0.00000
    117      40.3431      0.00000
    118      40.7302      0.00000
    119      40.8822      0.00000
    120      40.8822      0.00000
    121      40.9115      0.00000
    122      41.5509      0.00000
    123      41.8590      0.00000
    124      41.8918      0.00000
    125      41.8918      0.00000
    126      42.2378      0.00000
    127      42.5527      0.00000
    128      42.7096      0.00000
    129      42.7352      0.00000
    130      42.7352      0.00000
    131      42.7982      0.00000
    132      42.7982      0.00000
    133      42.9119      0.00000
    134      43.0195      0.00000
    135      43.0195      0.00000
    136      43.3790      0.00000
    137      43.6216      0.00000
    138      43.8308      0.00000
    139      43.8308      0.00000
    140      44.2636      0.00000
    141      44.2636      0.00000
    142      44.5760      0.00000
    143      44.7901      0.00000
    144      45.0838      0.00000

 k-point     7 :       0.2500    0.2500    0.2500
  band No.  band energies     occupation
      1      -6.1714      1.00000
      2      -4.5139      1.00000
      3      -4.5139      1.00000
      4      -3.2168      1.00000
      5      -1.4624      1.00000
      6      -1.4624      1.00000
      7       0.1464      1.00000
      8       1.2143      1.00000
      9       1.2143      1.00000
     10       2.1846      1.00000
     11       2.3601      1.00000
     12       3.1530      1.00000
     13       3.1530      1.00000
     14       3.5166      1.00000
     15       5.4885      0.00000
     16       5.4885      0.00000
     17       6.4553      0.00000
     18       6.4553      0.00000
     19       6.4595      0.00000
     20       8.4902      0.00000
     21       8.7370      0.00000
     22       8.7370      0.00000
     23       9.6882      0.00000
     24       9.6882      0.00000
     25      10.0082      0.00000
     26      10.3729      0.00000
     27      10.3729      0.00000
     28      10.4689      0.00000
     29      11.7763      0.00000
     30      11.7763      0.00000
     31      12.4277      0.00000
     32      12.8975      0.00000
     33      12.8975      0.00000
     34      13.9005      0.00000
     35      14.0439      0.00000
     36      15.2592      0.00000
     37      15.3394      0.00000
     38      15.3394      0.00000
     39      15.7868      0.00000
     40      16.0362      0.00000
     41      16.0362      0.00000
     42      16.9171      0.00000
     43      17.2999      0.00000
     44      17.5041      0.00000
     45      17.5041      0.00000
     46      17.7964      0.00000
     47      18.4430      0.00000
     48      18.4430      0.00000
     49      19.4233      0.00000
     50      19.4233      0.00000
     51      19.4426      0.00000
     52      20.1986      0.00000
     53      20.1986      0.00000
     54      22.0308      0.00000
     55      22.0308      0.00000
     56      22.2809      0.00000
     57      22.3477      0.00000
     58      22.8677      0.00000
     59      22.8677      0.00000
     60      23.1715      0.00000
     61      23.1715      0.00000
     62      23.1848      0.00000
     63      24.0264      0.00000
     64      24.0264      0.00000
     65      24.0781      0.00000
     66      24.3945      0.00000
     67      24.6062      0.00000
     68      24.6062      0.00000
     69      24.8077      0.00000
     70      25.8237      0.00000
     71      25.8237      0.00000
     72      26.2880      0.00000
     73      26.5832      0.00000
     74      26.6451      0.00000
     75      26.6451      0.00000
     76      27.7695      0.00000
     77      27.7695      0.00000
     78      28.7614      0.00000
     79      28.9237      0.00000
     80      28.9237      0.00000
     81      29.6385      0.00000
     82      29.8552      0.00000
     83      29.8552      0.00000
     84      29.9953      0.00000
     85      30.3826      0.00000
     86      30.3826      0.00000
     87      31.3105      0.00000
     88      32.2716      0.00000
     89      32.2716      0.00000
     90      32.5235      0.00000
     91      32.9756      0.00000
     92      32.9756      0.00000
     93      33.3215      0.00000
     94      33.5936      0.00000
     95      33.5936      0.00000
     96      33.6018      0.00000
     97      34.1415      0.00000
     98      34.1415      0.00000
     99      34.1430      0.00000
    100      34.6392      0.00000
    101      34.9124      0.00000
    102      34.9124      0.00000
    103      35.5814      0.00000
    104      35.8214      0.00000
    105      35.8214      0.00000
    106      36.1333      0.00000
    107      36.4358      0.00000
    108      36.4358      0.00000
    109      37.0160      0.00000
    110      37.3984      0.00000
    111      37.3984      0.00000
    112      37.7789      0.00000
    113      37.7789      0.00000
    114      38.9240      0.00000
    115      39.2466      0.00000
    116      39.2466      0.00000
    117      39.2939      0.00000
    118      39.8123      0.00000
    119      39.8123      0.00000
    120      40.5132      0.00000
    121      40.5132      0.00000
    122      41.0810      0.00000
    123      41.1021      0.00000
    124      41.1021      0.00000
    125      41.6359      0.00000
    126      41.9134      0.00000
    127      41.9134      0.00000
    128      42.1263      0.00000
    129      42.8203      0.00000
[...]
     37      14.1655      0.00000
     38      14.8591      0.00000
     39      14.8591      0.00000
     40      15.3141      0.00000
     41      16.2110      0.00000
     42      16.2110      0.00000
     43      16.2785      0.00000
     44      16.8561      0.00000
     45      18.0652      0.00000
     46      18.0652      0.00000
     47      18.1717      0.00000
     48      18.8328      0.00000
     49      19.0426      0.00000
     50      19.2947      0.00000
     51      19.2947      0.00000
     52      19.4902      0.00000
     53      20.0034      0.00000
     54      21.5205      0.00000
     55      21.5205      0.00000
     56      21.9388      0.00000
     57      22.3320      0.00000
     58      22.5898      0.00000
     59      22.6375      0.00000
     60      22.6375      0.00000
     61      23.6622      0.00000
     62      23.6622      0.00000
     63      23.7427      0.00000
     64      24.9856      0.00000
     65      25.2319      0.00000
     66      25.9370      0.00000
     67      25.9370      0.00000
     68      26.1509      0.00000
     69      26.9915      0.00000
     70      26.9915      0.00000
     71      27.1770      0.00000
     72      27.1914      0.00000
     73      27.3289      0.00000
     74      27.4868      0.00000
     75      27.4868      0.00000
     76      28.5241      0.00000
     77      28.7718      0.00000
     78      28.7718      0.00000
     79      29.2585      0.00000
     80      29.2784      0.00000
     81      29.4581      0.00000
     82      30.3739      0.00000
     83      30.3739      0.00000
     84      30.4002      0.00000
     85      30.4417      0.00000
     86      30.7105      0.00000
     87      30.7105      0.00000
     88      31.5704      0.00000
     89      31.9702      0.00000
     90      31.9702      0.00000
     91      32.0839      0.00000
     92      32.4358      0.00000
     93      32.6519      0.00000
     94      32.9903      0.00000
     95      32.9903      0.00000
     96      33.5905      0.00000
     97      33.5905      0.00000
     98      33.7187      0.00000
     99      33.8009      0.00000
    100      34.1353      0.00000
    101      35.0012      0.00000
    102      35.1864      0.00000
    103      35.1864      0.00000
    104      35.3200      0.00000
    105      35.6334      0.00000
    106      36.1223      0.00000
    107      36.2722      0.00000
    108      36.2722      0.00000
    109      36.8862      0.00000
    110      37.5045      0.00000
    111      37.5045      0.00000
    112      37.5048      0.00000
    113      37.9616      0.00000
    114      38.1155      0.00000
    115      38.1155      0.00000
    116      38.1887      0.00000
    117      39.0396      0.00000
    118      39.2066      0.00000
    119      39.2066      0.00000
    120      39.2109      0.00000
    121      39.5882      0.00000
    122      39.8538      0.00000
    123      39.8538      0.00000
    124      40.7965      0.00000
    125      41.0584      0.00000
    126      41.7891      0.00000
    127      41.7891      0.00000
    128      41.8011      0.00000
    129      42.1974      0.00000
    130      42.7689      0.00000
    131      42.8966      0.00000
    132      42.9848      0.00000
    133      42.9848      0.00000
    134      43.5295      0.00000
    135      44.1363      0.00000
    136      44.1363      0.00000
    137      44.3309      0.00000
    138      44.9712      0.00000
    139      44.9712      0.00000
    140      45.5230      0.00000
    141      45.5588      0.00000
    142      45.7623      0.00000
    143      45.7624      0.00000
    144      46.1708      0.00000

 k-point    10 :       0.5000    0.5000    0.5000
  band No.  band energies     occupation
      1      -4.9333      1.00000
      2      -4.9333      1.00000
      3      -4.9333      1.00000
      4      -3.3891      1.00000
      5      -1.9396      1.00000
      6      -1.9396      1.00000
      7      -1.9396      1.00000
      8       0.6134      1.00000
      9       3.3580      1.00000
     10       3.3580      1.00000
     11       3.3580      1.00000
     12       3.5367      1.00000
     13       3.5367      1.00000
     14       5.8949      0.00000
     15       5.8949      0.00000
     16       5.8949      0.00000
     17       6.2973      0.00000
     18       6.2973      0.00000
     19       6.2973      0.00000
     20       7.9073      0.00000
     21       7.9073      0.00000
     22       7.9073      0.00000
     23       8.6062      0.00000
     24       8.6062      0.00000
     25       9.6316      0.00000
     26       9.6990      0.00000
     27       9.6990      0.00000
     28       9.6990      0.00000
     29      12.6487      0.00000
     30      12.7991      0.00000
     31      12.7991      0.00000
     32      12.7991      0.00000
     33      15.2730      0.00000
     34      15.2730      0.00000
     35      15.2730      0.00000
     36      15.3751      0.00000
     37      15.3751      0.00000
     38      15.7006      0.00000
     39      15.7006      0.00000
     40      15.7006      0.00000
     41      16.0960      0.00000
     42      16.0960      0.00000
     43      16.0960      0.00000
     44      16.7224      0.00000
     45      16.8398      0.00000
     46      16.8398      0.00000
     47      16.8398      0.00000
     48      17.4022      0.00000
     49      17.4022      0.00000
     50      17.4022      0.00000
     51      17.6396      0.00000
     52      17.6396      0.00000
     53      18.8604      0.00000
     54      21.1696      0.00000
     55      21.1696      0.00000
     56      21.1696      0.00000
     57      24.5912      0.00000
     58      24.5912      0.00000
     59      24.5912      0.00000
     60      24.6441      0.00000
     61      25.0951      0.00000
     62      25.0951      0.00000
     63      25.0951      0.00000
     64      25.6839      0.00000
     65      26.1854      0.00000
     66      26.1854      0.00000
     67      26.1854      0.00000
     68      26.4211      0.00000
     69      26.4211      0.00000
     70      26.4211      0.00000
     71      26.4634      0.00000
     72      26.4634      0.00000
     73      26.7413      0.00000
     74      26.7413      0.00000
     75      26.7413      0.00000
     76      28.3738      0.00000
     77      28.3738      0.00000
     78      28.3738      0.00000
     79      29.5203      0.00000
     80      29.5203      0.00000
     81      30.3554      0.00000
     82      31.2412      0.00000
     83      31.2412      0.00000
     84      31.2412      0.00000
     85      31.2941      0.00000
     86      31.2941      0.00000
     87      31.2941      0.00000
     88      31.9082      0.00000
     89      31.9082      0.00000
     90      31.9974      0.00000
     91      31.9974      0.00000
     92      31.9974      0.00000
     93      32.4277      0.00000
     94      32.4277      0.00000
     95      32.4277      0.00000
     96      32.9159      0.00000
     97      32.9159      0.00000
     98      32.9159      0.00000
     99      33.8428      0.00000
    100      33.8903      0.00000
    101      33.8903      0.00000
    102      35.6037      0.00000
    103      36.1710      0.00000
    104      36.1710      0.00000
    105      36.1710      0.00000
    106      36.3392      0.00000
    107      36.3392      0.00000
    108      36.3392      0.00000
    109      36.9577      0.00000
    110      36.9577      0.00000
    111      36.9577      0.00000
    112      37.5287      0.00000
    113      37.5287      0.00000
    114      37.9492      0.00000
    115      37.9492      0.00000
    116      37.9492      0.00000
    117      38.1398      0.00000
    118      38.3363      0.00000
    119      38.3363      0.00000
    120      38.3363      0.00000
    121      39.8384      0.00000
    122      39.8384      0.00000
    123      39.8384      0.00000
    124      40.5922      0.00000
    125      40.5922      0.00000
    126      40.8429      0.00000
    127      41.4780      0.00000
    128      41.7400      0.00000
    129      41.7400      0.00000
    130      41.7400      0.00000
    131      41.8552      0.00000
    132      41.8552      0.00000
    133      41.8552      0.00000
    134      42.5136      0.00000
    135      42.5136      0.00000
    136      42.5136      0.00000
    137      45.5121      0.00000
    138      45.5121      0.00000
    139      45.7089      0.00000
    140      45.7089      0.00000
    141      45.7089      0.00000
    142      47.1154      0.00000
    143      47.1155      0.00000
    144      47.1158      0.00000


--------------------------------------------------------------------------------------------------------


 soft charge-density along one line, spin component           1
         0         1         2         3         4         5         6         7         8         9
 total charge-density along one line

 soft charge-density along one line, spin component           2
         0         1         2         3         4         5         6         7         8         9
 total charge-density along one line

 pseudopotential strength for first ion, spin component:           1
 18.575  25.916  -0.002   0.002   0.002  -0.004   0.004   0.004
 25.916  36.162  -0.003   0.003   0.003  -0.005   0.005   0.005
 -0.002  -0.003   4.196  -0.001  -0.001   7.819  -0.002  -0.002
  0.002   0.003  -0.001   4.196   0.001  -0.002   7.819   0.002
  0.002   0.003  -0.001   0.001   4.196  -0.002   0.002   7.819
 -0.004  -0.005   7.819  -0.002  -0.002  14.581  -0.003  -0.003
  0.004   0.005  -0.002   7.819   0.002  -0.003  14.581   0.003
  0.004   0.005  -0.002   0.002   7.819  -0.003   0.003  14.581
 pseudopotential strength for first ion, spin component:           2
 18.575  25.916  -0.002   0.002   0.002  -0.004   0.004   0.004
 25.916  36.162  -0.003   0.003   0.003  -0.005   0.005   0.005
 -0.002  -0.003   4.196  -0.001  -0.001   7.819  -0.002  -0.002
  0.002   0.003  -0.001   4.196   0.001  -0.002   7.819   0.002
  0.002   0.003  -0.001   0.001   4.196  -0.002   0.002   7.819
 -0.004  -0.005   7.819  -0.002  -0.002  14.581  -0.003  -0.003
  0.004   0.005  -0.002   7.819   0.002  -0.003  14.581   0.003
  0.004   0.005  -0.002   0.002   7.819  -0.003   0.003  14.581
 total augmentation occupancy for first ion, spin component:           1
  4.743  -1.653   0.504  -0.504  -0.504  -0.157   0.157   0.157
 -1.653   0.776  -0.323   0.323   0.323   0.077  -0.077  -0.077
  0.504  -0.323   2.254   0.357   0.357  -0.463  -0.095  -0.095
 -0.504   0.323   0.357   2.254  -0.357  -0.095  -0.463   0.095
 -0.504   0.323   0.357  -0.357   2.254  -0.095   0.095  -0.463
 -0.157   0.077  -0.463  -0.095  -0.095   0.104   0.024   0.024
  0.157  -0.077  -0.095  -0.463   0.095   0.024   0.104  -0.024
  0.157  -0.077  -0.095   0.095  -0.463   0.024  -0.024   0.104
 total augmentation occupancy for first ion, spin component:           2
 -0.000   0.000  -0.000   0.000   0.000   0.000  -0.000  -0.000
  0.000  -0.000   0.000  -0.000  -0.000  -0.000   0.000   0.000
 -0.000   0.000   0.000  -0.000  -0.000  -0.000   0.000   0.000
  0.000  -0.000  -0.000   0.000   0.000   0.000  -0.000  -0.000
  0.000  -0.000  -0.000   0.000   0.000   0.000  -0.000  -0.000
  0.000  -0.000  -0.000   0.000   0.000  -0.000   0.000   0.000
 -0.000   0.000   0.000  -0.000  -0.000   0.000  -0.000  -0.000
 -0.000   0.000   0.000  -0.000  -0.000   0.000  -0.000  -0.000


------------------------ aborting loop because EDIFF is reached ----------------------------------------





 total charge

# of ion       s       p       d       tot
------------------------------------------
    1        0.807   0.800   0.000   1.607
    2        0.760   0.896   0.000   1.656
    3        0.807   0.800   0.000   1.607
    4        0.760   0.896   0.000   1.656
    5        0.807   0.800   0.000   1.607
    6        0.760   0.896   0.000   1.656
    7        0.807   0.800   0.000   1.607
--------------------------------------------------
tot          5.508   5.887   0.000  11.395



 magnetization (x)

# of ion       s       p       d       tot
------------------------------------------
    1        0.000   0.000   0.000   0.000
    2        0.000   0.000   0.000   0.000
    3        0.000   0.000   0.000   0.000
    4        0.000   0.000   0.000   0.000
    5        0.000   0.000   0.000   0.000
    6        0.000   0.000   0.000   0.000
    7        0.000   0.000   0.000   0.000
--------------------------------------------------
tot          0.000   0.000   0.000   0.000

    CHARGE:  cpu time      0.0372: real time      0.0372
    FORLOC:  cpu time      0.0002: real time      0.0002
    FORNL :  cpu time      0.0346: real time      0.0347
    STRESS:  cpu time      0.2403: real time      0.2406
    FORCOR:  cpu time      0.0146: real time      0.0146
    FORHAR:  cpu time      0.0018: real time      0.0019
    MIXING:  cpu time      0.0004: real time      0.0004
    OFIELD:  cpu time      0.0001: real time      0.0001

  FORCE on cell =-STRESS in cart. coord.  units (eV):
  Direction    XX          YY          ZZ          XY          YZ          ZX
  --------------------------------------------------------------------------------------
  Alpha Z    10.25816    10.25816    10.25816
  Ewald    -250.74066  -250.74066  -250.74066     0.00000     0.00000    -0.00000
  Hartree    21.34840    21.34840    21.34840     0.00000    -0.00000    -0.00000
  E(xc)     -86.74376   -86.74376   -86.74376     0.00000    -0.00000     0.00000
  Local    -116.12839  -116.12839  -116.12839     0.00000    -0.00000     0.00000
  n-local   270.37391   271.05272   269.68058    -0.03209    -0.29293    -0.18137
  augment   -41.62069   -41.62069   -41.62069     0.00000    -0.00000     0.00000
  Kinetic   180.45381   187.85629   197.02555     1.50091     0.93718     0.37036
  Fock        0.00000     0.00000     0.00000     0.00000     0.00000     0.00000
  -------------------------------------------------------------------------------------
  Total      -4.81265    -4.81265    -4.81265     0.00000     0.00000    -0.00000
  in kB     -47.95275   -47.95275   -47.95275     0.00000     0.00000    -0.00000
  external pressure =      -47.95 kB  Pullay stress =        0.00 kB


 VOLUME and BASIS-vectors are now :
 -----------------------------------------------------------------------------
  energy-cutoff  :      500.00
  volume of cell :      160.80
      direct lattice vectors                 reciprocal lattice vectors
     5.437848350  0.000000000  0.000000000     0.183896265  0.000000000  0.000000000
     0.000000000  5.437848350  0.000000000     0.000000000  0.183896265  0.000000000
     0.000000000  0.000000000  5.437848350     0.000000000  0.000000000  0.183896265

  length of vectors
     5.437848350  5.437848350  5.437848350     0.183896265  0.183896265  0.183896265


 FORCES acting on ions
    electron-ion (+dipol)            ewald-force                    non-local-force                 convergence-correction
 -----------------------------------------------------------------------------------------------
   -.183E+02 0.183E+02 -.183E+02   0.171E+02 -.171E+02 0.171E+02   0.116E+01 -.116E+01 0.116E+01   -.120E-03 0.120E-03 -.120E-03
   0.601E-13 -.298E-14 0.158E-13   0.355E-14 0.355E-14 0.355E-14   0.283E-16 -.462E-17 -.152E-16   -.109E-14 0.212E-14 -.154E-14
   -.183E+02 -.183E+02 0.183E+02   0.171E+02 0.171E+02 -.171E+02   0.116E+01 0.116E+01 -.116E+01   -.120E-03 -.120E-03 0.120E-03
   0.340E-13 0.852E-14 0.454E-14   -.355E-14 0.000E+00 0.000E+00   -.746E-17 0.175E-16 0.143E-16   -.159E-14 0.192E-15 -.546E-15
   0.183E+02 0.183E+02 0.183E+02   -.171E+02 -.171E+02 -.171E+02   -.116E+01 -.116E+01 -.116E+01   0.120E-03 0.120E-03 0.120E-03
   0.477E-13 -.264E-14 -.119E-12   0.355E-14 -.355E-14 0.355E-14   -.108E-16 0.128E-16 -.679E-17   0.192E-14 0.211E-15 0.229E-15
   0.183E+02 -.183E+02 -.183E+02   -.171E+02 0.171E+02 0.171E+02   -.116E+01 0.116E+01 0.116E+01   0.120E-03 -.120E-03 -.120E-03
 -----------------------------------------------------------------------------------------------
   -.220E-08 -.220E-08 -.135E-08   0.142E-13 0.000E+00 0.000E+00   0.000E+00 0.000E+00 0.222E-15   -.165E-14 -.481E-15 -.538E-14


 POSITION                                       TOTAL-FORCE (eV/Angst)
 -----------------------------------------------------------------------------------
      1.39431      4.04354      1.39431        -0.051622      0.051622     -0.051622
      0.00000      0.00000      2.71892         0.000000     -0.000000      0.000000
      1.39431      1.39431      4.04354        -0.051622     -0.051622      0.051622
      0.00000      2.71892      0.00000         0.000000     -0.000000      0.000000
      4.04354      4.04354      4.04354         0.051622      0.051622      0.051622
      2.71892      0.00000      0.00000         0.000000     -0.000000      0.000000
      4.04354      1.39431      1.39431         0.051622     -0.051622     -0.051622
 -----------------------------------------------------------------------------------
    total drift:                               -0.000000     -0.000000     -0.000000


--------------------------------------------------------------------------------------------------------



  FREE ENERGIE OF THE ION-ELECTRON SYSTEM (eV)
  ---------------------------------------------------
  free  energy   TOTEN  =       -37.01920222 eV

  energy  without entropy=      -37.01244390  energy(sigma->0) =      -37.01582306



--------------------------------------------------------------------------------------------------------


    POTLOK:  cpu time      0.2279: real time      0.2279


--------------------------------------------------------------------------------------------------------


 writing wavefunctions
     LOOP+:  cpu time     67.1167: real time     67.4072
    4ORBIT:  cpu time      0.0000: real time      0.0000



 total charge

# of ion       s       p       d       tot
------------------------------------------
    1        0.807   0.800   0.000   1.607
    2        0.760   0.896   0.000   1.656
    3        0.807   0.800   0.000   1.607
    4        0.760   0.896   0.000   1.656
    5        0.807   0.800   0.000   1.607
    6        0.760   0.896   0.000   1.656
    7        0.807   0.800   0.000   1.607
--------------------------------------------------
tot          5.508   5.887   0.000  11.395



 magnetization (x)

# of ion       s       p       d       tot
------------------------------------------
    1        0.000   0.000   0.000   0.000
    2        0.000   0.000   0.000   0.000
    3        0.000   0.000   0.000   0.000
    4        0.000   0.000   0.000   0.000
    5        0.000   0.000   0.000   0.000
    6        0.000   0.000   0.000   0.000
    7        0.000   0.000   0.000   0.000
--------------------------------------------------
tot          0.000   0.000   0.000   0.000


 total amount of memory used by VASP MPI-rank0    40713. kBytes
=======================================================================

   base      :      30000. kBytes
   nonl-proj :       3140. kBytes
   fftplans  :        508. kBytes
   grid      :       5640. kBytes
   one-center:         43. kBytes
   wavefun   :       1382. kBytes



 General timing and accounting informations for this job:
 ========================================================

                  Total CPU time used (sec):       73.762
                            User time (sec):       70.485
                          System time (sec):        3.277
                         Elapsed time (sec):       75.681

                   Maximum memory used (kb):      154612.
                   Average memory used (kb):          N/A

                          Minor page faults:       133669
                          Major page faults:            0
                 Voluntary context switches:         3718
