<?xml version="1.0" encoding="ISO-8859-1"?>
<modeling>
 <generator>
  <i name="program" type="string">vasp </i>
  <i name="version" type="string">6.3.0  </i>
  <i name="subversion" type="string">20Jan22 (build Feb 02 2022 18:12:33) complex                          parallel </i>
  <i name="platform" type="string">LinuxIFC </i>
  <i name="date" type="string">2022 04 15 </i>
  <i name="time" type="string">08:38:42 </i>
 </generator>
 <incar>
  <i type="string" name="PREC">Accurate</i>
  <i type="string" name="ALGO">Fast</i>
  <i type="int" name="ISPIN">     2</i>
  <i type="int" name="NELM">   200</i>
  <i type="int" name="NELMIN">     6</i>
  <i name="EDIFF">      0.00001000</i>
  <i type="int" name="NSW">     0</i>
  <i name="ENCUT">    500.00000000</i>
  <i name="ENAUG">   1360.00000000</i>
  <v name="MAGMOM">      0.00100000      0.00000000      0.00100000      0.00000000      0.00100000      0.00000000      0.00100000</v>
  <i name="NELECT">     28.00000000</i>
  <i type="logical" name="LREAL"> F  </i>
  <i type="int" name="ISMEAR">     0</i>
  <i name="SIGMA">      0.05000000</i>
  <i type="logical" name="LWAVE"> T  </i>
  <i type="logical" name="LCHARG"> T  </i>
  <i type="logical" name="LVTOT"> T  </i>
  <i type="int" name="LORBIT">    11</i>
  <i type="logical" name="LELF"> F  </i>
  <i type="logical" name="LASPH"> T  </i>
  <i type="logical" name="LAECHG"> F  </i>
  <i type="string" name="GGA">Ps</i>
  <i type="logical" name="LMIXTAU"> T  </i>
 </incar>
 <primitive_cell>
  <structure name="primitive_cell" >
   <crystal>
    <varray name="basis" >
     <v>       5.43784835       0.00000000       0.00000000 </v>
     <v>       0.00000000       5.43784835       0.00000000 </v>
     <v>       0.00000000       0.00000000       5.43784835 </v>
    </varray>
    <i name="volume">    160.79823434 </i>
    <varray name="rec_basis" >
     <v>       0.18389626       0.00000000       0.00000000 </v>
     <v>       0.00000000       0.18389626       0.00000000 </v>
     <v>       0.00000000       0.00000000       0.18389626 </v>
    </varray>
   </crystal>
   <varray name="positions" >
    <v>       0.25640888       0.74359112       0.25640888 </v>
    <v>       0.00000000       0.00000000       0.50000000 </v>
    <v>       0.25640888       0.25640888       0.74359112 </v>
    <v>       0.00000000       0.50000000       0.00000000 </v>
    <v>       0.74359112       0.74359112       0.74359112 </v>
    <v>       0.50000000       0.00000000       0.00000000 </v>
    <v>       0.74359112       0.25640888       0.25640888 </v>
   </varray>
  </structure>
  <varray name="primitive_index" >
   <v type="int" >        1 </v>
   <v type="int" >        2 </v>
   <v type="int" >        3 </v>
   <v type="int" >        4 </v>
   <v type="int" >        5 </v>
   <v type="int" >        6 </v>
   <v type="int" >        7 </v>
  </varray>
 </primitive_cell>
 <kpoints>
  <generation param="Gamma">
   <v type="int" name="divisions">       4        4        4 </v>
   <v name="usershift">      0.00000000       0.00000000       0.00000000 </v>
   <v name="genvec1">      0.25000000       0.00000000       0.00000000 </v>
   <v name="genvec2">      0.00000000       0.25000000       0.00000000 </v>
   <v name="genvec3">      0.00000000       0.00000000       0.25000000 </v>
   <v name="shift">      0.00000000       0.00000000       0.00000000 </v>
  </generation>
  <varray name="kpointlist" >
   <v>       0.00000000       0.00000000       0.00000000 </v>
   <v>       0.25000000       0.00000000       0.00000000 </v>
   <v>       0.50000000       0.00000000       0.00000000 </v>
   <v>       0.25000000       0.25000000       0.00000000 </v>
   <v>       0.50000000       0.25000000       0.00000000 </v>
   <v>       0.50000000       0.50000000       0.00000000 </v>
   <v>       0.25000000       0.25000000       0.25000000 </v>
   <v>       0.50000000       0.25000000       0.25000000 </v>
   <v>       0.50000000       0.50000000       0.25000000 </v>
   <v>       0.50000000       0.50000000       0.50000000 </v>
  </varray>
  <varray name="weights" >
   <v>       0.01562500 </v>
   <v>       0.09375000 </v>
   <v>       0.04687500 </v>
   <v>       0.18750000 </v>
   <v>       0.18750000 </v>
   <v>       0.04687500 </v>
   <v>       0.12500000 </v>
   <v>       0.18750000 </v>
   <v>       0.09375000 </v>
   <v>       0.01562500 </v>
  </varray>
 </kpoints>
 <parameters>
  <separator name="general" >
   <i type="string" name="SYSTEM">unknown system</i>
   <i type="logical" name="LCOMPAT"> F  </i>
  </separator>
  <separator name="electronic" >
   <i type="string" name="PREC">accura</i>
   <i name="ENMAX">    500.00000000</i>
   <i name="ENAUG">   1360.00000000</i>
   <i name="EDIFF">      0.00001000</i>
   <i type="int" name="IALGO">    68</i>
   <i type="int" name="IWAVPR">    10</i>
   <i type="int" name="NBANDS">   144</i>
   <i type="int" name="NBANDSLOW">    -1</i>
   <i type="int" name="NBANDSHIGH">    -1</i>
   <i name="NELECT">     28.00000000</i>
   <i type="int" name="TURBO">     0</i>
   <i type="int" name="IRESTART">     0</i>
   <i type="int" name="NREBOOT">     0</i>
   <i type="int" name="NMIN">     0</i>
   <i name="EREF">      0.00000000</i>
   <separator name="electronic smearing" >
    <i type="int" name="ISMEAR">     0</i>
    <i name="SIGMA">      0.05000000</i>
    <i name="KSPACING">      0.50000000</i>
    <i type="logical" name="KGAMMA"> T  </i>
    <i type="logical" name="KBLOWUP"> T  </i>
   </separator>
   <separator name="electronic projectors" >
    <i type="logical" name="LREAL"> F  </i>
    <v name="ROPT">      0.00000000</v>
    <i type="int" name="LMAXPAW">  -100</i>
    <i type="int" name="LMAXMIX">     2</i>
    <i type="logical" name="NLSPLINE"> F  </i>
   </separator>
   <separator name="electronic startup" >
    <i type="int" name="ISTART">     0</i>
    <i type="int" name="ICHARG">     2</i>
    <i type="int" name="INIWAV">     1</i>
   </separator>
   <separator name="electronic spin" >
    <i type="int" name="ISPIN">     2</i>
    <i type="logical" name="LNONCOLLINEAR"> F  </i>
    <v name="MAGMOM">      0.00100000      0.00000000      0.00100000      0.00000000      0.00100000      0.00000000      0.00100000</v>
    <i name="NUPDOWN">     -1.00000000</i>
    <i type="logical" name="LSORBIT"> F  </i>
    <v name="SAXIS">      0.00000000      0.00000000      1.00000000</v>
    <i type="logical" name="LSPIRAL"> F  </i>
    <v name="QSPIRAL">      0.00000000      0.00000000      0.00000000</v>
    <i type="logical" name="LZEROZ"> F  </i>
   </separator>
   <separator name="electronic exchange-correlation" >
    <i type="logical" name="LASPH"> T  </i>
    <i type="logical" name="LMETAGGA"> F  </i>
   </separator>
   <separator name="electronic convergence" >
    <i type="int" name="NELM">   200</i>
    <i type="int" name="NELMDL">    -5</i>
    <i type="int" name="NELMIN">     6</i>
    <i name="ENINI">    500.00000000</i>
    <separator name="electronic convergence detail" >
     <i type="logical" name="LDIAG"> T  </i>
     <i type="logical" name="LSUBROT"> F  </i>
     <i name="WEIMIN">      0.00000000</i>
     <i name="EBREAK">      0.00000002</i>
     <i name="DEPER">      0.30000000</i>
     <i type="int" name="NRMM">     4</i>
     <i name="TIME">      0.40000000</i>
    </separator>
   </separator>
   <separator name="electronic mixer" >
    <i name="AMIX">      0.40000000</i>
    <i name="BMIX">      1.00000000</i>
    <i name="AMIN">      0.10000000</i>
    <i name="AMIX_MAG">      1.60000000</i>
    <i name="BMIX_MAG">      1.00000000</i>
    <separator name="electronic mixer details" >
     <i type="int" name="IMIX">     4</i>
     <i type="logical" name="MIXFIRST"> F  </i>
     <i type="int" name="MAXMIX">   -45</i>
     <i name="WC">    100.00000000</i>
     <i type="int" name="INIMIX">     1</i>
     <i type="int" name="MIXPRE">     1</i>
     <i type="int" name="MREMOVE">     5</i>
    </separator>
   </separator>
   <separator name="electronic dipolcorrection" >
    <i type="logical" name="LDIPOL"> F  </i>
    <i type="logical" name="LMONO"> F  </i>
    <i type="int" name="IDIPOL">     0</i>
    <i name="EPSILON">      1.00000000</i>
    <v name="DIPOL">   -100.00000000   -100.00000000   -100.00000000</v>
    <i name="EFIELD">      0.00000000</i>
   </separator>
  </separator>
  <separator name="grids" >
   <i type="int" name="NGX">    40</i>
   <i type="int" name="NGY">    40</i>
   <i type="int" name="NGZ">    40</i>
   <i type="int" name="NGXF">    80</i>
   <i type="int" name="NGYF">    80</i>
   <i type="int" name="NGZF">    80</i>
   <i type="logical" name="ADDGRID"> F  </i>
  </separator>
  <separator name="ionic" >
   <i type="int" name="NSW">     0</i>
   <i type="int" name="IBRION">    -1</i>
   <i type="int" name="MDALGO">     0</i>
   <i type="int" name="ISIF">     2</i>
   <i name="PSTRESS">      0.00000000</i>
   <i name="EDIFFG">      0.00010000</i>
   <i type="int" name="NFREE">     0</i>
   <i name="POTIM">      0.50000000</i>
   <i name="SMASS">     -3.00000000</i>
   <i name="SCALEE">      1.00000000</i>
  </separator>
  <separator name="ionic md" >
   <i name="TEBEG">      0.00010000</i>
   <i name="TEEND">      0.00010000</i>
   <i type="int" name="NBLOCK">     1</i>
   <i type="int" name="KBLOCK">     1</i>
   <i type="int" name="NPACO">   256</i>
   <i name="APACO">     10.00000000</i>
  </separator>
  <separator name="symmetry" >
   <i type="int" name="ISYM">     2</i>
   <i name="SYMPREC">      0.00001000</i>
  </separator>
  <separator name="dos" >
   <i type="int" name="LORBIT">    11</i>
   <v name="RWIGS">     -1.00000000</v>
   <i type="int" name="NEDOS">   301</i>
   <i name="EMIN">     10.00000000</i>
   <i name="EMAX">    -10.00000000</i>
   <i name="EFERMI">      0.00000000</i>
  </separator>
  <separator name="writing" >
   <i type="int" name="NWRITE">     2</i>
   <i type="logical" name="LWAVE"> T  </i>
   <i type="logical" name="LDOWNSAMPLE"> F  </i>
   <i type="logical" name="LCHARG"> T  </i>
   <i type="logical" name="LPARD"> F  </i>
   <i type="logical" name="LVTOT"> T  </i>
   <i type="logical" name="LVHAR"> F  </i>
   <i type="logical" name="LELF"> F  </i>
   <i type="logical" name="LOPTICS"> F  </i>
   <v name="STM">      0.00000000      0.00000000      0.00000000      0.00000000      0.00000000      0.00000000      0.00000000</v>
  </separator>
  <separator name="performance" >
   <i type="int" name="NPAR">   144</i>
   <i type="int" name="NSIM">     4</i>
   <i type="int" name="NBLK">    -1</i>
   <i type="logical" name="LPLANE"> T  </i>
   <i type="logical" name="LSCALAPACK"> T  </i>
   <i type="logical" name="LSCAAWARE"> T  </i>
   <i type="logical" name="LSCALU"> F  </i>
   <i type="logical" name="LASYNC"> F  </i>
   <i type="logical" name="LORBITALREAL"> F  </i>
  </separator>
  <separator name="miscellaneous" >
   <i type="int" name="IDIOT">     3</i>
   <i type="int" name="PHON_NSTRUCT">    -1</i>
   <i type="logical" name="LMUSIC"> F  </i>
   <v name="POMASS">     28.08500000</v>
   <v name="DARWINR">      0.00000000</v>
   <v name="DARWINV">      1.00000000</v>
   <i type="logical" name="LCORR"> T  </i>
  </separator>
  <i type="logical" name="GGA_COMPAT"> T  </i>
  <i type="logical" name="LBERRY"> F  </i>
  <i type="int" name="ICORELEVEL">     0</i>
  <i type="logical" name="LDAU"> F  </i>
  <i type="int" name="I_CONSTRAINED_M">     0</i>
  <separator name="electronic exchange-correlation" >
   <i type="string" name="GGA">PS</i>
   <i type="int" name="VOSKOWN">     0</i>
   <i type="logical" name="LHFCALC"> F  </i>
   <i type="string" name="PRECFOCK"></i>
   <i type="logical" name="LSYMGRAD"> F  </i>
   <i type="logical" name="LHFONE"> F  </i>
   <i type="logical" name="LRHFCALC"> F  </i>
   <i type="logical" name="LTHOMAS"> F  </i>
   <i type="logical" name="LMODELHF"> F  </i>
   <i type="logical" name="LFOCKACE"> F  </i>
   <i name="ENCUT4O">     -1.00000000</i>
   <i type="int" name="EXXOEP">     0</i>
   <i type="int" name="FOURORBIT">     0</i>
   <i name="AEXX">      0.00000000</i>
   <i name="HFALPHA">      0.00000000</i>
   <i name="MCALPHA">      0.00000000</i>
   <i name="ALDAX">      1.00000000</i>
   <i name="AGGAX">      1.00000000</i>
   <i name="ALDAC">      1.00000000</i>
   <i name="AGGAC">      1.00000000</i>
   <i type="int" name="NKREDX">     1</i>
   <i type="int" name="NKREDY">     1</i>
   <i type="int" name="NKREDZ">     1</i>
   <i type="logical" name="SHIFTRED"> F  </i>
   <i type="logical" name="ODDONLY"> F  </i>
   <i type="logical" name="EVENONLY"> F  </i>
   <i type="int" name="LMAXFOCK">     0</i>
   <i type="int" name="NMAXFOCKAE">     0</i>
   <i type="logical" name="LFOCKAEDFT"> F  </i>
   <i name="HFSCREEN">      0.00000000</i>
   <i name="HFSCREENC">      0.00000000</i>
   <i type="int" name="NBANDSGWLOW">     0</i>
  </separator>
  <separator name="vdW DFT" >
   <i type="logical" name="LUSE_VDW"> F  </i>
   <i name="Zab_VDW">     -0.84910000</i>
   <i name="PARAM1">      0.12340000</i>
   <i name="PARAM2">      1.00000000</i>
   <i name="PARAM3">      0.00000000</i>
  </separator>
  <separator name="model GW" >
   <i type="int" name="MODEL_GW">     0</i>
   <i name="MODEL_EPS0">     13.78270580</i>
   <i name="MODEL_ALPHA">      1.00000000</i>
  </separator>
  <separator name="linear response parameters" >
   <i type="logical" name="LEPSILON"> F  </i>
   <i type="logical" name="LRPA"> F  </i>
   <i type="logical" name="LNABLA"> F  </i>
   <i type="logical" name="LVEL"> F  </i>
   <i name="CSHIFT">      0.10000000</i>
   <i name="OMEGAMAX">     -1.00000000</i>
   <i name="DEG_THRESHOLD">      0.00200000</i>
   <i name="RTIME">     -0.10000000</i>
   <i name="WPLASMAI">      0.00000000</i>
   <v name="DFIELD">      0.00000000      0.00000000      0.00000000</v>
   <v name="WPLASMA">      0.00000000      0.00000000      0.00000000      0.00000000      0.00000000      0.00000000      0.00000000      0.00000000      0.00000000</v>
  </separator>
  <separator name="orbital magnetization" >
   <i type="logical" name="NUCIND"> F  </i>
   <v name="MAGPOS">      0.00000000      0.00000000      0.00000000</v>
   <i type="logical" name="LNICSALL"> T  </i>
   <i type="logical" name="ORBITALMAG"> F  </i>
   <i type="logical" name="LMAGBLOCH"> F  </i>
   <i type="logical" name="LCHIMAG"> F  </i>
   <i type="logical" name="LGAUGE"> T  </i>
   <i type="int" name="MAGATOM">     0</i>
   <v name="MAGDIPOL">      0.00000000      0.00000000      0.00000000</v>
   <v name="AVECCONST">      0.00000000      0.00000000      0.00000000</v>
  </separator>
  <separator name="response functions" >
   <i type="logical" name="LFINITE_TEMPERATURE"> F  </i>
   <i type="logical" name="LADDER"> F  </i>
   <i type="logical" name="LRPAFORCE"> F  </i>
   <i type="logical" name="LFXC"> F  </i>
   <i type="logical" name="LHARTREE"> T  </i>
   <i type="int" name="IBSE">     0</i>
   <v type="int" name="KPOINT">    -1     0     0     0</v>
   <i type="logical" name="LTCTC"> F  </i>
   <i type="logical" name="LTCTE"> F  </i>
   <i type="logical" name="LTETE"> F  </i>
   <i type="logical" name="LTRIPLET"> F  </i>
   <i type="logical" name="LFXCEPS"> F  </i>
   <i type="logical" name="LFXHEG"> F  </i>
   <i type="int" name="NATURALO">     2</i>
   <i type="logical" name="LHOLEGF"> F  </i>
   <i type="logical" name="L2ORDER"> F  </i>
   <i type="logical" name="LDMP1"> F  </i>
   <i type="logical" name="LMP2LT"> F  </i>
   <i type="logical" name="LSMP2LT"> F  </i>
   <i type="logical" name="LGWLF"> F  </i>
   <i name="ENCUTGW">     -2.00000000</i>
   <i name="ENCUTGWSOFT">     -2.00000000</i>
   <i name="ENCUTLF">     -1.00000000</i>
   <i type="logical" name="LESF_SPLINES"> F  </i>
   <i type="int" name="LMAXMP2">    -1</i>
   <i name="SCISSOR">      0.00000000</i>
   <i type="int" name="NOMEGA">     0</i>
   <i type="int" name="NOMEGAR">     0</i>
   <i type="int" name="NBANDSGW">    -1</i>
   <i type="int" name="NBANDSO">    -1</i>
   <i type="int" name="NBANDSV">    -1</i>
   <i type="int" name="NELMGW">     1</i>
   <i type="int" name="NELMHF">     1</i>
   <i type="int" name="DIM">     3</i>
   <i type="int" name="IESPILON">     4</i>
   <i type="int" name="ANTIRES">     0</i>
   <i name="OMEGAMAX">    -30.00000000</i>
   <i name="OMEGAMIN">    -30.00000000</i>
   <i name="OMEGATL">   -200.00000000</i>
   <i type="int" name="OMEGAGRID">     0</i>
   <i name="CSHIFT">     -0.10000000</i>
   <i type="logical" name="LSELFENERGY"> F  </i>
   <i type="logical" name="LSPECTRAL"> F  </i>
   <i type="logical" name="LSPECTRALGW"> F  </i>
   <i type="logical" name="LSINGLES"> F  </i>
   <i type="logical" name="LFERMIGW"> F  </i>
   <i type="logical" name="ODDONLYGW"> F  </i>
   <i type="logical" name="EVENONLYGW"> F  </i>
   <i type="int" name="NKREDLFX">     1</i>
   <i type="int" name="NKREDLFY">     1</i>
   <i type="int" name="NKREDLFZ">     1</i>
   <i type="int" name="MAXMEM">  2800</i>
   <i type="int" name="TELESCOPE">     0</i>
   <i type="int" name="NTAUPAR">    -1</i>
   <i type="int" name="NOMEGAPAR">    -1</i>
   <i name="DAMP_NEWTON">      0.80000001</i>
   <i name="LAMBDA">      1.00000000</i>
  </separator>
  <separator name="External order field" >
   <i name="OFIELD_KAPPA">      0.00000000</i>
   <v name="OFIELD_K">      0.00000000      0.00000000      0.00000000</v>
   <i name="OFIELD_Q6_NEAR">      0.00000000</i>
   <i name="OFIELD_Q6_FAR">      0.00000000</i>
   <i name="OFIELD_A">      0.00000000</i>
  </separator>
  <separator name="optional k-points parameters" >
   <i type="int" name="KPOINTS_OPT_MODE">     1</i>
   <i type="logical" name="LKPOINTS_OPT"> F  </i>
  </separator>
 </parameters>
 <atominfo>
  <atoms>       7 </atoms>
  <types>       1 </types>
  <array name="atoms" >
   <dimension dim="1">ion</dimension>
   <field type="string">element</field>
   <field type="int">atomtype</field>
   <set>
    <rc><c>Si</c><c>   1</c></rc>
    <rc><c>Si</c><c>   1</c></rc>
    <rc><c>Si</c><c>   1</c></rc>
    <rc><c>Si</c><c>   1</c></rc>
    <rc><c>Si</c><c>   1</c></rc>
    <rc><c>Si</c><c>   1</c></rc>
    <rc><c>Si</c><c>   1</c></rc>
   </set>
  </array>
  <array name="atomtypes" >
   <dimension dim="1">type</dimension>
   <field type="int">atomspertype</field>
   <field type="string">element</field>
   <field>mass</field>
   <field>valence</field>
   <field type="string">pseudopotential</field>
   <set>
    <rc><c>   7</c><c>Si</c><c>     28.08500000</c><c>      4.00000000</c><c>  PAW_PBE Si 05Jan2001                  </c></rc>
   </set>
  </array>
 </atominfo>
 <structure name="initialpos" >
  <crystal>
   <varray name="basis" >
    <v>       5.43784835       0.00000000       0.00000000 </v>
    <v>       0.00000000       5.43784835       0.00000000 </v>
    <v>       0.00000000       0.00000000       5.43784835 </v>
   </varray>
   <i name="volume">    160.79823434 </i>
   <varray name="rec_basis" >
    <v>       0.18389626       0.00000000       0.00000000 </v>
    <v>       0.00000000       0.18389626       0.00000000 </v>
    <v>       0.00000000       0.00000000       0.18389626 </v>
   </varray>
  </crystal>
  <varray name="positions" >
   <v>       0.25640888       0.74359112       0.25640888 </v>
   <v>       0.00000000       0.00000000       0.50000000 </v>
   <v>       0.25640888       0.25640888       0.74359112 </v>
   <v>       0.00000000       0.50000000       0.00000000 </v>
   <v>       0.74359112       0.74359112       0.74359112 </v>
   <v>       0.50000000       0.00000000       0.00000000 </v>
   <v>       0.74359112       0.25640888       0.25640888 </v>
  </varray>
 </structure>
 <calculation>
  <scstep>
   <time name="dav">    5.19    5.19</time>
   <time name="total">    5.42    5.42</time>
   <energy>
    <i name="alphaZ">     10.25815623 </i>
    <i name="ewald">   -752.22079585 </i>
    <i name="hartreedc">    -54.17061977 </i>
    <i name="XCdc">    -62.66570854 </i>
    <i name="pawpsdc">    612.34974622 </i>
    <i name="pawaedc">   -491.33201668 </i>
    <i name="eentropy">     -0.00793547 </i>
    <i name="bandstr">      0.58133625 </i>
    <i name="atom">    718.02812073 </i>
    <i name="e_fr_energy">    -19.17971689 </i>
    <i name="e_wo_entrp">    -19.17178142 </i>
    <i name="e_0_energy">    -19.17574916 </i>
   </energy>
  </scstep>
  <scstep>
   <time name="dav">   12.31   12.33</time>
   <time name="total">   12.32   12.33</time>
   <energy>
    <i name="e_fr_energy">    -37.74237594 </i>
    <i name="e_wo_entrp">    -37.73301355 </i>
    <i name="e_0_energy">    -37.73769474 </i>
   </energy>
  </scstep>
  <scstep>
   <time name="dav">    5.33    5.33</time>
   <time name="total">    5.33    5.33</time>
   <energy>
    <i name="e_fr_energy">    -37.75719306 </i>
    <i name="e_wo_entrp">    -37.74782944 </i>
    <i name="e_0_energy">    -37.75251125 </i>
   </energy>
  </scstep>
  <scstep>
   <time name="dav">   25.49   25.51</time>
   <time name="total">   25.49   25.51</time>
   <energy>
    <i name="e_fr_energy">    -37.75720047 </i>
    <i name="e_wo_entrp">    -37.74783683 </i>
    <i name="e_0_energy">    -37.75251865 </i>
   </energy>
  </scstep>
  <scstep>
   <time name="dav">    5.69    5.71</time>
   <time name="total">    5.74    5.76</time>
   <energy>
    <i name="e_fr_energy">    -37.75720047 </i>
    <i name="e_wo_entrp">    -37.74783684 </i>
    <i name="e_0_energy">    -37.75251865 </i>
   </energy>
  </scstep>
  <scstep>
   <time name="diag">    0.81    0.81</time>
   <time name="diis">    0.20    0.20</time>
   <time name="orth">    0.11    0.11</time>
   <time name="total">    1.39    1.41</time>
   <energy>
    <i name="e_fr_energy">    -37.18525957 </i>
    <i name="e_wo_entrp">    -37.17810278 </i>
    <i name="e_0_energy">    -37.18168117 </i>
   </energy>
  </scstep>
  <scstep>
   <time name="diag">    0.78    0.78</time>
   <time name="diis">    0.28    0.28</time>
   <time name="orth">    0.11    0.11</time>
   <time name="total">    1.43    1.45</time>
   <energy>
    <i name="e_fr_energy">    -37.02545923 </i>
    <i name="e_wo_entrp">    -37.01870001 </i>
    <i name="e_0_energy">    -37.02207962 </i>
   </energy>
  </scstep>
  <scstep>
   <time name="diag">    0.77    0.77</time>
   <time name="diis">    0.28    0.28</time>
   <time name="orth">    0.11    0.11</time>
   <time name="total">    1.42    1.44</time>
   <energy>
    <i name="e_fr_energy">    -37.01923322 </i>
    <i name="e_wo_entrp">    -37.01250894 </i>
    <i name="e_0_energy">    -37.01587108 </i>
   </energy>
  </scstep>
  <scstep>
   <time name="diag">    0.77    0.77</time>
   <time name="diis">    0.30    0.30</time>
   <time name="orth">    0.11    0.11</time>
   <time name="total">    1.45    1.46</time>
   <energy>
    <i name="e_fr_energy">    -37.01918353 </i>
    <i name="e_wo_entrp">    -37.01243557 </i>
    <i name="e_0_energy">    -37.01580955 </i>
   </energy>
  </scstep>
  <scstep>
   <time name="diag">    0.76    0.76</time>
   <time name="diis">    0.31    0.31</time>
   <time name="orth">    0.11    0.11</time>
   <time name="total">    1.44    1.46</time>
   <energy>
    <i name="e_fr_energy">    -37.01921863 </i>
    <i name="e_wo_entrp">    -37.01245801 </i>
    <i name="e_0_energy">    -37.01583832 </i>
   </energy>
  </scstep>
  <scstep>
   <time name="diag">    0.75    0.75</time>
   <time name="diis">    0.31    0.31</time>
   <time name="orth">    0.11    0.11</time>
   <time name="total">    1.44    1.46</time>
   <energy>
    <i name="e_fr_energy">    -37.01920224 </i>
    <i name="e_wo_entrp">    -37.01244378 </i>
    <i name="e_0_energy">    -37.01582301 </i>
   </energy>
  </scstep>
  <scstep>
   <time name="diag">    0.75    0.75</time>
   <time name="diis">    0.31    0.31</time>
   <time name="orth">    0.11    0.11</time>
   <time name="total">    1.39    1.41</time>
   <energy>
    <i name="alphaZ">     10.25815623 </i>
    <i name="ewald">   -752.22079585 </i>
    <i name="hartreedc">    -64.04045283 </i>
    <i name="XCdc">    -61.15347796 </i>
    <i name="pawpsdc">   2361.32962986 </i>
    <i name="pawaedc">  -2240.80457232 </i>
    <i name="eentropy">     -0.00675833 </i>
    <i name="bandstr">     -8.40905174 </i>
    <i name="atom">    718.02812073 </i>
    <i name="e_fr_energy">    -37.01920222 </i>
    <i name="e_wo_entrp">    -37.01244390 </i>
    <i name="e_0_energy">    -37.01582306 </i>
   </energy>
  </scstep>
  <structure>
   <crystal>
    <varray name="basis" >
     <v>       5.43784835       0.00000000       0.00000000 </v>
     <v>       0.00000000       5.43784835       0.00000000 </v>
     <v>       0.00000000       0.00000000       5.43784835 </v>
    </varray>
    <i name="volume">    160.79823434 </i>
    <varray name="rec_basis" >
     <v>       0.18389626       0.00000000       0.00000000 </v>
     <v>       0.00000000       0.18389626       0.00000000 </v>
     <v>       0.00000000       0.00000000       0.18389626 </v>
    </varray>
   </crystal>
   <varray name="positions" >
    <v>       0.25640888       0.74359112       0.25640888 </v>
    <v>       0.00000000       0.00000000       0.50000000 </v>
    <v>       0.25640888       0.25640888       0.74359112 </v>
    <v>       0.00000000       0.50000000       0.00000000 </v>
    <v>       0.74359112       0.74359112       0.74359112 </v>
    <v>       0.50000000       0.00000000       0.00000000 </v>
    <v>       0.74359112       0.25640888       0.25640888 </v>
   </varray>
  </structure>
  <varray name="forces" >
   <v>      -0.05162198       0.05162198      -0.05162198 </v>
   <v>       0.00000000      -0.00000000       0.00000000 </v>
   <v>      -0.05162198      -0.05162198       0.05162198 </v>
   <v>       0.00000000      -0.00000000       0.00000000 </v>
   <v>       0.05162198       0.05162198       0.05162198 </v>
   <v>       0.00000000      -0.00000000       0.00000000 </v>
   <v>       0.05162198      -0.05162198      -0.05162198 </v>
  </varray>
  <varray name="stress" >
   <v>     -47.95275364       0.00000000      -0.00000000 </v>
   <v>       0.00000000     -47.95275364      -0.00000000 </v>
   <v>       0.00000000       0.00000000     -47.95275364 </v>
  </varray>
  <energy>
   <i name="e_fr_energy">    -37.01920222 </i>
   <i name="e_wo_entrp">    -37.01244390 </i>
   <i name="e_0_energy">    -37.01582306 </i>
  </energy>
  <time name="totalsc">   67.12   67.41</time>
  <eigenvalues>
   <array>
    <dimension dim="1">band</dimension>
    <dimension dim="2">kpoint</dimension>
    <dimension dim="3">spin</dimension>
    <field>eigene</field>
    <field>occ</field>
    <set>
     <set comment="spin 1">
      <set comment="kpoint 1">
       <r>   -6.8924    1.0000 </r>
       <r>   -3.2163    1.0000 </r>
       <r>   -3.2163    1.0000 </r>
       <r>   -2.8652    1.0000 </r>
       <r>   -2.8652    1.0000 </r>
       <r>   -2.8652    1.0000 </r>
       <r>    1.1480    1.0000 </r>
       <r>    1.7167    1.0000 </r>
       <r>    1.7167    1.0000 </r>
       <r>    1.7167    1.0000 </r>
       <r>    2.9824    1.0000 </r>
       <r>    2.9824    1.0000 </r>
       <r>    2.9824    1.0000 </r>
       <r>    5.5408    0.0000 </r>
       <r>    5.5408    0.0000 </r>
       <r>    5.5763    0.0000 </r>
       <r>    5.5763    0.0000 </r>
       <r>    5.5763    0.0000 </r>
       <r>    6.1822    0.0000 </r>
       <r>    6.1822    0.0000 </r>
       <r>    6.1822    0.0000 </r>
       <r>    6.3638    0.0000 </r>
       <r>    8.4670    0.0000 </r>
       <r>    8.4670    0.0000 </r>
       <r>    8.4670    0.0000 </r>
       <r>   10.0615    0.0000 </r>
       <r>   12.9744    0.0000 </r>
       <r>   12.9744    0.0000 </r>
       <r>   13.1094    0.0000 </r>
       <r>   14.5710    0.0000 </r>
       <r>   14.5710    0.0000 </r>
       <r>   14.5710    0.0000 </r>
       <r>   15.6906    0.0000 </r>
       <r>   15.6906    0.0000 </r>
       <r>   15.6906    0.0000 </r>
       <r>   15.7329    0.0000 </r>
       <r>   15.7329    0.0000 </r>
       <r>   15.7329    0.0000 </r>
       <r>   16.2876    0.0000 </r>
       <r>   16.2876    0.0000 </r>
       <r>   16.2876    0.0000 </r>
       <r>   17.0192    0.0000 </r>
       <r>   17.4645    0.0000 </r>
       <r>   17.4645    0.0000 </r>
       <r>   17.4896    0.0000 </r>
       <r>   17.4896    0.0000 </r>
       <r>   17.4896    0.0000 </r>
       <r>   18.0946    0.0000 </r>
       <r>   18.0946    0.0000 </r>
       <r>   18.0946    0.0000 </r>
       <r>   19.1304    0.0000 </r>
       <r>   19.1304    0.0000 </r>
       <r>   19.1906    0.0000 </r>
       <r>   20.3014    0.0000 </r>
       <r>   20.9005    0.0000 </r>
       <r>   20.9005    0.0000 </r>
       <r>   20.9005    0.0000 </r>
       <r>   23.6195    0.0000 </r>
       <r>   23.7058    0.0000 </r>
       <r>   23.7058    0.0000 </r>
       <r>   23.7058    0.0000 </r>
       <r>   24.3693    0.0000 </r>
       <r>   24.3693    0.0000 </r>
       <r>   24.3693    0.0000 </r>
       <r>   24.8114    0.0000 </r>
       <r>   24.8114    0.0000 </r>
       <r>   24.8114    0.0000 </r>
       <r>   24.9387    0.0000 </r>
       <r>   24.9387    0.0000 </r>
       <r>   24.9387    0.0000 </r>
       <r>   25.2051    0.0000 </r>
       <r>   25.2051    0.0000 </r>
       <r>   26.0944    0.0000 </r>
       <r>   26.0944    0.0000 </r>
       <r>   26.1726    0.0000 </r>
       <r>   26.1726    0.0000 </r>
       <r>   26.1726    0.0000 </r>
       <r>   27.0912    0.0000 </r>
       <r>   27.0912    0.0000 </r>
       <r>   27.0912    0.0000 </r>
       <r>   27.5184    0.0000 </r>
       <r>   28.5568    0.0000 </r>
       <r>   28.5568    0.0000 </r>
       <r>   28.5568    0.0000 </r>
       <r>   29.4137    0.0000 </r>
       <r>   29.4137    0.0000 </r>
       <r>   30.8531    0.0000 </r>
       <r>   31.7299    0.0000 </r>
       <r>   31.7299    0.0000 </r>
       <r>   31.7299    0.0000 </r>
       <r>   33.0211    0.0000 </r>
       <r>   33.0211    0.0000 </r>
       <r>   33.0921    0.0000 </r>
       <r>   33.0921    0.0000 </r>
       <r>   33.0921    0.0000 </r>
       <r>   33.9175    0.0000 </r>
       <r>   33.9175    0.0000 </r>
       <r>   33.9175    0.0000 </r>
       <r>   34.8523    0.0000 </r>
       <r>   34.8523    0.0000 </r>
       <r>   34.8523    0.0000 </r>
       <r>   37.6521    0.0000 </r>
       <r>   37.6521    0.0000 </r>
       <r>   37.6521    0.0000 </r>
       <r>   38.8643    0.0000 </r>
       <r>   38.8643    0.0000 </r>
       <r>   38.8643    0.0000 </r>
       <r>   39.0774    0.0000 </r>
       <r>   39.0774    0.0000 </r>
       <r>   39.0774    0.0000 </r>
       <r>   39.1957    0.0000 </r>
       <r>   39.1957    0.0000 </r>
       <r>   39.3207    0.0000 </r>
       <r>   40.1447    0.0000 </r>
       <r>   40.3605    0.0000 </r>
       <r>   40.3605    0.0000 </r>
       <r>   40.3605    0.0000 </r>
       <r>   40.8987    0.0000 </r>
       <r>   40.8987    0.0000 </r>
       <r>   40.8987    0.0000 </r>
       <r>   41.7456    0.0000 </r>
       <r>   41.7456    0.0000 </r>
       <r>   41.7456    0.0000 </r>
       <r>   42.2638    0.0000 </r>
       <r>   42.2638    0.0000 </r>
       <r>   42.5479    0.0000 </r>
       <r>   42.7871    0.0000 </r>
       <r>   42.8993    0.0000 </r>
       <r>   42.8993    0.0000 </r>
       <r>   43.2077    0.0000 </r>
       <r>   43.2077    0.0000 </r>
       <r>   43.2077    0.0000 </r>
       <r>   44.2663    0.0000 </r>
       <r>   44.2663    0.0000 </r>
       <r>   44.2663    0.0000 </r>
       <r>   44.8011    0.0000 </r>
       <r>   44.8014    0.0000 </r>
       <r>   45.1496    0.0000 </r>
       <r>   45.1496    0.0000 </r>
       <r>   45.1496    0.0000 </r>
       <r>   45.8855    0.0000 </r>
       <r>   45.8855    0.0000 </r>
       <r>   45.8856    0.0000 </r>
       <r>   46.2020    0.0000 </r>
      </set>
      <set comment="kpoint 2">
       <r>   -6.6463    1.0000 </r>
       <r>   -4.5604    1.0000 </r>
       <r>   -3.1431    1.0000 </r>
       <r>   -2.7978    1.0000 </r>
       <r>   -2.7978    1.0000 </r>
       <r>   -1.4922    1.0000 </r>
       <r>    1.2020    1.0000 </r>
       <r>    1.4772    1.0000 </r>
       <r>    1.4772    1.0000 </r>
       <r>    1.4922    1.0000 </r>
       <r>    2.2191    1.0000 </r>
       <r>    2.7817    1.0000 </r>
       <r>    2.7817    1.0000 </r>
       <r>    4.8574    0.0000 </r>
       <r>    5.2736    0.0000 </r>
       <r>    5.2736    0.0000 </r>
       <r>    5.6890    0.0000 </r>
       <r>    6.4112    0.0000 </r>
       <r>    6.7518    0.0000 </r>
       <r>    7.0537    0.0000 </r>
       <r>    7.0537    0.0000 </r>
       <r>    7.5674    0.0000 </r>
       <r>    8.0229    0.0000 </r>
       <r>    9.5340    0.0000 </r>
       <r>    9.5340    0.0000 </r>
       <r>   10.6808    0.0000 </r>
       <r>   11.9287    0.0000 </r>
       <r>   12.4045    0.0000 </r>
       <r>   12.5339    0.0000 </r>
       <r>   12.5339    0.0000 </r>
       <r>   13.3341    0.0000 </r>
       <r>   13.6641    0.0000 </r>
       <r>   14.2300    0.0000 </r>
       <r>   14.2708    0.0000 </r>
       <r>   14.2708    0.0000 </r>
       <r>   15.1492    0.0000 </r>
       <r>   15.8942    0.0000 </r>
       <r>   16.0176    0.0000 </r>
       <r>   16.0176    0.0000 </r>
       <r>   16.6765    0.0000 </r>
       <r>   16.7918    0.0000 </r>
       <r>   16.7918    0.0000 </r>
       <r>   17.0079    0.0000 </r>
       <r>   17.5441    0.0000 </r>
       <r>   17.6384    0.0000 </r>
       <r>   18.3588    0.0000 </r>
       <r>   18.3588    0.0000 </r>
       <r>   18.9687    0.0000 </r>
       <r>   18.9687    0.0000 </r>
       <r>   19.4256    0.0000 </r>
       <r>   19.8728    0.0000 </r>
       <r>   19.9833    0.0000 </r>
       <r>   20.6041    0.0000 </r>
       <r>   21.0617    0.0000 </r>
       <r>   21.4094    0.0000 </r>
       <r>   21.4094    0.0000 </r>
       <r>   21.6308    0.0000 </r>
       <r>   22.0108    0.0000 </r>
       <r>   22.1913    0.0000 </r>
       <r>   22.1913    0.0000 </r>
       <r>   22.9011    0.0000 </r>
       <r>   23.2720    0.0000 </r>
       <r>   23.2720    0.0000 </r>
       <r>   23.3806    0.0000 </r>
       <r>   23.8304    0.0000 </r>
       <r>   24.2463    0.0000 </r>
       <r>   24.2463    0.0000 </r>
       <r>   24.5809    0.0000 </r>
       <r>   24.7785    0.0000 </r>
       <r>   25.8622    0.0000 </r>
       <r>   25.8622    0.0000 </r>
       <r>   26.3612    0.0000 </r>
       <r>   26.8188    0.0000 </r>
       <r>   26.9551    0.0000 </r>
       <r>   26.9551    0.0000 </r>
       <r>   27.4832    0.0000 </r>
       <r>   28.1301    0.0000 </r>
       <r>   28.2506    0.0000 </r>
       <r>   28.3378    0.0000 </r>
       <r>   28.5161    0.0000 </r>
       <r>   28.5803    0.0000 </r>
       <r>   28.5803    0.0000 </r>
       <r>   29.3205    0.0000 </r>
       <r>   29.4277    0.0000 </r>
       <r>   29.4277    0.0000 </r>
       <r>   29.9547    0.0000 </r>
       <r>   30.1397    0.0000 </r>
       <r>   30.7496    0.0000 </r>
       <r>   31.0412    0.0000 </r>
       <r>   31.0412    0.0000 </r>
       <r>   31.4989    0.0000 </r>
       <r>   32.8387    0.0000 </r>
       <r>   32.8387    0.0000 </r>
       <r>   32.8951    0.0000 </r>
       <r>   33.8425    0.0000 </r>
       <r>   34.5863    0.0000 </r>
       <r>   34.5863    0.0000 </r>
       <r>   34.7501    0.0000 </r>
       <r>   35.1845    0.0000 </r>
       <r>   36.1052    0.0000 </r>
       <r>   36.1052    0.0000 </r>
       <r>   36.3488    0.0000 </r>
       <r>   36.3488    0.0000 </r>
       <r>   36.7301    0.0000 </r>
       <r>   36.8375    0.0000 </r>
       <r>   36.9281    0.0000 </r>
       <r>   37.5809    0.0000 </r>
       <r>   37.5809    0.0000 </r>
       <r>   37.6448    0.0000 </r>
       <r>   38.2161    0.0000 </r>
       <r>   38.2161    0.0000 </r>
       <r>   38.2892    0.0000 </r>
       <r>   38.6721    0.0000 </r>
       <r>   39.7341    0.0000 </r>
       <r>   39.7341    0.0000 </r>
       <r>   39.9518    0.0000 </r>
       <r>   40.4367    0.0000 </r>
       <r>   40.5444    0.0000 </r>
       <r>   40.5444    0.0000 </r>
       <r>   40.6968    0.0000 </r>
       <r>   40.9621    0.0000 </r>
       <r>   41.2589    0.0000 </r>
       <r>   41.8118    0.0000 </r>
       <r>   42.0987    0.0000 </r>
       <r>   42.3731    0.0000 </r>
       <r>   42.3731    0.0000 </r>
       <r>   42.8386    0.0000 </r>
       <r>   43.3264    0.0000 </r>
       <r>   43.3480    0.0000 </r>
       <r>   43.3480    0.0000 </r>
       <r>   44.0763    0.0000 </r>
       <r>   44.1095    0.0000 </r>
       <r>   44.5163    0.0000 </r>
       <r>   44.6848    0.0000 </r>
       <r>   44.6848    0.0000 </r>
       <r>   44.8827    0.0000 </r>
       <r>   45.0458    0.0000 </r>
       <r>   45.0458    0.0000 </r>
       <r>   45.2548    0.0000 </r>
       <r>   45.3759    0.0000 </r>
       <r>   45.6296    0.0000 </r>
       <r>   45.6296    0.0000 </r>
       <r>   45.9946    0.0000 </r>
       <r>   45.9948    0.0000 </r>
      </set>
      <set comment="kpoint 3">
       <r>   -6.1402    1.0000 </r>
       <r>   -5.5120    1.0000 </r>
       <r>   -3.0630    1.0000 </r>
       <r>   -2.7248    1.0000 </r>
       <r>   -2.7248    1.0000 </r>
       <r>   -0.5863    1.0000 </r>
       <r>    0.7940    1.0000 </r>
       <r>    1.0227    1.0000 </r>
       <r>    1.1855    1.0000 </r>
       <r>    1.1855    1.0000 </r>
       <r>    2.8179    1.0000 </r>
       <r>    2.8179    1.0000 </r>
       <r>    2.8951    1.0000 </r>
       <r>    3.4366    1.0000 </r>
       <r>    4.7646    0.0460 </r>
       <r>    4.7646    0.0460 </r>
       <r>    6.1586    0.0000 </r>
       <r>    6.4032    0.0000 </r>
       <r>    8.2146    0.0000 </r>
       <r>    8.7241    0.0000 </r>
       <r>    9.1434    0.0000 </r>
       <r>    9.2142    0.0000 </r>
       <r>    9.2142    0.0000 </r>
       <r>    9.5348    0.0000 </r>
       <r>    9.8665    0.0000 </r>
       <r>    9.8665    0.0000 </r>
       <r>   10.5092    0.0000 </r>
       <r>   10.7525    0.0000 </r>
       <r>   11.0020    0.0000 </r>
       <r>   11.0020    0.0000 </r>
       <r>   12.7736    0.0000 </r>
       <r>   12.7736    0.0000 </r>
       <r>   13.5688    0.0000 </r>
       <r>   13.7012    0.0000 </r>
       <r>   14.8636    0.0000 </r>
       <r>   14.9454    0.0000 </r>
       <r>   15.1607    0.0000 </r>
       <r>   16.0200    0.0000 </r>
       <r>   16.0200    0.0000 </r>
       <r>   16.2646    0.0000 </r>
       <r>   16.5503    0.0000 </r>
       <r>   17.5746    0.0000 </r>
       <r>   17.6095    0.0000 </r>
       <r>   17.6095    0.0000 </r>
       <r>   18.1620    0.0000 </r>
       <r>   18.4047    0.0000 </r>
       <r>   18.4820    0.0000 </r>
       <r>   18.4820    0.0000 </r>
       <r>   19.1710    0.0000 </r>
       <r>   19.3239    0.0000 </r>
       <r>   19.3239    0.0000 </r>
       <r>   20.3411    0.0000 </r>
       <r>   21.3170    0.0000 </r>
       <r>   21.3427    0.0000 </r>
       <r>   21.3427    0.0000 </r>
       <r>   21.6197    0.0000 </r>
       <r>   22.5958    0.0000 </r>
       <r>   22.5958    0.0000 </r>
       <r>   22.7178    0.0000 </r>
       <r>   22.7178    0.0000 </r>
       <r>   23.1314    0.0000 </r>
       <r>   23.1522    0.0000 </r>
       <r>   23.4277    0.0000 </r>
       <r>   23.4935    0.0000 </r>
       <r>   23.4935    0.0000 </r>
       <r>   23.9782    0.0000 </r>
       <r>   24.1387    0.0000 </r>
       <r>   24.2275    0.0000 </r>
       <r>   24.8150    0.0000 </r>
       <r>   25.7738    0.0000 </r>
       <r>   26.0210    0.0000 </r>
       <r>   26.0210    0.0000 </r>
       <r>   26.4345    0.0000 </r>
       <r>   26.6085    0.0000 </r>
       <r>   26.6085    0.0000 </r>
       <r>   26.9160    0.0000 </r>
       <r>   26.9486    0.0000 </r>
       <r>   27.7178    0.0000 </r>
       <r>   28.6881    0.0000 </r>
       <r>   29.5998    0.0000 </r>
       <r>   29.7116    0.0000 </r>
       <r>   29.7116    0.0000 </r>
       <r>   29.9739    0.0000 </r>
       <r>   31.3655    0.0000 </r>
       <r>   31.7721    0.0000 </r>
       <r>   31.7721    0.0000 </r>
       <r>   31.9019    0.0000 </r>
       <r>   32.0262    0.0000 </r>
       <r>   32.0908    0.0000 </r>
       <r>   32.3174    0.0000 </r>
       <r>   32.3174    0.0000 </r>
       <r>   32.3769    0.0000 </r>
       <r>   32.4970    0.0000 </r>
       <r>   32.4970    0.0000 </r>
       <r>   33.5560    0.0000 </r>
       <r>   33.8207    0.0000 </r>
       <r>   33.8207    0.0000 </r>
       <r>   34.0691    0.0000 </r>
       <r>   34.3711    0.0000 </r>
       <r>   34.5004    0.0000 </r>
       <r>   34.7988    0.0000 </r>
       <r>   34.8765    0.0000 </r>
       <r>   34.8765    0.0000 </r>
       <r>   35.2745    0.0000 </r>
       <r>   35.2745    0.0000 </r>
       <r>   35.8246    0.0000 </r>
       <r>   35.8783    0.0000 </r>
       <r>   35.8783    0.0000 </r>
       <r>   36.5462    0.0000 </r>
       <r>   37.8558    0.0000 </r>
       <r>   38.3196    0.0000 </r>
       <r>   38.6908    0.0000 </r>
       <r>   38.6908    0.0000 </r>
       <r>   39.7868    0.0000 </r>
       <r>   39.7936    0.0000 </r>
       <r>   40.0883    0.0000 </r>
       <r>   40.3982    0.0000 </r>
       <r>   40.3982    0.0000 </r>
       <r>   40.4213    0.0000 </r>
       <r>   41.3743    0.0000 </r>
       <r>   41.6102    0.0000 </r>
       <r>   41.6102    0.0000 </r>
       <r>   41.6509    0.0000 </r>
       <r>   41.9774    0.0000 </r>
       <r>   41.9774    0.0000 </r>
       <r>   42.3900    0.0000 </r>
       <r>   42.4243    0.0000 </r>
       <r>   42.4243    0.0000 </r>
       <r>   42.5380    0.0000 </r>
       <r>   42.6942    0.0000 </r>
       <r>   43.1577    0.0000 </r>
       <r>   43.1577    0.0000 </r>
       <r>   44.2856    0.0000 </r>
       <r>   44.8496    0.0000 </r>
       <r>   44.8496    0.0000 </r>
       <r>   45.0649    0.0000 </r>
       <r>   45.3316    0.0000 </r>
       <r>   45.3577    0.0000 </r>
       <r>   45.4047    0.0000 </r>
       <r>   45.4049    0.0000 </r>
       <r>   45.6145    0.0000 </r>
       <r>   46.0188    0.0000 </r>
       <r>   46.4202    0.0000 </r>
       <r>   46.5189    0.0000 </r>
      </set>
      <set comment="kpoint 4">
       <r>   -6.4047    1.0000 </r>
       <r>   -4.6195    1.0000 </r>
       <r>   -4.1359    1.0000 </r>
       <r>   -2.8959    1.0000 </r>
       <r>   -1.9724    1.0000 </r>
       <r>   -1.1122    1.0000 </r>
       <r>    0.5316    1.0000 </r>
       <r>    1.3095    1.0000 </r>
       <r>    1.4713    1.0000 </r>
       <r>    1.8906    1.0000 </r>
       <r>    1.9005    1.0000 </r>
       <r>    2.8441    1.0000 </r>
       <r>    2.9867    1.0000 </r>
       <r>    3.8908    1.0000 </r>
       <r>    4.6820    0.7424 </r>
       <r>    5.7535    0.0000 </r>
       <r>    6.2057    0.0000 </r>
       <r>    6.7976    0.0000 </r>
       <r>    7.2173    0.0000 </r>
       <r>    7.4826    0.0000 </r>
       <r>    7.6450    0.0000 </r>
       <r>    9.0144    0.0000 </r>
       <r>    9.0403    0.0000 </r>
       <r>    9.2812    0.0000 </r>
       <r>    9.4065    0.0000 </r>
       <r>   10.3678    0.0000 </r>
       <r>   11.4692    0.0000 </r>
       <r>   11.5321    0.0000 </r>
       <r>   11.9130    0.0000 </r>
       <r>   12.4390    0.0000 </r>
       <r>   12.6770    0.0000 </r>
       <r>   13.2263    0.0000 </r>
       <r>   13.3452    0.0000 </r>
       <r>   13.9572    0.0000 </r>
       <r>   14.1043    0.0000 </r>
       <r>   14.7495    0.0000 </r>
       <r>   15.0362    0.0000 </r>
       <r>   15.6035    0.0000 </r>
       <r>   15.7666    0.0000 </r>
       <r>   16.0637    0.0000 </r>
       <r>   16.3289    0.0000 </r>
       <r>   16.7050    0.0000 </r>
       <r>   17.4532    0.0000 </r>
       <r>   18.1622    0.0000 </r>
       <r>   18.5873    0.0000 </r>
       <r>   18.5985    0.0000 </r>
       <r>   19.0169    0.0000 </r>
       <r>   19.2302    0.0000 </r>
       <r>   19.4990    0.0000 </r>
       <r>   19.5840    0.0000 </r>
       <r>   19.6746    0.0000 </r>
       <r>   19.9292    0.0000 </r>
       <r>   20.3983    0.0000 </r>
       <r>   20.6201    0.0000 </r>
       <r>   21.0844    0.0000 </r>
       <r>   21.2479    0.0000 </r>
       <r>   21.3648    0.0000 </r>
       <r>   22.2559    0.0000 </r>
       <r>   22.3481    0.0000 </r>
       <r>   22.6239    0.0000 </r>
       <r>   22.9609    0.0000 </r>
       <r>   23.0658    0.0000 </r>
       <r>   23.2287    0.0000 </r>
       <r>   23.8253    0.0000 </r>
       <r>   24.4515    0.0000 </r>
       <r>   24.6778    0.0000 </r>
       <r>   24.8568    0.0000 </r>
       <r>   25.0702    0.0000 </r>
       <r>   25.9939    0.0000 </r>
       <r>   26.1034    0.0000 </r>
       <r>   26.2427    0.0000 </r>
       <r>   26.3094    0.0000 </r>
       <r>   26.4240    0.0000 </r>
       <r>   26.9624    0.0000 </r>
       <r>   26.9848    0.0000 </r>
       <r>   27.1867    0.0000 </r>
       <r>   27.3773    0.0000 </r>
       <r>   27.7697    0.0000 </r>
       <r>   28.2929    0.0000 </r>
       <r>   28.5559    0.0000 </r>
       <r>   28.6380    0.0000 </r>
       <r>   29.0287    0.0000 </r>
       <r>   29.2952    0.0000 </r>
       <r>   29.9226    0.0000 </r>
       <r>   30.2745    0.0000 </r>
       <r>   30.4761    0.0000 </r>
       <r>   30.8543    0.0000 </r>
       <r>   31.0611    0.0000 </r>
       <r>   31.9167    0.0000 </r>
       <r>   32.1515    0.0000 </r>
       <r>   32.5633    0.0000 </r>
       <r>   32.6921    0.0000 </r>
       <r>   32.9914    0.0000 </r>
       <r>   33.3136    0.0000 </r>
       <r>   33.3339    0.0000 </r>
       <r>   33.5671    0.0000 </r>
       <r>   34.1927    0.0000 </r>
       <r>   34.5679    0.0000 </r>
       <r>   34.6940    0.0000 </r>
       <r>   35.0425    0.0000 </r>
       <r>   35.5507    0.0000 </r>
       <r>   35.5977    0.0000 </r>
       <r>   36.0966    0.0000 </r>
       <r>   36.2883    0.0000 </r>
       <r>   36.9260    0.0000 </r>
       <r>   37.1332    0.0000 </r>
       <r>   37.3302    0.0000 </r>
       <r>   37.6024    0.0000 </r>
       <r>   37.7048    0.0000 </r>
       <r>   37.7442    0.0000 </r>
       <r>   37.9048    0.0000 </r>
       <r>   38.3438    0.0000 </r>
       <r>   38.5351    0.0000 </r>
       <r>   38.7794    0.0000 </r>
       <r>   38.8802    0.0000 </r>
       <r>   39.2132    0.0000 </r>
       <r>   39.4534    0.0000 </r>
       <r>   39.5545    0.0000 </r>
       <r>   40.0688    0.0000 </r>
       <r>   40.1372    0.0000 </r>
       <r>   40.4211    0.0000 </r>
       <r>   40.8823    0.0000 </r>
       <r>   41.4957    0.0000 </r>
       <r>   41.9306    0.0000 </r>
       <r>   42.0260    0.0000 </r>
       <r>   42.2708    0.0000 </r>
       <r>   42.4040    0.0000 </r>
       <r>   43.0002    0.0000 </r>
       <r>   43.0160    0.0000 </r>
       <r>   43.3206    0.0000 </r>
       <r>   43.3824    0.0000 </r>
       <r>   43.4492    0.0000 </r>
       <r>   44.1151    0.0000 </r>
       <r>   44.3199    0.0000 </r>
       <r>   44.5803    0.0000 </r>
       <r>   44.7599    0.0000 </r>
       <r>   44.8249    0.0000 </r>
       <r>   44.9565    0.0000 </r>
       <r>   45.3374    0.0000 </r>
       <r>   45.7460    0.0000 </r>
       <r>   45.7978    0.0000 </r>
       <r>   46.1075    0.0000 </r>
       <r>   46.2805    0.0000 </r>
       <r>   46.4743    0.0000 </r>
      </set>
      <set comment="kpoint 5">
       <r>   -5.8976    1.0000 </r>
       <r>   -5.3636    1.0000 </r>
       <r>   -4.1350    1.0000 </r>
       <r>   -3.0567    1.0000 </r>
       <r>   -1.6954    1.0000 </r>
       <r>   -0.6647    1.0000 </r>
       <r>    0.4342    1.0000 </r>
       <r>    0.6226    1.0000 </r>
       <r>    1.4174    1.0000 </r>
       <r>    1.8269    1.0000 </r>
       <r>    2.4321    1.0000 </r>
       <r>    2.6371    1.0000 </r>
       <r>    3.0156    1.0000 </r>
       <r>    3.3582    1.0000 </r>
       <r>    4.8845    0.0000 </r>
       <r>    4.8865    0.0000 </r>
       <r>    7.4029    0.0000 </r>
       <r>    7.6116    0.0000 </r>
       <r>    7.7735    0.0000 </r>
       <r>    7.9155    0.0000 </r>
       <r>    8.9993    0.0000 </r>
       <r>    9.3630    0.0000 </r>
       <r>    9.3763    0.0000 </r>
       <r>    9.7588    0.0000 </r>
       <r>    9.8120    0.0000 </r>
       <r>    9.9080    0.0000 </r>
       <r>   10.3160    0.0000 </r>
       <r>   10.6287    0.0000 </r>
       <r>   11.3668    0.0000 </r>
       <r>   12.0169    0.0000 </r>
       <r>   12.3587    0.0000 </r>
       <r>   12.4663    0.0000 </r>
       <r>   12.8680    0.0000 </r>
       <r>   12.9672    0.0000 </r>
       <r>   13.6691    0.0000 </r>
       <r>   14.1490    0.0000 </r>
       <r>   14.9387    0.0000 </r>
       <r>   15.2570    0.0000 </r>
       <r>   16.0471    0.0000 </r>
       <r>   16.2320    0.0000 </r>
       <r>   16.7634    0.0000 </r>
       <r>   16.8379    0.0000 </r>
       <r>   17.0623    0.0000 </r>
       <r>   17.5606    0.0000 </r>
       <r>   18.7016    0.0000 </r>
       <r>   19.0028    0.0000 </r>
       <r>   19.0464    0.0000 </r>
       <r>   19.2531    0.0000 </r>
       <r>   19.6202    0.0000 </r>
       <r>   19.6658    0.0000 </r>
       <r>   19.7471    0.0000 </r>
       <r>   20.1938    0.0000 </r>
       <r>   20.2966    0.0000 </r>
       <r>   20.2971    0.0000 </r>
       <r>   21.0413    0.0000 </r>
       <r>   21.3387    0.0000 </r>
       <r>   21.9341    0.0000 </r>
       <r>   21.9596    0.0000 </r>
       <r>   22.1818    0.0000 </r>
       <r>   22.9491    0.0000 </r>
       <r>   23.2078    0.0000 </r>
       <r>   23.7588    0.0000 </r>
       <r>   23.8632    0.0000 </r>
       <r>   23.9959    0.0000 </r>
       <r>   24.4102    0.0000 </r>
       <r>   24.4525    0.0000 </r>
       <r>   25.3457    0.0000 </r>
       <r>   25.4077    0.0000 </r>
       <r>   25.5351    0.0000 </r>
       <r>   25.9663    0.0000 </r>
       <r>   26.2354    0.0000 </r>
       <r>   26.4662    0.0000 </r>
       <r>   26.9176    0.0000 </r>
       <r>   27.1605    0.0000 </r>
       <r>   27.3779    0.0000 </r>
       <r>   27.3958    0.0000 </r>
       <r>   27.8458    0.0000 </r>
       <r>   28.2501    0.0000 </r>
       <r>   28.4895    0.0000 </r>
       <r>   28.9645    0.0000 </r>
       <r>   29.1107    0.0000 </r>
       <r>   29.5455    0.0000 </r>
       <r>   29.5938    0.0000 </r>
       <r>   30.0074    0.0000 </r>
       <r>   30.7635    0.0000 </r>
       <r>   30.7808    0.0000 </r>
       <r>   31.3944    0.0000 </r>
       <r>   31.8232    0.0000 </r>
       <r>   32.0360    0.0000 </r>
       <r>   32.1364    0.0000 </r>
       <r>   32.4384    0.0000 </r>
       <r>   32.6714    0.0000 </r>
       <r>   32.6799    0.0000 </r>
       <r>   33.3283    0.0000 </r>
       <r>   33.3738    0.0000 </r>
       <r>   33.7263    0.0000 </r>
       <r>   33.8393    0.0000 </r>
       <r>   34.1414    0.0000 </r>
       <r>   34.4794    0.0000 </r>
       <r>   34.6720    0.0000 </r>
       <r>   35.0224    0.0000 </r>
       <r>   35.0667    0.0000 </r>
       <r>   35.5754    0.0000 </r>
       <r>   36.1673    0.0000 </r>
       <r>   36.1832    0.0000 </r>
       <r>   36.2136    0.0000 </r>
       <r>   36.4583    0.0000 </r>
       <r>   36.9587    0.0000 </r>
       <r>   37.1733    0.0000 </r>
       <r>   37.2646    0.0000 </r>
       <r>   37.3791    0.0000 </r>
       <r>   38.0924    0.0000 </r>
       <r>   38.0990    0.0000 </r>
       <r>   38.3064    0.0000 </r>
       <r>   38.7022    0.0000 </r>
       <r>   38.9671    0.0000 </r>
       <r>   39.2615    0.0000 </r>
       <r>   39.4539    0.0000 </r>
       <r>   40.2482    0.0000 </r>
       <r>   40.4487    0.0000 </r>
       <r>   40.6802    0.0000 </r>
       <r>   40.7907    0.0000 </r>
       <r>   41.2462    0.0000 </r>
       <r>   41.4310    0.0000 </r>
       <r>   41.7888    0.0000 </r>
       <r>   41.9942    0.0000 </r>
       <r>   42.1875    0.0000 </r>
       <r>   42.3836    0.0000 </r>
       <r>   42.5976    0.0000 </r>
       <r>   42.8953    0.0000 </r>
       <r>   43.2301    0.0000 </r>
       <r>   43.5614    0.0000 </r>
       <r>   43.9373    0.0000 </r>
       <r>   44.1367    0.0000 </r>
       <r>   44.2724    0.0000 </r>
       <r>   44.6881    0.0000 </r>
       <r>   44.9550    0.0000 </r>
       <r>   45.2210    0.0000 </r>
       <r>   45.3365    0.0000 </r>
       <r>   45.3642    0.0000 </r>
       <r>   45.7843    0.0000 </r>
       <r>   45.9264    0.0000 </r>
       <r>   46.2406    0.0000 </r>
       <r>   46.6411    0.0000 </r>
      </set>
      <set comment="kpoint 6">
       <r>   -5.2219    1.0000 </r>
       <r>   -5.1699    1.0000 </r>
       <r>   -5.1699    1.0000 </r>
       <r>   -3.4368    1.0000 </r>
       <r>   -0.6082    1.0000 </r>
       <r>   -0.6082    1.0000 </r>
       <r>   -0.4898    1.0000 </r>
       <r>    0.7831    1.0000 </r>
       <r>    1.2293    1.0000 </r>
       <r>    1.2293    1.0000 </r>
       <r>    2.5858    1.0000 </r>
       <r>    2.9325    1.0000 </r>
       <r>    3.3081    1.0000 </r>
       <r>    3.3658    1.0000 </r>
       <r>    5.3754    0.0000 </r>
       <r>    5.3754    0.0000 </r>
       <r>    7.0493    0.0000 </r>
       <r>    7.0493    0.0000 </r>
       <r>    8.3972    0.0000 </r>
       <r>    8.3986    0.0000 </r>
       <r>    9.3611    0.0000 </r>
       <r>    9.5346    0.0000 </r>
       <r>    9.8458    0.0000 </r>
       <r>    9.8458    0.0000 </r>
       <r>   10.0361    0.0000 </r>
       <r>   10.2354    0.0000 </r>
       <r>   10.2354    0.0000 </r>
       <r>   10.6746    0.0000 </r>
       <r>   11.0279    0.0000 </r>
       <r>   11.8203    0.0000 </r>
       <r>   11.8203    0.0000 </r>
       <r>   12.4363    0.0000 </r>
       <r>   12.6032    0.0000 </r>
       <r>   12.6032    0.0000 </r>
       <r>   12.6380    0.0000 </r>
       <r>   12.9287    0.0000 </r>
       <r>   14.5801    0.0000 </r>
       <r>   15.4405    0.0000 </r>
       <r>   15.4405    0.0000 </r>
       <r>   15.6350    0.0000 </r>
       <r>   17.4886    0.0000 </r>
       <r>   17.5224    0.0000 </r>
       <r>   17.5224    0.0000 </r>
       <r>   18.1823    0.0000 </r>
       <r>   18.1823    0.0000 </r>
       <r>   18.2631    0.0000 </r>
       <r>   18.4508    0.0000 </r>
       <r>   18.8115    0.0000 </r>
       <r>   19.0444    0.0000 </r>
       <r>   19.0617    0.0000 </r>
       <r>   19.0617    0.0000 </r>
       <r>   20.4645    0.0000 </r>
       <r>   21.3387    0.0000 </r>
       <r>   21.7367    0.0000 </r>
       <r>   21.7367    0.0000 </r>
       <r>   21.7790    0.0000 </r>
       <r>   21.8531    0.0000 </r>
       <r>   21.8531    0.0000 </r>
       <r>   21.9347    0.0000 </r>
       <r>   22.5537    0.0000 </r>
       <r>   23.0068    0.0000 </r>
       <r>   23.3322    0.0000 </r>
       <r>   23.5908    0.0000 </r>
       <r>   23.5908    0.0000 </r>
       <r>   24.3630    0.0000 </r>
       <r>   25.1942    0.0000 </r>
       <r>   26.3547    0.0000 </r>
       <r>   26.3547    0.0000 </r>
       <r>   26.5583    0.0000 </r>
       <r>   26.5583    0.0000 </r>
       <r>   26.8001    0.0000 </r>
       <r>   26.8036    0.0000 </r>
       <r>   26.8036    0.0000 </r>
       <r>   27.5043    0.0000 </r>
       <r>   27.5740    0.0000 </r>
       <r>   27.6477    0.0000 </r>
       <r>   28.8096    0.0000 </r>
       <r>   28.8968    0.0000 </r>
       <r>   28.8968    0.0000 </r>
       <r>   29.4950    0.0000 </r>
       <r>   29.6359    0.0000 </r>
       <r>   29.7597    0.0000 </r>
       <r>   29.7597    0.0000 </r>
       <r>   31.0400    0.0000 </r>
       <r>   31.1405    0.0000 </r>
       <r>   31.2511    0.0000 </r>
       <r>   31.2511    0.0000 </r>
       <r>   31.2684    0.0000 </r>
       <r>   31.2945    0.0000 </r>
       <r>   31.6086    0.0000 </r>
       <r>   31.9738    0.0000 </r>
       <r>   31.9738    0.0000 </r>
       <r>   32.6771    0.0000 </r>
       <r>   32.6771    0.0000 </r>
       <r>   32.8103    0.0000 </r>
       <r>   32.8103    0.0000 </r>
       <r>   32.8371    0.0000 </r>
       <r>   33.3896    0.0000 </r>
       <r>   33.7665    0.0000 </r>
       <r>   34.1310    0.0000 </r>
       <r>   34.1385    0.0000 </r>
       <r>   34.5259    0.0000 </r>
       <r>   35.4023    0.0000 </r>
       <r>   35.5065    0.0000 </r>
       <r>   35.5065    0.0000 </r>
       <r>   36.2528    0.0000 </r>
       <r>   36.6170    0.0000 </r>
       <r>   36.6170    0.0000 </r>
       <r>   37.1027    0.0000 </r>
       <r>   37.1027    0.0000 </r>
       <r>   37.6374    0.0000 </r>
       <r>   38.3078    0.0000 </r>
       <r>   39.0198    0.0000 </r>
       <r>   39.0198    0.0000 </r>
       <r>   39.0396    0.0000 </r>
       <r>   39.7673    0.0000 </r>
       <r>   40.3431    0.0000 </r>
       <r>   40.7302    0.0000 </r>
       <r>   40.8822    0.0000 </r>
       <r>   40.8822    0.0000 </r>
       <r>   40.9115    0.0000 </r>
       <r>   41.5509    0.0000 </r>
       <r>   41.8590    0.0000 </r>
       <r>   41.8918    0.0000 </r>
       <r>   41.8918    0.0000 </r>
       <r>   42.2378    0.0000 </r>
       <r>   42.5527    0.0000 </r>
       <r>   42.7096    0.0000 </r>
       <r>   42.7352    0.0000 </r>
       <r>   42.7352    0.0000 </r>
       <r>   42.7982    0.0000 </r>
       <r>   42.7982    0.0000 </r>
       <r>   42.9119    0.0000 </r>
       <r>   43.0195    0.0000 </r>
       <r>   43.0195    0.0000 </r>
       <r>   43.3790    0.0000 </r>
       <r>   43.6216    0.0000 </r>
       <r>   43.8308    0.0000 </r>
       <r>   43.8308    0.0000 </r>
       <r>   44.2636    0.0000 </r>
       <r>   44.2636    0.0000 </r>
       <r>   44.5760    0.0000 </r>
       <r>   44.7901    0.0000 </r>
       <r>   45.0838    0.0000 </r>
      </set>
      <set comment="kpoint 7">
       <r>   -6.1714    1.0000 </r>
       <r>   -4.5139    1.0000 </r>
       <r>   -4.5139    1.0000 </r>
       <r>   -3.2168    1.0000 </r>
       <r>   -1.4624    1.0000 </r>
       <r>   -1.4624    1.0000 </r>
       <r>    0.1464    1.0000 </r>
       <r>    1.2143    1.0000 </r>
       <r>    1.2143    1.0000 </r>
       <r>    2.1846    1.0000 </r>
       <r>    2.3601    1.0000 </r>
       <r>    3.1530    1.0000 </r>
       <r>    3.1530    1.0000 </r>
       <r>    3.5166    1.0000 </r>
       <r>    5.4885    0.0000 </r>
       <r>    5.4885    0.0000 </r>
       <r>    6.4553    0.0000 </r>
       <r>    6.4553    0.0000 </r>
       <r>    6.4595    0.0000 </r>
       <r>    8.4902    0.0000 </r>
       <r>    8.7370    0.0000 </r>
       <r>    8.7370    0.0000 </r>
       <r>    9.6882    0.0000 </r>
       <r>    9.6882    0.0000 </r>
       <r>   10.0082    0.0000 </r>
       <r>   10.3729    0.0000 </r>
       <r>   10.3729    0.0000 </r>
       <r>   10.4689    0.0000 </r>
       <r>   11.7763    0.0000 </r>
       <r>   11.7763    0.0000 </r>
       <r>   12.4277    0.0000 </r>
       <r>   12.8975    0.0000 </r>
       <r>   12.8975    0.0000 </r>
       <r>   13.9005    0.0000 </r>
       <r>   14.0439    0.0000 </r>
       <r>   15.2592    0.0000 </r>
       <r>   15.3394    0.0000 </r>
       <r>   15.3394    0.0000 </r>
       <r>   15.7868    0.0000 </r>
       <r>   16.0362    0.0000 </r>
       <r>   16.0362    0.0000 </r>
       <r>   16.9171    0.0000 </r>
       <r>   17.2999    0.0000 </r>
       <r>   17.5041    0.0000 </r>
       <r>   17.5041    0.0000 </r>
       <r>   17.7964    0.0000 </r>
       <r>   18.4430    0.0000 </r>
       <r>   18.4430    0.0000 </r>
       <r>   19.4233    0.0000 </r>
       <r>   19.4233    0.0000 </r>
       <r>   19.4426    0.0000 </r>
       <r>   20.1986    0.0000 </r>
       <r>   20.1986    0.0000 </r>
       <r>   22.0308    0.0000 </r>
       <r>   22.0308    0.0000 </r>
       <r>   22.2809    0.0000 </r>
       <r>   22.3477    0.0000 </r>
       <r>   22.8677    0.0000 </r>
       <r>   22.8677    0.0000 </r>
       <r>   23.1715    0.0000 </r>
       <r>   23.1715    0.0000 </r>
       <r>   23.1848    0.0000 </r>
       <r>   24.0264    0.0000 </r>
       <r>   24.0264    0.0000 </r>
       <r>   24.0781    0.0000 </r>
       <r>   24.3945    0.0000 </r>
       <r>   24.6062    0.0000 </r>
       <r>   24.6062    0.0000 </r>
       <r>   24.8077    0.0000 </r>
       <r>   25.8237    0.0000 </r>
       <r>   25.8237    0.0000 </r>
       <r>   26.2880    0.0000 </r>
       <r>   26.5832    0.0000 </r>
       <r>   26.6451    0.0000 </r>
       <r>   26.6451    0.0000 </r>
       <r>   27.7695    0.0000 </r>
       <r>   27.7695    0.0000 </r>
       <r>   28.7614    0.0000 </r>
       <r>   28.9237    0.0000 </r>
       <r>   28.9237    0.0000 </r>
       <r>   29.6385    0.0000 </r>
       <r>   29.8552    0.0000 </r>
       <r>   29.8552    0.0000 </r>
       <r>   29.9953    0.0000 </r>
       <r>   30.3826    0.0000 </r>
       <r>   30.3826    0.0000 </r>
       <r>   31.3105    0.0000 </r>
       <r>   32.2716    0.0000 </r>
       <r>   32.2716    0.0000 </r>
       <r>   32.5235    0.0000 </r>
       <r>   32.9756    0.0000 </r>
       <r>   32.9756    0.0000 </r>
       <r>   33.3215    0.0000 </r>
       <r>   33.5936    0.0000 </r>
       <r>   33.5936    0.0000 </r>
       <r>   33.6018    0.0000 </r>
       <r>   34.1415    0.0000 </r>
       <r>   34.1415    0.0000 </r>
       <r>   34.1430    0.0000 </r>
       <r>   34.6392    0.0000 </r>
       <r>   34.9124    0.0000 </r>
       <r>   34.9124    0.0000 </r>
       <r>   35.5814    0.0000 </r>
       <r>   35.8214    0.0000 </r>
       <r>   35.8214    0.0000 </r>
       <r>   36.1333    0.0000 </r>
       <r>   36.4358    0.0000 </r>
       <r>   36.4358    0.0000 </r>
       <r>   37.0160    0.0000 </r>
       <r>   37.3984    0.0000 </r>
       <r>   37.3984    0.0000 </r>
       <r>   37.7789    0.0000 </r>
       <r>   37.7789    0.0000 </r>
       <r>   38.9240    0.0000 </r>
       <r>   39.2466    0.0000 </r>
       <r>   39.2466    0.0000 </r>
       <r>   39.2939    0.0000 </r>
       <r>   39.8123    0.0000 </r>
       <r>   39.8123    0.0000 </r>
       <r>   40.5132    0.0000 </r>
       <r>   40.5132    0.0000 </r>
       <r>   41.0810    0.0000 </r>
       <r>   41.1021    0.0000 </r>
       <r>   41.1021    0.0000 </r>
       <r>   41.6359    0.0000 </r>
       <r>   41.9134    0.0000 </r>
       <r>   41.9134    0.0000 </r>
       <r>   42.1263    0.0000 </r>
       <r>   42.8203    0.0000 </r>
       <r>   42.8203    0.0000 </r>
       <r>   42.8942    0.0000 </r>
       <r>   43.2969    0.0000 </r>
       <r>   43.2969    0.0000 </r>
       <r>   43.3331    0.0000 </r>
       <r>   43.7644    0.0000 </r>
       <r>   44.6810    0.0000 </r>
       <r>   44.7975    0.0000 </r>
       <r>   44.7975    0.0000 </r>
       <r>   45.2901    0.0000 </r>
       <r>   45.6512    0.0000 </r>
       <r>   45.6512    0.0000 </r>
       <r>   46.7264    0.0000 </r>
       <r>   46.7269    0.0000 </r>
       <r>   46.8197    0.0000 </r>
      </set>
      <set comment="kpoint 8">
       <r>   -5.6767    1.0000 </r>
       <r>   -5.2294    1.0000 </r>
       <r>   -4.3906    1.0000 </r>
       <r>   -3.2060    1.0000 </r>
       <r>   -1.8066    1.0000 </r>
       <r>   -1.1867    1.0000 </r>
       <r>   -0.3740    1.0000 </r>
       <r>    1.2316    1.0000 </r>
       <r>    1.7260    1.0000 </r>
       <r>    2.1384    1.0000 </r>
       <r>    2.5505    1.0000 </r>
       <r>    2.7028    1.0000 </r>
       <r>    3.0984    1.0000 </r>
       <r>    4.3642    1.0000 </r>
       <r>    4.8847    0.0000 </r>
       <r>    5.2647    0.0000 </r>
       <r>    7.0275    0.0000 </r>
       <r>    7.6074    0.0000 </r>
       <r>    7.9085    0.0000 </r>
       <r>    7.9864    0.0000 </r>
       <r>    8.0097    0.0000 </r>
       <r>    8.5069    0.0000 </r>
       <r>    9.5495    0.0000 </r>
       <r>    9.5563    0.0000 </r>
       <r>   10.0274    0.0000 </r>
       <r>   10.1921    0.0000 </r>
       <r>   10.2296    0.0000 </r>
       <r>   10.8021    0.0000 </r>
       <r>   11.6062    0.0000 </r>
       <r>   11.9225    0.0000 </r>
       <r>   12.4155    0.0000 </r>
       <r>   12.8014    0.0000 </r>
       <r>   12.8146    0.0000 </r>
       <r>   13.1708    0.0000 </r>
       <r>   14.3189    0.0000 </r>
       <r>   14.5833    0.0000 </r>
       <r>   14.8394    0.0000 </r>
       <r>   15.0267    0.0000 </r>
       <r>   15.4430    0.0000 </r>
       <r>   15.4803    0.0000 </r>
       <r>   16.0147    0.0000 </r>
       <r>   16.5173    0.0000 </r>
       <r>   16.8719    0.0000 </r>
       <r>   16.9063    0.0000 </r>
       <r>   18.0228    0.0000 </r>
       <r>   18.5703    0.0000 </r>
       <r>   18.7717    0.0000 </r>
       <r>   18.7762    0.0000 </r>
       <r>   18.8710    0.0000 </r>
       <r>   19.1126    0.0000 </r>
       <r>   20.2051    0.0000 </r>
       <r>   20.5593    0.0000 </r>
       <r>   20.5895    0.0000 </r>
       <r>   21.1135    0.0000 </r>
       <r>   21.2291    0.0000 </r>
       <r>   21.9376    0.0000 </r>
       <r>   22.2114    0.0000 </r>
       <r>   22.4053    0.0000 </r>
       <r>   23.0180    0.0000 </r>
       <r>   23.1368    0.0000 </r>
       <r>   23.2476    0.0000 </r>
       <r>   23.6028    0.0000 </r>
       <r>   23.9997    0.0000 </r>
       <r>   24.0926    0.0000 </r>
       <r>   24.0961    0.0000 </r>
       <r>   24.6998    0.0000 </r>
       <r>   24.9053    0.0000 </r>
       <r>   25.6378    0.0000 </r>
       <r>   25.6942    0.0000 </r>
       <r>   26.2902    0.0000 </r>
       <r>   26.4587    0.0000 </r>
       <r>   26.6947    0.0000 </r>
       <r>   27.0483    0.0000 </r>
       <r>   27.4999    0.0000 </r>
       <r>   28.0087    0.0000 </r>
       <r>   28.1017    0.0000 </r>
       <r>   28.2760    0.0000 </r>
       <r>   28.8085    0.0000 </r>
       <r>   29.2750    0.0000 </r>
       <r>   29.2889    0.0000 </r>
       <r>   29.5164    0.0000 </r>
       <r>   30.0257    0.0000 </r>
       <r>   30.0573    0.0000 </r>
       <r>   30.2228    0.0000 </r>
       <r>   30.4442    0.0000 </r>
       <r>   30.8451    0.0000 </r>
       <r>   30.9688    0.0000 </r>
       <r>   31.1830    0.0000 </r>
       <r>   31.7827    0.0000 </r>
       <r>   31.8299    0.0000 </r>
       <r>   32.1038    0.0000 </r>
       <r>   32.2991    0.0000 </r>
       <r>   32.7288    0.0000 </r>
       <r>   33.4212    0.0000 </r>
       <r>   33.9740    0.0000 </r>
       <r>   34.1590    0.0000 </r>
       <r>   34.4188    0.0000 </r>
       <r>   34.4340    0.0000 </r>
       <r>   34.8095    0.0000 </r>
       <r>   34.8117    0.0000 </r>
       <r>   35.1318    0.0000 </r>
       <r>   35.3035    0.0000 </r>
       <r>   35.5853    0.0000 </r>
       <r>   35.7560    0.0000 </r>
       <r>   35.8022    0.0000 </r>
       <r>   36.1497    0.0000 </r>
       <r>   36.2149    0.0000 </r>
       <r>   36.5682    0.0000 </r>
       <r>   36.7067    0.0000 </r>
       <r>   37.0514    0.0000 </r>
       <r>   37.0626    0.0000 </r>
       <r>   37.1765    0.0000 </r>
       <r>   37.3609    0.0000 </r>
       <r>   37.7153    0.0000 </r>
       <r>   37.9001    0.0000 </r>
       <r>   38.2356    0.0000 </r>
       <r>   38.7512    0.0000 </r>
       <r>   39.3238    0.0000 </r>
       <r>   39.6093    0.0000 </r>
       <r>   39.7280    0.0000 </r>
       <r>   39.9158    0.0000 </r>
       <r>   40.4954    0.0000 </r>
       <r>   40.8723    0.0000 </r>
       <r>   41.1099    0.0000 </r>
       <r>   41.2380    0.0000 </r>
       <r>   41.6670    0.0000 </r>
       <r>   41.6767    0.0000 </r>
       <r>   42.2041    0.0000 </r>
       <r>   42.5880    0.0000 </r>
       <r>   42.6338    0.0000 </r>
       <r>   43.1660    0.0000 </r>
       <r>   43.3097    0.0000 </r>
       <r>   43.4880    0.0000 </r>
       <r>   43.6174    0.0000 </r>
       <r>   44.1484    0.0000 </r>
       <r>   44.1974    0.0000 </r>
       <r>   44.7729    0.0000 </r>
       <r>   45.0296    0.0000 </r>
       <r>   45.2332    0.0000 </r>
       <r>   45.4445    0.0000 </r>
       <r>   45.9073    0.0000 </r>
       <r>   46.2979    0.0000 </r>
       <r>   47.0647    0.0000 </r>
       <r>   47.1256    0.0000 </r>
      </set>
      <set comment="kpoint 9">
       <r>   -5.0925    1.0000 </r>
       <r>   -5.0608    1.0000 </r>
       <r>   -5.0608    1.0000 </r>
       <r>   -3.3963    1.0000 </r>
       <r>   -1.4296    1.0000 </r>
       <r>   -1.4041    1.0000 </r>
       <r>   -1.4041    1.0000 </r>
       <r>    1.1778    1.0000 </r>
       <r>    2.2573    1.0000 </r>
       <r>    2.3511    1.0000 </r>
       <r>    2.3511    1.0000 </r>
       <r>    3.3275    1.0000 </r>
       <r>    3.4530    1.0000 </r>
       <r>    4.6748    0.8038 </r>
       <r>    5.5289    0.0000 </r>
       <r>    5.5289    0.0000 </r>
       <r>    6.9886    0.0000 </r>
       <r>    6.9886    0.0000 </r>
       <r>    7.6142    0.0000 </r>
       <r>    8.3067    0.0000 </r>
       <r>    8.3067    0.0000 </r>
       <r>    8.4441    0.0000 </r>
       <r>    8.5101    0.0000 </r>
       <r>    8.9902    0.0000 </r>
       <r>    9.2293    0.0000 </r>
       <r>   10.2597    0.0000 </r>
       <r>   10.2597    0.0000 </r>
       <r>   10.7189    0.0000 </r>
       <r>   12.5572    0.0000 </r>
       <r>   12.6844    0.0000 </r>
       <r>   12.6990    0.0000 </r>
       <r>   12.6990    0.0000 </r>
       <r>   13.7939    0.0000 </r>
       <r>   13.7939    0.0000 </r>
       <r>   13.8543    0.0000 </r>
       <r>   13.9928    0.0000 </r>
       <r>   14.1654    0.0000 </r>
       <r>   14.8591    0.0000 </r>
       <r>   14.8591    0.0000 </r>
       <r>   15.3140    0.0000 </r>
       <r>   16.2110    0.0000 </r>
       <r>   16.2110    0.0000 </r>
       <r>   16.2785    0.0000 </r>
       <r>   16.8561    0.0000 </r>
       <r>   18.0652    0.0000 </r>
       <r>   18.0652    0.0000 </r>
       <r>   18.1717    0.0000 </r>
       <r>   18.8328    0.0000 </r>
       <r>   19.0425    0.0000 </r>
       <r>   19.2947    0.0000 </r>
       <r>   19.2947    0.0000 </r>
       <r>   19.4902    0.0000 </r>
       <r>   20.0033    0.0000 </r>
       <r>   21.5205    0.0000 </r>
       <r>   21.5205    0.0000 </r>
       <r>   21.9387    0.0000 </r>
       <r>   22.3319    0.0000 </r>
       <r>   22.5897    0.0000 </r>
       <r>   22.6375    0.0000 </r>
       <r>   22.6375    0.0000 </r>
       <r>   23.6621    0.0000 </r>
       <r>   23.6621    0.0000 </r>
       <r>   23.7426    0.0000 </r>
       <r>   24.9855    0.0000 </r>
       <r>   25.2318    0.0000 </r>
       <r>   25.9370    0.0000 </r>
       <r>   25.9370    0.0000 </r>
       <r>   26.1509    0.0000 </r>
       <r>   26.9914    0.0000 </r>
       <r>   26.9914    0.0000 </r>
       <r>   27.1769    0.0000 </r>
       <r>   27.1913    0.0000 </r>
       <r>   27.3288    0.0000 </r>
       <r>   27.4868    0.0000 </r>
       <r>   27.4868    0.0000 </r>
       <r>   28.5240    0.0000 </r>
       <r>   28.7718    0.0000 </r>
       <r>   28.7718    0.0000 </r>
       <r>   29.2584    0.0000 </r>
       <r>   29.2783    0.0000 </r>
       <r>   29.4581    0.0000 </r>
       <r>   30.3738    0.0000 </r>
       <r>   30.3738    0.0000 </r>
       <r>   30.4001    0.0000 </r>
       <r>   30.4416    0.0000 </r>
       <r>   30.7105    0.0000 </r>
       <r>   30.7105    0.0000 </r>
       <r>   31.5703    0.0000 </r>
       <r>   31.9702    0.0000 </r>
       <r>   31.9702    0.0000 </r>
       <r>   32.0839    0.0000 </r>
       <r>   32.4358    0.0000 </r>
       <r>   32.6518    0.0000 </r>
       <r>   32.9902    0.0000 </r>
       <r>   32.9902    0.0000 </r>
       <r>   33.5904    0.0000 </r>
       <r>   33.5904    0.0000 </r>
       <r>   33.7187    0.0000 </r>
       <r>   33.8009    0.0000 </r>
       <r>   34.1353    0.0000 </r>
       <r>   35.0012    0.0000 </r>
       <r>   35.1864    0.0000 </r>
       <r>   35.1864    0.0000 </r>
       <r>   35.3199    0.0000 </r>
       <r>   35.6334    0.0000 </r>
       <r>   36.1222    0.0000 </r>
       <r>   36.2722    0.0000 </r>
       <r>   36.2722    0.0000 </r>
       <r>   36.8862    0.0000 </r>
       <r>   37.5044    0.0000 </r>
       <r>   37.5044    0.0000 </r>
       <r>   37.5048    0.0000 </r>
       <r>   37.9616    0.0000 </r>
       <r>   38.1154    0.0000 </r>
       <r>   38.1154    0.0000 </r>
       <r>   38.1886    0.0000 </r>
       <r>   39.0395    0.0000 </r>
       <r>   39.2065    0.0000 </r>
       <r>   39.2065    0.0000 </r>
       <r>   39.2108    0.0000 </r>
       <r>   39.5882    0.0000 </r>
       <r>   39.8537    0.0000 </r>
       <r>   39.8537    0.0000 </r>
       <r>   40.7964    0.0000 </r>
       <r>   41.0584    0.0000 </r>
       <r>   41.7890    0.0000 </r>
       <r>   41.7890    0.0000 </r>
       <r>   41.8011    0.0000 </r>
       <r>   42.1973    0.0000 </r>
       <r>   42.7688    0.0000 </r>
       <r>   42.8965    0.0000 </r>
       <r>   42.9848    0.0000 </r>
       <r>   42.9848    0.0000 </r>
       <r>   43.5294    0.0000 </r>
       <r>   44.1362    0.0000 </r>
       <r>   44.1362    0.0000 </r>
       <r>   44.3309    0.0000 </r>
       <r>   44.9711    0.0000 </r>
       <r>   44.9711    0.0000 </r>
       <r>   45.5230    0.0000 </r>
       <r>   45.5584    0.0000 </r>
       <r>   45.7624    0.0000 </r>
       <r>   45.7625    0.0000 </r>
       <r>   46.1703    0.0000 </r>
      </set>
      <set comment="kpoint 10">
       <r>   -4.9333    1.0000 </r>
       <r>   -4.9333    1.0000 </r>
       <r>   -4.9333    1.0000 </r>
       <r>   -3.3892    1.0000 </r>
       <r>   -1.9396    1.0000 </r>
       <r>   -1.9396    1.0000 </r>
       <r>   -1.9396    1.0000 </r>
       <r>    0.6133    1.0000 </r>
       <r>    3.3580    1.0000 </r>
       <r>    3.3580    1.0000 </r>
       <r>    3.3580    1.0000 </r>
       <r>    3.5366    1.0000 </r>
       <r>    3.5366    1.0000 </r>
       <r>    5.8948    0.0000 </r>
       <r>    5.8948    0.0000 </r>
       <r>    5.8948    0.0000 </r>
       <r>    6.2972    0.0000 </r>
       <r>    6.2972    0.0000 </r>
       <r>    6.2972    0.0000 </r>
       <r>    7.9073    0.0000 </r>
       <r>    7.9073    0.0000 </r>
       <r>    7.9073    0.0000 </r>
       <r>    8.6062    0.0000 </r>
       <r>    8.6062    0.0000 </r>
       <r>    9.6315    0.0000 </r>
       <r>    9.6989    0.0000 </r>
       <r>    9.6989    0.0000 </r>
       <r>    9.6989    0.0000 </r>
       <r>   12.6487    0.0000 </r>
       <r>   12.7990    0.0000 </r>
       <r>   12.7990    0.0000 </r>
       <r>   12.7990    0.0000 </r>
       <r>   15.2730    0.0000 </r>
       <r>   15.2730    0.0000 </r>
       <r>   15.2730    0.0000 </r>
       <r>   15.3751    0.0000 </r>
       <r>   15.3751    0.0000 </r>
       <r>   15.7005    0.0000 </r>
       <r>   15.7005    0.0000 </r>
       <r>   15.7005    0.0000 </r>
       <r>   16.0959    0.0000 </r>
       <r>   16.0959    0.0000 </r>
       <r>   16.0959    0.0000 </r>
       <r>   16.7223    0.0000 </r>
       <r>   16.8398    0.0000 </r>
       <r>   16.8398    0.0000 </r>
       <r>   16.8398    0.0000 </r>
       <r>   17.4022    0.0000 </r>
       <r>   17.4022    0.0000 </r>
       <r>   17.4022    0.0000 </r>
       <r>   17.6395    0.0000 </r>
       <r>   17.6395    0.0000 </r>
       <r>   18.8604    0.0000 </r>
       <r>   21.1695    0.0000 </r>
       <r>   21.1695    0.0000 </r>
       <r>   21.1695    0.0000 </r>
       <r>   24.5912    0.0000 </r>
       <r>   24.5912    0.0000 </r>
       <r>   24.5912    0.0000 </r>
       <r>   24.6440    0.0000 </r>
       <r>   25.0951    0.0000 </r>
       <r>   25.0951    0.0000 </r>
       <r>   25.0951    0.0000 </r>
       <r>   25.6838    0.0000 </r>
       <r>   26.1854    0.0000 </r>
       <r>   26.1854    0.0000 </r>
       <r>   26.1854    0.0000 </r>
       <r>   26.4210    0.0000 </r>
       <r>   26.4210    0.0000 </r>
       <r>   26.4210    0.0000 </r>
       <r>   26.4633    0.0000 </r>
       <r>   26.4633    0.0000 </r>
       <r>   26.7413    0.0000 </r>
       <r>   26.7413    0.0000 </r>
       <r>   26.7413    0.0000 </r>
       <r>   28.3737    0.0000 </r>
       <r>   28.3737    0.0000 </r>
       <r>   28.3737    0.0000 </r>
       <r>   29.5202    0.0000 </r>
       <r>   29.5202    0.0000 </r>
       <r>   30.3554    0.0000 </r>
       <r>   31.2411    0.0000 </r>
       <r>   31.2411    0.0000 </r>
       <r>   31.2411    0.0000 </r>
       <r>   31.2941    0.0000 </r>
       <r>   31.2941    0.0000 </r>
       <r>   31.2941    0.0000 </r>
       <r>   31.9082    0.0000 </r>
       <r>   31.9082    0.0000 </r>
       <r>   31.9973    0.0000 </r>
       <r>   31.9973    0.0000 </r>
       <r>   31.9973    0.0000 </r>
       <r>   32.4276    0.0000 </r>
       <r>   32.4276    0.0000 </r>
       <r>   32.4276    0.0000 </r>
       <r>   32.9159    0.0000 </r>
       <r>   32.9159    0.0000 </r>
       <r>   32.9159    0.0000 </r>
       <r>   33.8427    0.0000 </r>
       <r>   33.8902    0.0000 </r>
       <r>   33.8902    0.0000 </r>
       <r>   35.6037    0.0000 </r>
       <r>   36.1710    0.0000 </r>
       <r>   36.1710    0.0000 </r>
       <r>   36.1710    0.0000 </r>
       <r>   36.3391    0.0000 </r>
       <r>   36.3391    0.0000 </r>
       <r>   36.3391    0.0000 </r>
       <r>   36.9577    0.0000 </r>
       <r>   36.9577    0.0000 </r>
       <r>   36.9577    0.0000 </r>
       <r>   37.5287    0.0000 </r>
       <r>   37.5287    0.0000 </r>
       <r>   37.9491    0.0000 </r>
       <r>   37.9491    0.0000 </r>
       <r>   37.9491    0.0000 </r>
       <r>   38.1398    0.0000 </r>
       <r>   38.3362    0.0000 </r>
       <r>   38.3362    0.0000 </r>
       <r>   38.3362    0.0000 </r>
       <r>   39.8383    0.0000 </r>
       <r>   39.8383    0.0000 </r>
       <r>   39.8383    0.0000 </r>
       <r>   40.5921    0.0000 </r>
       <r>   40.5921    0.0000 </r>
       <r>   40.8429    0.0000 </r>
       <r>   41.4780    0.0000 </r>
       <r>   41.7399    0.0000 </r>
       <r>   41.7399    0.0000 </r>
       <r>   41.7399    0.0000 </r>
       <r>   41.8552    0.0000 </r>
       <r>   41.8552    0.0000 </r>
       <r>   41.8552    0.0000 </r>
       <r>   42.5136    0.0000 </r>
       <r>   42.5136    0.0000 </r>
       <r>   42.5136    0.0000 </r>
       <r>   45.5121    0.0000 </r>
       <r>   45.5121    0.0000 </r>
       <r>   45.7089    0.0000 </r>
       <r>   45.7089    0.0000 </r>
       <r>   45.7089    0.0000 </r>
       <r>   47.1154    0.0000 </r>
       <r>   47.1155    0.0000 </r>
       <r>   47.1157    0.0000 </r>
      </set>
     </set>
     <set comment="spin 2">
      <set comment="kpoint 1">
       <r>   -6.8924    1.0000 </r>
       <r>   -3.2163    1.0000 </r>
       <r>   -3.2163    1.0000 </r>
       <r>   -2.8652    1.0000 </r>
       <r>   -2.8652    1.0000 </r>
       <r>   -2.8652    1.0000 </r>
       <r>    1.1481    1.0000 </r>
       <r>    1.7167    1.0000 </r>
       <r>    1.7167    1.0000 </r>
       <r>    1.7167    1.0000 </r>
       <r>    2.9824    1.0000 </r>
       <r>    2.9824    1.0000 </r>
       <r>    2.9824    1.0000 </r>
       <r>    5.5409    0.0000 </r>
       <r>    5.5409    0.0000 </r>
       <r>    5.5763    0.0000 </r>
       <r>    5.5763    0.0000 </r>
       <r>    5.5763    0.0000 </r>
       <r>    6.1823    0.0000 </r>
       <r>    6.1823    0.0000 </r>
       <r>    6.1823    0.0000 </r>
       <r>    6.3638    0.0000 </r>
       <r>    8.4670    0.0000 </r>
       <r>    8.4670    0.0000 </r>
       <r>    8.4670    0.0000 </r>
       <r>   10.0616    0.0000 </r>
[...]
        <r>  0.0000  0.0053  0.0008  0.0057  0.0000  0.0000  0.0000  0.0000  0.0000 </r>
       </set>
       <set comment="band 117">
        <r>  0.0170  0.0003  0.0003  0.0003  0.0000  0.0000  0.0000  0.0000  0.0000 </r>
        <r>  0.0000  0.0000  0.0000  0.0000  0.0000  0.0000  0.0000  0.0000  0.0000 </r>
        <r>  0.0170  0.0003  0.0003  0.0003  0.0000  0.0000  0.0000  0.0000  0.0000 </r>
        <r>  0.0000  0.0000  0.0000  0.0000  0.0000  0.0000  0.0000  0.0000  0.0000 </r>
        <r>  0.0170  0.0003  0.0003  0.0003  0.0000  0.0000  0.0000  0.0000  0.0000 </r>
        <r>  0.0000  0.0000  0.0000  0.0000  0.0000  0.0000  0.0000  0.0000  0.0000 </r>
        <r>  0.0170  0.0003  0.0003  0.0003  0.0000  0.0000  0.0000  0.0000  0.0000 </r>
       </set>
       <set comment="band 118">
        <r>  0.0002  0.0003  0.0001  0.0001  0.0000  0.0000  0.0000  0.0000  0.0000 </r>
        <r>  0.0034  0.0002  0.0000  0.0014  0.0000  0.0000  0.0000  0.0000  0.0000 </r>
        <r>  0.0015  0.0002  0.0001  0.0000  0.0000  0.0000  0.0000  0.0000  0.0000 </r>
        <r>  0.0166  0.0000  0.0002  0.0003  0.0000  0.0000  0.0000  0.0000  0.0000 </r>
        <r>  0.0042  0.0002  0.0000  0.0000  0.0000  0.0000  0.0000  0.0000  0.0000 </r>
        <r>  0.0023  0.0003  0.0014  0.0000  0.0000  0.0000  0.0000  0.0000  0.0000 </r>
        <r>  0.0023  0.0002  0.0000  0.0001  0.0000  0.0000  0.0000  0.0000  0.0000 </r>
       </set>
       <set comment="band 119">
        <r>  0.0024  0.0000  0.0000  0.0002  0.0000  0.0000  0.0000  0.0000  0.0000 </r>
        <r>  0.0020  0.0016  0.0000  0.0001  0.0000  0.0000  0.0000  0.0000  0.0000 </r>
        <r>  0.0014  0.0000  0.0000  0.0003  0.0000  0.0000  0.0000  0.0000  0.0000 </r>
        <r>  0.0010  0.0000  0.0016  0.0002  0.0000  0.0000  0.0000  0.0000  0.0000 </r>
        <r>  0.0015  0.0000  0.0000  0.0003  0.0000  0.0000  0.0000  0.0000  0.0000 </r>
        <r>  0.0193  0.0002  0.0001  0.0000  0.0000  0.0000  0.0000  0.0000  0.0000 </r>
        <r>  0.0030  0.0000  0.0000  0.0002  0.0000  0.0000  0.0000  0.0000  0.0000 </r>
       </set>
       <set comment="band 120">
        <r>  0.0036  0.0000  0.0002  0.0000  0.0000  0.0000  0.0000  0.0000  0.0000 </r>
        <r>  0.0169  0.0001  0.0000  0.0004  0.0000  0.0000  0.0000  0.0000  0.0000 </r>
        <r>  0.0032  0.0000  0.0002  0.0000  0.0000  0.0000  0.0000  0.0000  0.0000 </r>
        <r>  0.0047  0.0000  0.0001  0.0014  0.0000  0.0000  0.0000  0.0000  0.0000 </r>
        <r>  0.0005  0.0001  0.0003  0.0000  0.0000  0.0000  0.0000  0.0000  0.0000 </r>
        <r>  0.0007  0.0014  0.0004  0.0000  0.0000  0.0000  0.0000  0.0000  0.0000 </r>
        <r>  0.0009  0.0001  0.0003  0.0000  0.0000  0.0000  0.0000  0.0000  0.0000 </r>
       </set>
       <set comment="band 121">
        <r>  0.0193  0.0039  0.0036  0.0042  0.0000  0.0000  0.0000  0.0000  0.0000 </r>
        <r>  0.0026  0.0005  0.0000  0.0039  0.0000  0.0000  0.0000  0.0000  0.0000 </r>
        <r>  0.0174  0.0036  0.0032  0.0039  0.0000  0.0000  0.0000  0.0000  0.0000 </r>
        <r>  0.0007  0.0000  0.0005  0.0142  0.0000  0.0000  0.0000  0.0000  0.0000 </r>
        <r>  0.0026  0.0007  0.0003  0.0006  0.0000  0.0000  0.0000  0.0000  0.0000 </r>
        <r>  0.0001  0.0142  0.0039  0.0000  0.0000  0.0000  0.0000  0.0000  0.0000 </r>
        <r>  0.0041  0.0010  0.0007  0.0009  0.0000  0.0000  0.0000  0.0000  0.0000 </r>
       </set>
       <set comment="band 122">
        <r>  0.0124  0.0026  0.0027  0.0022  0.0000  0.0000  0.0000  0.0000  0.0000 </r>
        <r>  0.0003  0.0164  0.0000  0.0008  0.0000  0.0000  0.0000  0.0000  0.0000 </r>
        <r>  0.0076  0.0018  0.0016  0.0013  0.0000  0.0000  0.0000  0.0000  0.0000 </r>
        <r>  0.0001  0.0000  0.0164  0.0014  0.0000  0.0000  0.0000  0.0000  0.0000 </r>
        <r>  0.0072  0.0016  0.0015  0.0012  0.0000  0.0000  0.0000  0.0000  0.0000 </r>
        <r>  0.0030  0.0014  0.0008  0.0000  0.0000  0.0000  0.0000  0.0000  0.0000 </r>
        <r>  0.0162  0.0034  0.0035  0.0030  0.0000  0.0000  0.0000  0.0000  0.0000 </r>
       </set>
       <set comment="band 123">
        <r>  0.0009  0.0001  0.0003  0.0002  0.0000  0.0000  0.0000  0.0000  0.0000 </r>
        <r>  0.0005  0.0017  0.0000  0.0139  0.0000  0.0000  0.0000  0.0000  0.0000 </r>
        <r>  0.0075  0.0013  0.0018  0.0015  0.0000  0.0000  0.0000  0.0000  0.0000 </r>
        <r>  0.0026  0.0000  0.0017  0.0030  0.0000  0.0000  0.0000  0.0000  0.0000 </r>
        <r>  0.0228  0.0043  0.0047  0.0048  0.0000  0.0000  0.0000  0.0000  0.0000 </r>
        <r>  0.0003  0.0030  0.0139  0.0000  0.0000  0.0000  0.0000  0.0000  0.0000 </r>
        <r>  0.0122  0.0022  0.0025  0.0028  0.0000  0.0000  0.0000  0.0000  0.0000 </r>
       </set>
       <set comment="band 124">
        <r>  0.0000  0.0042  0.0064  0.0019  0.0000  0.0000  0.0000  0.0000  0.0000 </r>
        <r>  0.0000  0.0000  0.0069  0.0000  0.0000  0.0000  0.0000  0.0000  0.0000 </r>
        <r>  0.0000  0.0042  0.0064  0.0019  0.0000  0.0000  0.0000  0.0000  0.0000 </r>
        <r>  0.0000  0.0045  0.0000  0.0000  0.0000  0.0000  0.0000  0.0000  0.0000 </r>
        <r>  0.0000  0.0042  0.0064  0.0019  0.0000  0.0000  0.0000  0.0000  0.0000 </r>
        <r>  0.0000  0.0000  0.0000  0.0021  0.0000  0.0000  0.0000  0.0000  0.0000 </r>
        <r>  0.0000  0.0042  0.0064  0.0019  0.0000  0.0000  0.0000  0.0000  0.0000 </r>
       </set>
       <set comment="band 125">
        <r>  0.0000  0.0041  0.0019  0.0064  0.0000  0.0000  0.0000  0.0000  0.0000 </r>
        <r>  0.0000  0.0000  0.0021  0.0000  0.0000  0.0000  0.0000  0.0000  0.0000 </r>
        <r>  0.0000  0.0041  0.0019  0.0064  0.0000  0.0000  0.0000  0.0000  0.0000 </r>
        <r>  0.0000  0.0045  0.0000  0.0000  0.0000  0.0000  0.0000  0.0000  0.0000 </r>
        <r>  0.0000  0.0041  0.0019  0.0064  0.0000  0.0000  0.0000  0.0000  0.0000 </r>
        <r>  0.0000  0.0000  0.0000  0.0069  0.0000  0.0000  0.0000  0.0000  0.0000 </r>
        <r>  0.0000  0.0041  0.0019  0.0064  0.0000  0.0000  0.0000  0.0000  0.0000 </r>
       </set>
       <set comment="band 126">
        <r>  0.0000  0.0000  0.0000  0.0000  0.0000  0.0000  0.0000  0.0000  0.0000 </r>
        <r>  0.0000  0.0000  0.0000  0.0000  0.0000  0.0000  0.0000  0.0000  0.0000 </r>
        <r>  0.0000  0.0000  0.0000  0.0000  0.0000  0.0000  0.0000  0.0000  0.0000 </r>
        <r>  0.0000  0.0000  0.0000  0.0000  0.0000  0.0000  0.0000  0.0000  0.0000 </r>
        <r>  0.0000  0.0000  0.0000  0.0000  0.0000  0.0000  0.0000  0.0000  0.0000 </r>
        <r>  0.0000  0.0000  0.0000  0.0000  0.0000  0.0000  0.0000  0.0000  0.0000 </r>
        <r>  0.0000  0.0000  0.0000  0.0000  0.0000  0.0000  0.0000  0.0000  0.0000 </r>
       </set>
       <set comment="band 127">
        <r>  0.0052  0.0027  0.0027  0.0027  0.0000  0.0000  0.0000  0.0000  0.0000 </r>
        <r>  0.0000  0.0000  0.0050  0.0000  0.0000  0.0000  0.0000  0.0000  0.0000 </r>
        <r>  0.0052  0.0027  0.0027  0.0027  0.0000  0.0000  0.0000  0.0000  0.0000 </r>
        <r>  0.0000  0.0050  0.0000  0.0000  0.0000  0.0000  0.0000  0.0000  0.0000 </r>
        <r>  0.0052  0.0027  0.0027  0.0027  0.0000  0.0000  0.0000  0.0000  0.0000 </r>
        <r>  0.0000  0.0000  0.0000  0.0050  0.0000  0.0000  0.0000  0.0000  0.0000 </r>
        <r>  0.0052  0.0027  0.0027  0.0027  0.0000  0.0000  0.0000  0.0000  0.0000 </r>
       </set>
       <set comment="band 128">
        <r>  0.0000  0.0045  0.0014  0.0007  0.0000  0.0000  0.0000  0.0000  0.0000 </r>
        <r>  0.0100  0.0001  0.0000  0.0009  0.0000  0.0000  0.0000  0.0000  0.0000 </r>
        <r>  0.0001  0.0038  0.0017  0.0002  0.0000  0.0000  0.0000  0.0000  0.0000 </r>
        <r>  0.0388  0.0000  0.0001  0.0002  0.0000  0.0000  0.0000  0.0000  0.0000 </r>
        <r>  0.0004  0.0028  0.0004  0.0002  0.0000  0.0000  0.0000  0.0000  0.0000 </r>
        <r>  0.0045  0.0002  0.0009  0.0000  0.0000  0.0000  0.0000  0.0000  0.0000 </r>
        <r>  0.0002  0.0034  0.0005  0.0011  0.0000  0.0000  0.0000  0.0000  0.0000 </r>
       </set>
       <set comment="band 129">
        <r>  0.0002  0.0001  0.0006  0.0043  0.0000  0.0000  0.0000  0.0000  0.0000 </r>
        <r>  0.0030  0.0011  0.0000  0.0001  0.0000  0.0000  0.0000  0.0000  0.0000 </r>
        <r>  0.0001  0.0007  0.0003  0.0046  0.0000  0.0000  0.0000  0.0000  0.0000 </r>
        <r>  0.0023  0.0000  0.0011  0.0001  0.0000  0.0000  0.0000  0.0000  0.0000 </r>
        <r>  0.0001  0.0005  0.0004  0.0049  0.0000  0.0000  0.0000  0.0000  0.0000 </r>
        <r>  0.0481  0.0001  0.0001  0.0000  0.0000  0.0000  0.0000  0.0000  0.0000 </r>
        <r>  0.0003  0.0000  0.0003  0.0041  0.0000  0.0000  0.0000  0.0000  0.0000 </r>
       </set>
       <set comment="band 130">
        <r>  0.0003  0.0006  0.0031  0.0002  0.0000  0.0000  0.0000  0.0000  0.0000 </r>
        <r>  0.0403  0.0000  0.0000  0.0003  0.0000  0.0000  0.0000  0.0000  0.0000 </r>
        <r>  0.0003  0.0007  0.0032  0.0004  0.0000  0.0000  0.0000  0.0000  0.0000 </r>
        <r>  0.0122  0.0000  0.0000  0.0009  0.0000  0.0000  0.0000  0.0000  0.0000 </r>
        <r>  0.0000  0.0019  0.0043  0.0001  0.0000  0.0000  0.0000  0.0000  0.0000 </r>
        <r>  0.0008  0.0009  0.0003  0.0000  0.0000  0.0000  0.0000  0.0000  0.0000 </r>
        <r>  0.0000  0.0018  0.0044  0.0001  0.0000  0.0000  0.0000  0.0000  0.0000 </r>
       </set>
       <set comment="band 131">
        <r>  0.0000  0.0001  0.0003  0.0008  0.0000  0.0000  0.0000  0.0000  0.0000 </r>
        <r>  0.0000  0.0000  0.0000  0.0000  0.0000  0.0000  0.0000  0.0000  0.0000 </r>
        <r>  0.0000  0.0005  0.0001  0.0008  0.0000  0.0000  0.0000  0.0000  0.0000 </r>
        <r>  0.0000  0.0000  0.0000  0.0000  0.0000  0.0000  0.0000  0.0000  0.0000 </r>
        <r>  0.0000  0.0001  0.0001  0.0001  0.0000  0.0000  0.0000  0.0000  0.0000 </r>
        <r>  0.0000  0.0000  0.0000  0.0000  0.0000  0.0000  0.0000  0.0000  0.0000 </r>
        <r>  0.0000  0.0005  0.0003  0.0001  0.0000  0.0000  0.0000  0.0000  0.0000 </r>
       </set>
       <set comment="band 132">
        <r>  0.0000  0.0008  0.0006  0.0000  0.0000  0.0000  0.0000  0.0000  0.0000 </r>
        <r>  0.0000  0.0000  0.0000  0.0000  0.0000  0.0000  0.0000  0.0000  0.0000 </r>
        <r>  0.0000  0.0001  0.0002  0.0000  0.0000  0.0000  0.0000  0.0000  0.0000 </r>
        <r>  0.0000  0.0000  0.0000  0.0000  0.0000  0.0000  0.0000  0.0000  0.0000 </r>
        <r>  0.0000  0.0008  0.0002  0.0003  0.0000  0.0000  0.0000  0.0000  0.0000 </r>
        <r>  0.0000  0.0000  0.0000  0.0000  0.0000  0.0000  0.0000  0.0000  0.0000 </r>
        <r>  0.0000  0.0001  0.0006  0.0003  0.0000  0.0000  0.0000  0.0000  0.0000 </r>
       </set>
       <set comment="band 133">
        <r>  0.0000  0.0000  0.0001  0.0002  0.0000  0.0000  0.0000  0.0000  0.0000 </r>
        <r>  0.0000  0.0000  0.0000  0.0000  0.0000  0.0000  0.0000  0.0000  0.0000 </r>
        <r>  0.0000  0.0004  0.0007  0.0002  0.0000  0.0000  0.0000  0.0000  0.0000 </r>
        <r>  0.0000  0.0000  0.0000  0.0000  0.0000  0.0000  0.0000  0.0000  0.0000 </r>
        <r>  0.0000  0.0000  0.0007  0.0006  0.0000  0.0000  0.0000  0.0000  0.0000 </r>
        <r>  0.0000  0.0000  0.0000  0.0000  0.0000  0.0000  0.0000  0.0000  0.0000 </r>
        <r>  0.0000  0.0004  0.0001  0.0006  0.0000  0.0000  0.0000  0.0000  0.0000 </r>
       </set>
       <set comment="band 134">
        <r>  0.0013  0.0000  0.0000  0.0000  0.0000  0.0000  0.0000  0.0000  0.0000 </r>
        <r>  0.0007  0.0000  0.0000  0.0001  0.0000  0.0000  0.0000  0.0000  0.0000 </r>
        <r>  0.0097  0.0001  0.0001  0.0001  0.0000  0.0000  0.0000  0.0000  0.0000 </r>
        <r>  0.0028  0.0000  0.0000  0.0000  0.0000  0.0000  0.0000  0.0000  0.0000 </r>
        <r>  0.0371  0.0004  0.0005  0.0005  0.0000  0.0000  0.0000  0.0000  0.0000 </r>
        <r>  0.0002  0.0000  0.0001  0.0000  0.0000  0.0000  0.0000  0.0000  0.0000 </r>
        <r>  0.0216  0.0002  0.0003  0.0003  0.0000  0.0000  0.0000  0.0000  0.0000 </r>
       </set>
       <set comment="band 135">
        <r>  0.0170  0.0002  0.0002  0.0002  0.0000  0.0000  0.0000  0.0000  0.0000 </r>
        <r>  0.0002  0.0001  0.0000  0.0000  0.0000  0.0000  0.0000  0.0000  0.0000 </r>
        <r>  0.0154  0.0002  0.0002  0.0002  0.0000  0.0000  0.0000  0.0000  0.0000 </r>
        <r>  0.0001  0.0000  0.0001  0.0000  0.0000  0.0000  0.0000  0.0000  0.0000 </r>
        <r>  0.0106  0.0001  0.0001  0.0001  0.0000  0.0000  0.0000  0.0000  0.0000 </r>
        <r>  0.0034  0.0000  0.0000  0.0000  0.0000  0.0000  0.0000  0.0000  0.0000 </r>
        <r>  0.0266  0.0003  0.0003  0.0003  0.0000  0.0000  0.0000  0.0000  0.0000 </r>
       </set>
       <set comment="band 136">
        <r>  0.0339  0.0004  0.0004  0.0004  0.0000  0.0000  0.0000  0.0000  0.0000 </r>
        <r>  0.0028  0.0000  0.0000  0.0000  0.0000  0.0000  0.0000  0.0000  0.0000 </r>
        <r>  0.0272  0.0003  0.0003  0.0004  0.0000  0.0000  0.0000  0.0000  0.0000 </r>
        <r>  0.0008  0.0000  0.0000  0.0001  0.0000  0.0000  0.0000  0.0000  0.0000 </r>
        <r>  0.0045  0.0001  0.0000  0.0001  0.0000  0.0000  0.0000  0.0000  0.0000 </r>
        <r>  0.0001  0.0001  0.0000  0.0000  0.0000  0.0000  0.0000  0.0000  0.0000 </r>
        <r>  0.0040  0.0001  0.0000  0.0001  0.0000  0.0000  0.0000  0.0000  0.0000 </r>
       </set>
       <set comment="band 137">
        <r>  0.0000  0.0004  0.0003  0.0004  0.0000  0.0000  0.0000  0.0000  0.0000 </r>
        <r>  0.0000  0.0000  0.0001  0.0000  0.0000  0.0000  0.0000  0.0000  0.0000 </r>
        <r>  0.0000  0.0004  0.0003  0.0004  0.0000  0.0000  0.0000  0.0000  0.0000 </r>
        <r>  0.0000  0.0002  0.0000  0.0000  0.0000  0.0000  0.0000  0.0000  0.0000 </r>
        <r>  0.0000  0.0004  0.0003  0.0004  0.0000  0.0000  0.0000  0.0000  0.0000 </r>
        <r>  0.0000  0.0000  0.0000  0.0002  0.0000  0.0000  0.0000  0.0000  0.0000 </r>
        <r>  0.0000  0.0004  0.0003  0.0004  0.0000  0.0000  0.0000  0.0000  0.0000 </r>
       </set>
       <set comment="band 138">
        <r>  0.0000  0.0003  0.0005  0.0003  0.0000  0.0000  0.0000  0.0000  0.0000 </r>
        <r>  0.0000  0.0000  0.0002  0.0000  0.0000  0.0000  0.0000  0.0000  0.0000 </r>
        <r>  0.0000  0.0003  0.0005  0.0003  0.0000  0.0000  0.0000  0.0000  0.0000 </r>
        <r>  0.0000  0.0002  0.0000  0.0000  0.0000  0.0000  0.0000  0.0000  0.0000 </r>
        <r>  0.0000  0.0003  0.0005  0.0003  0.0000  0.0000  0.0000  0.0000  0.0000 </r>
        <r>  0.0000  0.0000  0.0000  0.0002  0.0000  0.0000  0.0000  0.0000  0.0000 </r>
        <r>  0.0000  0.0003  0.0005  0.0003  0.0000  0.0000  0.0000  0.0000  0.0000 </r>
       </set>
       <set comment="band 139">
        <r>  0.0000  0.0001  0.0000  0.0000  0.0000  0.0000  0.0000  0.0000  0.0000 </r>
        <r>  0.0000  0.0001  0.0000  0.0001  0.0000  0.0000  0.0000  0.0000  0.0000 </r>
        <r>  0.0000  0.0001  0.0002  0.0000  0.0000  0.0000  0.0000  0.0000  0.0000 </r>
        <r>  0.0000  0.0000  0.0001  0.0000  0.0000  0.0000  0.0000  0.0000  0.0000 </r>
        <r>  0.0000  0.0001  0.0002  0.0001  0.0000  0.0000  0.0000  0.0000  0.0000 </r>
        <r>  0.0000  0.0000  0.0001  0.0000  0.0000  0.0000  0.0000  0.0000  0.0000 </r>
        <r>  0.0000  0.0001  0.0000  0.0001  0.0000  0.0000  0.0000  0.0000  0.0000 </r>
       </set>
       <set comment="band 140">
        <r>  0.0000  0.0001  0.0002  0.0001  0.0000  0.0000  0.0000  0.0000  0.0000 </r>
        <r>  0.0000  0.0001  0.0000  0.0001  0.0000  0.0000  0.0000  0.0000  0.0000 </r>
        <r>  0.0000  0.0000  0.0000  0.0001  0.0000  0.0000  0.0000  0.0000  0.0000 </r>
        <r>  0.0000  0.0000  0.0001  0.0000  0.0000  0.0000  0.0000  0.0000  0.0000 </r>
        <r>  0.0000  0.0001  0.0000  0.0001  0.0000  0.0000  0.0000  0.0000  0.0000 </r>
        <r>  0.0000  0.0000  0.0001  0.0000  0.0000  0.0000  0.0000  0.0000  0.0000 </r>
        <r>  0.0000  0.0000  0.0002  0.0001  0.0000  0.0000  0.0000  0.0000  0.0000 </r>
       </set>
       <set comment="band 141">
        <r>  0.0000  0.0001  0.0000  0.0002  0.0000  0.0000  0.0000  0.0000  0.0000 </r>
        <r>  0.0000  0.0000  0.0000  0.0000  0.0000  0.0000  0.0000  0.0000  0.0000 </r>
        <r>  0.0000  0.0002  0.0000  0.0002  0.0000  0.0000  0.0000  0.0000  0.0000 </r>
        <r>  0.0000  0.0000  0.0000  0.0002  0.0000  0.0000  0.0000  0.0000  0.0000 </r>
        <r>  0.0000  0.0001  0.0000  0.0001  0.0000  0.0000  0.0000  0.0000  0.0000 </r>
        <r>  0.0000  0.0002  0.0000  0.0000  0.0000  0.0000  0.0000  0.0000  0.0000 </r>
        <r>  0.0000  0.0002  0.0000  0.0001  0.0000  0.0000  0.0000  0.0000  0.0000 </r>
       </set>
       <set comment="band 142">
        <r>  0.0007  0.0003  0.0001  0.0001  0.0000  0.0000  0.0000  0.0000  0.0000 </r>
        <r>  0.0001  0.0000  0.0000  0.0000  0.0000  0.0000  0.0000  0.0000  0.0000 </r>
        <r>  0.0056  0.0002  0.0002  0.0000  0.0000  0.0000  0.0000  0.0000  0.0000 </r>
        <r>  0.0003  0.0000  0.0000  0.0000  0.0000  0.0000  0.0000  0.0000  0.0000 </r>
        <r>  0.0135  0.0001  0.0000  0.0001  0.0000  0.0000  0.0000  0.0000  0.0000 </r>
        <r>  0.0001  0.0000  0.0000  0.0000  0.0000  0.0000  0.0000  0.0000  0.0000 </r>
        <r>  0.0085  0.0002  0.0000  0.0002  0.0000  0.0000  0.0000  0.0000  0.0000 </r>
       </set>
       <set comment="band 143">
        <r>  0.0083  0.0001  0.0001  0.0002  0.0000  0.0000  0.0000  0.0000  0.0000 </r>
        <r>  0.0000  0.0000  0.0000  0.0000  0.0000  0.0000  0.0000  0.0000  0.0000 </r>
        <r>  0.0036  0.0001  0.0001  0.0003  0.0000  0.0000  0.0000  0.0000  0.0000 </r>
        <r>  0.0000  0.0000  0.0000  0.0000  0.0000  0.0000  0.0000  0.0000  0.0000 </r>
        <r>  0.0063  0.0001  0.0000  0.0003  0.0000  0.0000  0.0000  0.0000  0.0000 </r>
        <r>  0.0003  0.0000  0.0000  0.0000  0.0000  0.0000  0.0000  0.0000  0.0000 </r>
        <r>  0.0100  0.0000  0.0001  0.0002  0.0000  0.0000  0.0000  0.0000  0.0000 </r>
       </set>
       <set comment="band 144">
        <r>  0.0121  0.0000  0.0002  0.0001  0.0000  0.0000  0.0000  0.0000  0.0000 </r>
        <r>  0.0003  0.0000  0.0000  0.0000  0.0000  0.0000  0.0000  0.0000  0.0000 </r>
        <r>  0.0120  0.0000  0.0001  0.0001  0.0000  0.0000  0.0000  0.0000  0.0000 </r>
        <r>  0.0001  0.0000  0.0000  0.0000  0.0000  0.0000  0.0000  0.0000  0.0000 </r>
        <r>  0.0014  0.0002  0.0003  0.0000  0.0000  0.0000  0.0000  0.0000  0.0000 </r>
        <r>  0.0000  0.0000  0.0000  0.0000  0.0000  0.0000  0.0000  0.0000  0.0000 </r>
        <r>  0.0027  0.0002  0.0003  0.0000  0.0000  0.0000  0.0000  0.0000  0.0000 </r>
       </set>
      </set>
     </set>
    </set>
   </array>
  </projected>
 </calculation>
 <structure name="finalpos" >
  <crystal>
   <varray name="basis" >
    <v>       5.43784835       0.00000000       0.00000000 </v>
    <v>       0.00000000       5.43784835       0.00000000 </v>
    <v>       0.00000000       0.00000000       5.43784835 </v>
   </varray>
   <i name="volume">    160.79823434 </i>
   <varray name="rec_basis" >
    <v>       0.18389626       0.00000000       0.00000000 </v>
    <v>       0.00000000       0.18389626       0.00000000 </v>
    <v>       0.00000000       0.00000000       0.18389626 </v>
   </varray>
  </crystal>
  <varray name="positions" >
   <v>       0.25640888       0.74359112       0.25640888 </v>
   <v>       0.00000000       0.00000000       0.50000000 </v>
   <v>       0.25640888       0.25640888       0.74359112 </v>
   <v>       0.00000000       0.50000000       0.00000000 </v>
   <v>       0.74359112       0.74359112       0.74359112 </v>
   <v>       0.50000000       0.00000000       0.00000000 </v>
   <v>       0.74359112       0.25640888       0.25640888 </v>
  </varray>
 </structure>
</modeling>
