<?xml version="1.0" encoding="ISO-8859-1"?>
<modeling>
 <generator>
  <i name="program" type="string">vasp </i>
  <i name="version" type="string">6.2.1  </i>
  <i name="subversion" type="string">16May21 (build Oct 27 2021 18:14:32) complex                          parallel </i>
  <i name="platform" type="string">LinuxIFC </i>
  <i name="date" type="string">2021 11 21 </i>
  <i name="time" type="string">14:18:57 </i>
 </generator>
 <incar>
  <i type="string" name="PREC">Accurate</i>
  <i type="string" name="ALGO">Normal</i>
  <i type="int" name="ISPIN">     1</i>
  <i type="int" name="ICHARG">    11</i>
  <i type="int" name="NELM">   200</i>
  <i type="int" name="IBRION">    -1</i>
  <i name="EDIFF">      0.00001000</i>
  <i name="EDIFFG">     -0.02000000</i>
  <i type="int" name="NSW">     0</i>
  <i type="int" name="ISIF">     3</i>
  <i type="int" name="ISYM">     2</i>
  <i name="ENCUT">    680.00000000</i>
  <i name="ENAUG">   1360.00000000</i>
  <i type="int" name="NBANDS">    11</i>
  <i type="int" name="NEDOS">  4544</i>
  <i type="string" name="LREAL">Auto</i>
  <i type="int" name="ISMEAR">    -5</i>
  <i name="SIGMA">      0.20000000</i>
  <i type="logical" name="LWAVE"> F  </i>
  <i type="logical" name="LCHARG"> F  </i>
  <i type="logical" name="LVTOT"> T  </i>
  <i type="int" name="LORBIT">    11</i>
  <i type="logical" name="LELF"> T  </i>
  <i type="logical" name="LOPTICS"> T  </i>
  <i type="logical" name="LASPH"> T  </i>
  <i type="logical" name="LAECHG"> T  </i>
  <i type="logical" name="LMIXTAU"> T  </i>
 </incar>
 <primitive_cell>
  <structure name="primitive_cell" >
   <crystal>
    <varray name="basis" >
     <v>       3.34889800       0.00000000       1.93348700 </v>
     <v>       1.11629900       3.15737200       1.93348700 </v>
     <v>       0.00000000       0.00000000       3.86697500 </v>
    </varray>
    <i name="volume">     40.88829843 </i>
    <varray name="rec_basis" >
     <v>       0.29860569      -0.10557300       0.00000000 </v>
     <v>       0.00000000       0.31671909       0.00000000 </v>
     <v>      -0.14930281      -0.10557302       0.25860007 </v>
    </varray>
   </crystal>
   <varray name="positions" >
    <v>       0.25000000       0.25000000       0.25000000 </v>
    <v>       0.00000000       0.00000000       0.00000000 </v>
   </varray>
  </structure>
  <varray name="primitive_index" >
   <v type="int" >        1 </v>
   <v type="int" >        2 </v>
  </varray>
 </primitive_cell>
 <kpoints>
  <generation param="Gamma">
   <v type="int" name="divisions">       8        8        8 </v>
   <v name="usershift">      0.00000000       0.00000000       0.00000000 </v>
   <v name="genvec1">      0.12500000      -0.00000000       0.00000000 </v>
   <v name="genvec2">      0.00000000       0.12500000       0.00000000 </v>
   <v name="genvec3">      0.00000000       0.00000000       0.12500000 </v>
   <v name="shift">      0.00000000       0.00000000       0.00000000 </v>
  </generation>
  <varray name="kpointlist" >
   <v>       0.00000000       0.00000000       0.00000000 </v>
   <v>       0.12500000       0.00000000       0.00000000 </v>
   <v>       0.25000000       0.00000000       0.00000000 </v>
   <v>       0.37500000       0.00000000       0.00000000 </v>
   <v>       0.50000000       0.00000000       0.00000000 </v>
   <v>       0.12500000       0.12500000       0.00000000 </v>
   <v>       0.25000000       0.12500000       0.00000000 </v>
   <v>       0.37500000       0.12500000       0.00000000 </v>
   <v>       0.50000000       0.12500000       0.00000000 </v>
   <v>      -0.37500000       0.12500000       0.00000000 </v>
   <v>      -0.25000000       0.12500000       0.00000000 </v>
   <v>      -0.12500000       0.12500000       0.00000000 </v>
   <v>       0.25000000       0.25000000       0.00000000 </v>
   <v>       0.37500000       0.25000000       0.00000000 </v>
   <v>       0.50000000       0.25000000       0.00000000 </v>
   <v>      -0.37500000       0.25000000       0.00000000 </v>
   <v>      -0.25000000       0.25000000       0.00000000 </v>
   <v>       0.37500000       0.37500000       0.00000000 </v>
   <v>       0.50000000       0.37500000       0.00000000 </v>
   <v>      -0.37500000       0.37500000       0.00000000 </v>
   <v>       0.50000000       0.50000000       0.00000000 </v>
   <v>       0.37500000       0.25000000       0.12500000 </v>
   <v>       0.50000000       0.25000000       0.12500000 </v>
   <v>      -0.37500000       0.25000000       0.12500000 </v>
   <v>       0.50000000       0.37500000       0.12500000 </v>
   <v>      -0.37500000       0.37500000       0.12500000 </v>
   <v>      -0.25000000       0.37500000       0.12500000 </v>
   <v>      -0.37500000       0.50000000       0.12500000 </v>
   <v>      -0.25000000       0.50000000       0.25000000 </v>
  </varray>
  <varray name="weights" >
   <v>       0.00195312 </v>
   <v>       0.01562500 </v>
   <v>       0.01562500 </v>
   <v>       0.01562500 </v>
   <v>       0.00781250 </v>
   <v>       0.01171875 </v>
   <v>       0.04687500 </v>
   <v>       0.04687500 </v>
   <v>       0.04687500 </v>
   <v>       0.04687500 </v>
   <v>       0.04687500 </v>
   <v>       0.02343750 </v>
   <v>       0.01171875 </v>
   <v>       0.04687500 </v>
   <v>       0.04687500 </v>
   <v>       0.04687500 </v>
   <v>       0.02343750 </v>
   <v>       0.01171875 </v>
   <v>       0.04687500 </v>
   <v>       0.02343750 </v>
   <v>       0.00585938 </v>
   <v>       0.04687500 </v>
   <v>       0.09375000 </v>
   <v>       0.04687500 </v>
   <v>       0.04687500 </v>
   <v>       0.09375000 </v>
   <v>       0.04687500 </v>
   <v>       0.02343750 </v>
   <v>       0.01171875 </v>
  </varray>
  <varray name="tetrahedronlist"  type="int" >
   <v type="int" >       24        1        2        2        6 </v>
   <v type="int" >       48        2        6        7       12 </v>
   <v type="int" >       48        2        3        7       12 </v>
   <v type="int" >       24        2        2        6       12 </v>
   <v type="int" >       48        3        7        8       11 </v>
   <v type="int" >       48        3        4        8       11 </v>
   <v type="int" >       48        3        7       11       12 </v>
   <v type="int" >       48        4        8        9       10 </v>
   <v type="int" >       48        4        5        9       10 </v>
   <v type="int" >       48        4        8       10       11 </v>
   <v type="int" >       48        5        9        9       10 </v>
   <v type="int" >       24        6        7        7       13 </v>
   <v type="int" >       24        6        7        7       12 </v>
   <v type="int" >       48        7       13       14       22 </v>
   <v type="int" >       48        7        8       14       22 </v>
   <v type="int" >       48        7        8       11       22 </v>
   <v type="int" >       24        7        7       13       22 </v>
   <v type="int" >       24        7        7       12       22 </v>
   <v type="int" >       48        7       11       12       22 </v>
   <v type="int" >       48        8       14       15       23 </v>
   <v type="int" >       48        8        9       15       23 </v>
   <v type="int" >       48        8        9       10       23 </v>
   <v type="int" >       48        8       14       22       23 </v>
   <v type="int" >       48        8       11       22       23 </v>
   <v type="int" >       48        8       10       11       23 </v>
   <v type="int" >       48        9       15       16       24 </v>
   <v type="int" >       48        9       10       16       24 </v>
   <v type="int" >       48        9        9       10       24 </v>
   <v type="int" >       48        9       15       23       24 </v>
   <v type="int" >       48        9       10       23       24 </v>
   <v type="int" >       48       10       16       17       23 </v>
   <v type="int" >       48       10       11       17       23 </v>
   <v type="int" >       48       10       16       23       24 </v>
   <v type="int" >       24       11       11       17       22 </v>
   <v type="int" >       24       11       11       12       22 </v>
   <v type="int" >       48       11       17       22       23 </v>
   <v type="int" >       24       13       14       14       18 </v>
   <v type="int" >       24       13       14       14       22 </v>
   <v type="int" >       48       14       18       19       25 </v>
   <v type="int" >       48       14       15       19       25 </v>
   <v type="int" >       48       14       15       23       25 </v>
   <v type="int" >       24       14       14       18       25 </v>
   <v type="int" >       24       14       14       22       25 </v>
   <v type="int" >       48       14       22       23       25 </v>
   <v type="int" >       48       15       19       20       26 </v>
   <v type="int" >       48       15       16       20       26 </v>
   <v type="int" >       48       15       16       24       26 </v>
   <v type="int" >       48       15       19       25       26 </v>
   <v type="int" >       48       15       23       25       26 </v>
   <v type="int" >       48       15       23       24       26 </v>
   <v type="int" >       24       16       16       20       27 </v>
   <v type="int" >       24       16       16       17       27 </v>
   <v type="int" >       48       16       17       23       27 </v>
   <v type="int" >       48       16       20       26       27 </v>
   <v type="int" >       48       16       24       26       27 </v>
   <v type="int" >       48       16       23       24       27 </v>
   <v type="int" >       24       17       23       23       27 </v>
   <v type="int" >       24       17       22       23       23 </v>
   <v type="int" >       24       18       19       19       21 </v>
   <v type="int" >       24       18       19       19       25 </v>
   <v type="int" >       48       19       19       21       28 </v>
   <v type="int" >       24       19       19       20       28 </v>
   <v type="int" >       48       19       20       26       28 </v>
   <v type="int" >       24       19       19       25       28 </v>
   <v type="int" >       48       19       25       26       28 </v>
   <v type="int" >       24       20       26       26       28 </v>
   <v type="int" >       24       20       26       26       27 </v>
   <v type="int" >       24       22       23       23       25 </v>
   <v type="int" >       48       23       25       26       27 </v>
   <v type="int" >       48       23       24       26       27 </v>
   <v type="int" >       24       23       23       25       27 </v>
   <v type="int" >       48       24       26       26       27 </v>
   <v type="int" >       24       25       26       26       28 </v>
   <v type="int" >       24       25       26       26       27 </v>
   <v type="int" >       48       26       26       28       29 </v>
   <v type="int" >       96       26       26       27       29 </v>
  </varray>
  <i name="volumeweight">      0.00032552 </i>
 </kpoints>
 <parameters>
  <separator name="general" >
   <i type="string" name="SYSTEM">unknown system</i>
   <i type="logical" name="LCOMPAT"> F  </i>
  </separator>
  <separator name="electronic" >
   <i type="string" name="PREC">accura</i>
   <i name="ENMAX">    680.00000000</i>
   <i name="ENAUG">   1360.00000000</i>
   <i name="EDIFF">      0.00001000</i>
   <i type="int" name="IALGO">    38</i>
   <i type="int" name="IWAVPR">    10</i>
   <i type="int" name="NBANDS">    11</i>
   <i type="int" name="NBANDSLOW">    -1</i>
   <i type="int" name="NBANDSHIGH">    -1</i>
   <i name="NELECT">      8.00000000</i>
   <i type="int" name="TURBO">     0</i>
   <i type="int" name="IRESTART">     0</i>
   <i type="int" name="NREBOOT">     0</i>
   <i type="int" name="NMIN">     0</i>
   <i name="EREF">      0.00000000</i>
   <separator name="electronic smearing" >
    <i type="int" name="ISMEAR">    -5</i>
    <i name="SIGMA">      0.20000000</i>
    <i name="KSPACING">      0.50000000</i>
    <i type="logical" name="KGAMMA"> T  </i>
    <i type="logical" name="KBLOWUP"> T  </i>
   </separator>
   <separator name="electronic projectors" >
    <i type="logical" name="LREAL"> T  </i>
    <v name="ROPT">     -0.00025000</v>
    <i type="int" name="LMAXPAW">  -100</i>
    <i type="int" name="LMAXMIX">     2</i>
    <i type="logical" name="NLSPLINE"> F  </i>
   </separator>
   <separator name="electronic startup" >
    <i type="int" name="ISTART">     0</i>
    <i type="int" name="ICHARG">    11</i>
    <i type="int" name="INIWAV">     1</i>
   </separator>
   <separator name="electronic spin" >
    <i type="int" name="ISPIN">     1</i>
    <i type="logical" name="LNONCOLLINEAR"> F  </i>
    <v name="MAGMOM">      1.00000000      1.00000000</v>
    <i name="NUPDOWN">     -1.00000000</i>
    <i type="logical" name="LSORBIT"> F  </i>
    <v name="SAXIS">      0.00000000      0.00000000      1.00000000</v>
    <i type="logical" name="LSPIRAL"> F  </i>
    <v name="QSPIRAL">      0.00000000      0.00000000      0.00000000</v>
    <i type="logical" name="LZEROZ"> F  </i>
   </separator>
   <separator name="electronic exchange-correlation" >
    <i type="logical" name="LASPH"> T  </i>
    <i type="logical" name="LMETAGGA"> F  </i>
   </separator>
   <separator name="electronic convergence" >
    <i type="int" name="NELM">   200</i>
    <i type="int" name="NELMDL">    -5</i>
    <i type="int" name="NELMIN">     2</i>
    <i name="ENINI">    680.00000000</i>
    <separator name="electronic convergence detail" >
     <i type="logical" name="LDIAG"> T  </i>
     <i type="logical" name="LSUBROT"> F  </i>
     <i name="WEIMIN">      0.00000000</i>
     <i name="EBREAK">      0.00000023</i>
     <i name="DEPER">      0.30000000</i>
     <i type="int" name="NRMM">     4</i>
     <i name="TIME">      0.40000000</i>
    </separator>
   </separator>
   <separator name="electronic mixer" >
    <i name="AMIX">      0.40000000</i>
    <i name="BMIX">      1.00000000</i>
    <i name="AMIN">      0.10000000</i>
    <i name="AMIX_MAG">      1.60000000</i>
    <i name="BMIX_MAG">      1.00000000</i>
    <separator name="electronic mixer details" >
     <i type="int" name="IMIX">     4</i>
     <i type="logical" name="MIXFIRST"> F  </i>
     <i type="int" name="MAXMIX">   -45</i>
     <i name="WC">    100.00000000</i>
     <i type="int" name="INIMIX">     1</i>
     <i type="int" name="MIXPRE">     1</i>
     <i type="int" name="MREMOVE">     5</i>
    </separator>
   </separator>
   <separator name="electronic dipolcorrection" >
    <i type="logical" name="LDIPOL"> F  </i>
    <i type="logical" name="LMONO"> F  </i>
    <i type="int" name="IDIPOL">     0</i>
    <i name="EPSILON">      1.00000000</i>
    <v name="DIPOL">   -100.00000000   -100.00000000   -100.00000000</v>
    <i name="EFIELD">      0.00000000</i>
   </separator>
  </separator>
  <separator name="grids" >
   <i type="int" name="NGX">    36</i>
   <i type="int" name="NGY">    36</i>
   <i type="int" name="NGZ">    36</i>
   <i type="int" name="NGXF">    72</i>
   <i type="int" name="NGYF">    72</i>
   <i type="int" name="NGZF">    72</i>
   <i type="logical" name="ADDGRID"> F  </i>
  </separator>
  <separator name="ionic" >
   <i type="int" name="NSW">     0</i>
   <i type="int" name="IBRION">    -1</i>
   <i type="int" name="MDALGO">     0</i>
   <i type="int" name="ISIF">     3</i>
   <i name="PSTRESS">      0.00000000</i>
   <i name="EDIFFG">     -0.02000000</i>
   <i type="int" name="NFREE">     0</i>
   <i name="POTIM">      0.50000000</i>
   <i name="SMASS">     -3.00000000</i>
   <i name="SCALEE">      1.00000000</i>
  </separator>
  <separator name="ionic md" >
   <i name="TEBEG">      0.00010000</i>
   <i name="TEEND">      0.00010000</i>
   <i type="int" name="NBLOCK">     1</i>
   <i type="int" name="KBLOCK">     1</i>
   <i type="int" name="NPACO">   256</i>
   <i name="APACO">     16.00000000</i>
  </separator>
  <separator name="symmetry" >
   <i type="int" name="ISYM">     2</i>
   <i name="SYMPREC">      0.00001000</i>
  </separator>
  <separator name="dos" >
   <i type="int" name="LORBIT">    11</i>
   <v name="RWIGS">     -1.00000000</v>
   <i type="int" name="NEDOS">  4544</i>
   <i name="EMIN">     10.00000000</i>
   <i name="EMAX">    -10.00000000</i>
   <i name="EFERMI">      0.00000000</i>
  </separator>
  <separator name="writing" >
   <i type="int" name="NWRITE">     2</i>
   <i type="logical" name="LWAVE"> F  </i>
   <i type="logical" name="LDOWNSAMPLE"> F  </i>
   <i type="logical" name="LCHARG"> F  </i>
   <i type="logical" name="LPARD"> F  </i>
   <i type="logical" name="LVTOT"> T  </i>
   <i type="logical" name="LVHAR"> F  </i>
   <i type="logical" name="LELF"> T  </i>
   <i type="logical" name="LOPTICS"> T  </i>
   <v name="STM">      0.00000000      0.00000000      0.00000000      0.00000000      0.00000000      0.00000000      0.00000000</v>
  </separator>
  <separator name="performance" >
   <i type="int" name="NPAR">     1</i>
   <i type="int" name="NSIM">     4</i>
   <i type="int" name="NBLK">    -1</i>
   <i type="logical" name="LPLANE"> T  </i>
   <i type="logical" name="LSCALAPACK"> F  </i>
   <i type="logical" name="LSCAAWARE"> F  </i>
   <i type="logical" name="LSCALU"> F  </i>
   <i type="logical" name="LASYNC"> F  </i>
   <i type="logical" name="LORBITALREAL"> F  </i>
  </separator>
  <separator name="miscellaneous" >
   <i type="int" name="IDIOT">     3</i>
   <i type="int" name="PHON_NSTRUCT">    -1</i>
   <i type="logical" name="LMUSIC"> F  </i>
   <v name="POMASS">     28.08500000</v>
   <v name="DARWINR">      0.00000000</v>
   <v name="DARWINV">      1.00000000</v>
   <i type="logical" name="LCORR"> T  </i>
  </separator>
  <i type="logical" name="GGA_COMPAT"> T  </i>
  <i type="logical" name="LBERRY"> F  </i>
  <i type="int" name="ICORELEVEL">     0</i>
  <i type="logical" name="LDAU"> F  </i>
  <i type="int" name="I_CONSTRAINED_M">     0</i>
  <separator name="electronic exchange-correlation" >
   <i type="string" name="GGA">--</i>
   <i type="int" name="VOSKOWN">     0</i>
   <i type="logical" name="LHFCALC"> F  </i>
   <i type="string" name="PRECFOCK"></i>
   <i type="logical" name="LSYMGRAD"> F  </i>
   <i type="logical" name="LHFONE"> F  </i>
   <i type="logical" name="LRHFCALC"> F  </i>
   <i type="logical" name="LTHOMAS"> F  </i>
   <i type="logical" name="LMODELHF"> F  </i>
   <i type="logical" name="LFOCKACE"> F  </i>
   <i name="ENCUT4O">     -1.00000000</i>
   <i type="int" name="EXXOEP">     0</i>
   <i type="int" name="FOURORBIT">     0</i>
   <i name="AEXX">      0.00000000</i>
   <i name="HFALPHA">      0.00000000</i>
   <i name="MCALPHA">      0.00000000</i>
   <i name="ALDAX">      1.00000000</i>
   <i name="AGGAX">      1.00000000</i>
   <i name="ALDAC">      1.00000000</i>
   <i name="AGGAC">      1.00000000</i>
   <i type="int" name="NKREDX">     1</i>
   <i type="int" name="NKREDY">     1</i>
   <i type="int" name="NKREDZ">     1</i>
   <i type="logical" name="SHIFTRED"> F  </i>
   <i type="logical" name="ODDONLY"> F  </i>
   <i type="logical" name="EVENONLY"> F  </i>
   <i type="int" name="LMAXFOCK">     0</i>
   <i type="int" name="NMAXFOCKAE">     0</i>
   <i type="logical" name="LFOCKAEDFT"> F  </i>
   <i name="HFSCREEN">      0.00000000</i>
   <i name="HFSCREENC">      0.00000000</i>
   <i type="int" name="NBANDSGWLOW">     0</i>
  </separator>
  <separator name="vdW DFT" >
   <i type="logical" name="LUSE_VDW"> F  </i>
   <i name="Zab_VDW">     -0.84910000</i>
   <i name="PARAM1">      0.12340000</i>
   <i name="PARAM2">      1.00000000</i>
   <i name="PARAM3">      0.00000000</i>
  </separator>
  <separator name="model GW" >
   <i type="int" name="MODEL_GW">     0</i>
   <i name="MODEL_EPS0">     12.26648953</i>
   <i name="MODEL_ALPHA">      1.00000000</i>
  </separator>
  <separator name="linear response parameters" >
   <i type="logical" name="LEPSILON"> F  </i>
   <i type="logical" name="LRPA"> F  </i>
   <i type="logical" name="LNABLA"> F  </i>
   <i type="logical" name="LVEL"> F  </i>
   <i type="int" name="KINTER">     0</i>
   <i name="CSHIFT">      0.10000000</i>
   <i name="OMEGAMAX">     -1.00000000</i>
   <i name="DEG_THRESHOLD">      0.00200000</i>
   <i name="RTIME">     -0.10000000</i>
   <i name="WPLASMAI">      0.00000000</i>
   <v name="DFIELD">      0.00000000      0.00000000      0.00000000</v>
   <v name="WPLASMA">      0.00000000      0.00000000      0.00000000      0.00000000      0.00000000      0.00000000      0.00000000      0.00000000      0.00000000</v>
  </separator>
  <separator name="orbital magnetization" >
   <i type="logical" name="NUCIND"> F  </i>
   <v name="MAGPOS">      0.00000000      0.00000000      0.00000000</v>
   <i type="logical" name="LNICSALL"> T  </i>
   <i type="logical" name="ORBITALMAG"> F  </i>
   <i type="logical" name="LMAGBLOCH"> F  </i>
   <i type="logical" name="LCHIMAG"> F  </i>
   <i type="logical" name="LGAUGE"> T  </i>
   <i type="int" name="MAGATOM">     0</i>
   <v name="MAGDIPOL">      0.00000000      0.00000000      0.00000000</v>
   <v name="AVECCONST">      0.00000000      0.00000000      0.00000000</v>
  </separator>
  <separator name="response functions" >
   <i type="logical" name="LFINITE_TEMPERATURE"> F  </i>
   <i type="logical" name="LADDER"> F  </i>
   <i type="logical" name="LRPAFORCE"> F  </i>
   <i type="logical" name="LFXC"> F  </i>
   <i type="logical" name="LHARTREE"> T  </i>
   <i type="int" name="IBSE">     0</i>
   <v type="int" name="KPOINT">    -1     0     0     0</v>
   <i type="logical" name="LTCTC"> F  </i>
   <i type="logical" name="LTCTE"> F  </i>
   <i type="logical" name="LTETE"> F  </i>
   <i type="logical" name="LTRIPLET"> F  </i>
   <i type="logical" name="LFXCEPS"> F  </i>
   <i type="logical" name="LFXHEG"> F  </i>
   <i type="int" name="NATURALO">     2</i>
   <i type="logical" name="LHOLEGF"> F  </i>
   <i type="logical" name="L2ORDER"> F  </i>
   <i type="logical" name="LDMP1"> F  </i>
   <i type="logical" name="LMP2LT"> F  </i>
   <i type="logical" name="LSMP2LT"> F  </i>
   <i type="logical" name="LGWLF"> F  </i>
   <i name="ENCUTGW">     -2.00000000</i>
   <i name="ENCUTGWSOFT">     -2.00000000</i>
   <i name="ENCUTLF">     -1.00000000</i>
   <i type="logical" name="LESF_SPLINES"> F  </i>
   <i type="int" name="LMAXMP2">    -1</i>
   <i name="SCISSOR">      0.00000000</i>
   <i type="int" name="NOMEGA">     0</i>
   <i type="int" name="NOMEGAR">     0</i>
   <i type="int" name="NBANDSGW">    -1</i>
   <i type="int" name="NBANDSO">    -1</i>
   <i type="int" name="NBANDSV">    -1</i>
   <i type="int" name="NELM">   200</i>
   <i type="int" name="NELMHF">     1</i>
   <i type="int" name="DIM">     3</i>
   <i type="int" name="IESPILON">     4</i>
   <i type="int" name="ANTIRES">     0</i>
   <i name="OMEGAMAX">    -30.00000000</i>
   <i name="OMEGAMIN">    -30.00000000</i>
   <i name="OMEGATL">   -200.00000000</i>
   <i type="int" name="OMEGAGRID">     0</i>
   <i name="CSHIFT">     -0.10000000</i>
   <i type="logical" name="LSELFENERGY"> F  </i>
   <i type="logical" name="LSPECTRAL"> F  </i>
   <i type="logical" name="LSPECTRALGW"> F  </i>
   <i type="logical" name="LSINGLES"> F  </i>
   <i type="logical" name="LFERMIGW"> F  </i>
   <i type="logical" name="ODDONLYGW"> F  </i>
   <i type="logical" name="EVENONLYGW"> F  </i>
   <i type="int" name="NKREDLFX">     1</i>
   <i type="int" name="NKREDLFY">     1</i>
   <i type="int" name="NKREDLFZ">     1</i>
   <i type="int" name="MAXMEM">  2800</i>
   <i type="int" name="TELESCOPE">     0</i>
   <i type="int" name="NTAUPAR">    -1</i>
   <i type="int" name="NOMEGAPAR">    -1</i>
   <i name="DAMP_NEWTON">      0.80000001</i>
   <i name="LAMBDA">      1.00000000</i>
  </separator>
  <separator name="External order field" >
   <i name="OFIELD_KAPPA">      0.00000000</i>
   <v name="OFIELD_K">      0.00000000      0.00000000      0.00000000</v>
   <i name="OFIELD_Q6_NEAR">      0.00000000</i>
   <i name="OFIELD_Q6_FAR">      0.00000000</i>
   <i name="OFIELD_A">      0.00000000</i>
  </separator>
 </parameters>
 <atominfo>
  <atoms>       2 </atoms>
  <types>       1 </types>
  <array name="atoms" >
   <dimension dim="1">ion</dimension>
   <field type="string">element</field>
   <field type="int">atomtype</field>
   <set>
    <rc><c>Si</c><c>   1</c></rc>
    <rc><c>Si</c><c>   1</c></rc>
   </set>
  </array>
  <array name="atomtypes" >
   <dimension dim="1">type</dimension>
   <field type="int">atomspertype</field>
   <field type="string">element</field>
   <field>mass</field>
   <field>valence</field>
   <field type="string">pseudopotential</field>
   <set>
    <rc><c>   2</c><c>Si</c><c>     28.08500000</c><c>      4.00000000</c><c>  PAW_PBE Si 05Jan2001                  </c></rc>
   </set>
  </array>
 </atominfo>
 <structure name="initialpos" >
  <crystal>
   <varray name="basis" >
    <v>       3.34889800       0.00000000       1.93348700 </v>
    <v>       1.11629900       3.15737200       1.93348700 </v>
    <v>       0.00000000       0.00000000       3.86697500 </v>
   </varray>
   <i name="volume">     40.88829843 </i>
   <varray name="rec_basis" >
    <v>       0.29860569      -0.10557300       0.00000000 </v>
    <v>       0.00000000       0.31671909       0.00000000 </v>
    <v>      -0.14930281      -0.10557302       0.25860007 </v>
   </varray>
  </crystal>
  <varray name="positions" >
   <v>       0.25000000       0.25000000       0.25000000 </v>
   <v>       0.00000000       0.00000000       0.00000000 </v>
  </varray>
 </structure>
 <calculation>
  <scstep>
   <time name="dav">    0.53    0.53</time>
   <time name="total">    0.61    0.61</time>
   <energy>
    <i name="alphaZ">      3.29317992 </i>
    <i name="ewald">   -226.94489173 </i>
    <i name="hartreedc">    -15.17367529 </i>
    <i name="XCdc">    -18.06134929 </i>
    <i name="pawpsdc">    828.12984267 </i>
    <i name="pawaedc">   -793.14855533 </i>
    <i name="eentropy">      0.00000000 </i>
    <i name="bandstr">     24.88109214 </i>
    <i name="atom">    206.13322186 </i>
    <i name="e_fr_energy">      9.10886494 </i>
    <i name="e_wo_entrp">      9.10886494 </i>
    <i name="e_0_energy">      9.10886494 </i>
   </energy>
  </scstep>
  <scstep>
   <time name="dav">    0.86    0.86</time>
   <time name="total">    0.86    0.86</time>
   <energy>
    <i name="e_fr_energy">    -10.20531281 </i>
    <i name="e_wo_entrp">    -10.20531281 </i>
    <i name="e_0_energy">    -10.20531281 </i>
   </energy>
  </scstep>
  <scstep>
   <time name="dav">    0.71    0.71</time>
   <time name="total">    0.71    0.71</time>
   <energy>
    <i name="e_fr_energy">    -10.84230380 </i>
    <i name="e_wo_entrp">    -10.84230380 </i>
    <i name="e_0_energy">    -10.84230380 </i>
   </energy>
  </scstep>
  <scstep>
   <time name="dav">    0.66    0.67</time>
   <time name="total">    0.66    0.67</time>
   <energy>
    <i name="e_fr_energy">    -10.84719885 </i>
    <i name="e_wo_entrp">    -10.84719885 </i>
    <i name="e_0_energy">    -10.84719885 </i>
   </energy>
  </scstep>
  <scstep>
   <time name="dav">    0.61    0.61</time>
   <time name="total">    0.61    0.62</time>
   <energy>
    <i name="e_fr_energy">    -10.84724297 </i>
    <i name="e_wo_entrp">    -10.84724297 </i>
    <i name="e_0_energy">    -10.84724297 </i>
   </energy>
  </scstep>
  <scstep>
   <time name="dav">    0.63    0.63</time>
   <time name="total">    0.63    0.63</time>
   <energy>
    <i name="alphaZ">      3.29317992 </i>
    <i name="ewald">   -226.94489173 </i>
    <i name="hartreedc">    -15.17367529 </i>
    <i name="XCdc">    -18.06134929 </i>
    <i name="pawpsdc">    828.12984267 </i>
    <i name="pawaedc">   -793.14855533 </i>
    <i name="eentropy">      0.00000000 </i>
    <i name="bandstr">      4.92498368 </i>
    <i name="atom">    206.13322186 </i>
    <i name="e_fr_energy">    -10.84724352 </i>
    <i name="e_wo_entrp">    -10.84724352 </i>
    <i name="e_0_energy">    -10.84724352 </i>
   </energy>
  </scstep>
  <structure>
   <crystal>
    <varray name="basis" >
     <v>       3.34889800       0.00000000       1.93348700 </v>
     <v>       1.11629900       3.15737200       1.93348700 </v>
     <v>       0.00000000       0.00000000       3.86697500 </v>
    </varray>
    <i name="volume">     40.88829843 </i>
    <varray name="rec_basis" >
     <v>       0.29860569      -0.10557300       0.00000000 </v>
     <v>       0.00000000       0.31671909       0.00000000 </v>
     <v>      -0.14930281      -0.10557302       0.25860007 </v>
    </varray>
   </crystal>
   <varray name="positions" >
    <v>       0.25000000       0.25000000       0.25000000 </v>
    <v>       0.00000000       0.00000000       0.00000000 </v>
   </varray>
  </structure>
  <varray name="forces" >
   <v>       0.00000000       0.00000000      -0.00000000 </v>
   <v>      -0.00000000      -0.00000000       0.00000000 </v>
  </varray>
  <varray name="stress" >
   <v>       0.19230738      -0.00000002      -0.00000003 </v>
   <v>      -0.00000002       0.19230747      -0.00000002 </v>
   <v>      -0.00000003      -0.00000002       0.19230745 </v>
  </varray>
  <energy>
   <i name="e_fr_energy">    -10.84724352 </i>
   <i name="e_wo_entrp">    -10.84724352 </i>
   <i name="e_0_energy">    -10.84724352 </i>
  </energy>
  <time name="totalsc">    4.79    4.81</time>
  <eigenvalues>
   <array>
    <dimension dim="1">band</dimension>
    <dimension dim="2">kpoint</dimension>
    <dimension dim="3">spin</dimension>
    <field>eigene</field>
    <field>occ</field>
    <set>
     <set comment="spin 1">
      <set comment="kpoint 1">
       <r>   -6.1987    1.0000 </r>
       <r>    5.6162    1.0000 </r>
       <r>    5.6162    1.0000 </r>
       <r>    5.6162    1.0000 </r>
       <r>    8.1731    0.0000 </r>
       <r>    8.1731    0.0000 </r>
       <r>    8.1731    0.0000 </r>
       <r>    8.7493    0.0000 </r>
       <r>   13.3253    0.0000 </r>
       <r>   13.3253    0.0000 </r>
       <r>   13.4934    0.0000 </r>
      </set>
      <set comment="kpoint 2">
       <r>   -5.9982    1.0000 </r>
       <r>    4.0254    1.0000 </r>
       <r>    5.3338    1.0000 </r>
       <r>    5.3338    1.0000 </r>
       <r>    8.0592    0.0000 </r>
       <r>    8.5885    0.0000 </r>
       <r>    8.5886    0.0000 </r>
       <r>   10.1486    0.0000 </r>
       <r>   12.8524    0.0000 </r>
       <r>   12.8524    0.0000 </r>
       <r>   14.2692    0.0000 </r>
      </set>
      <set comment="kpoint 3">
       <r>   -5.4138    1.0000 </r>
       <r>    1.7299    1.0000 </r>
       <r>    4.8712    1.0000 </r>
       <r>    4.8712    1.0000 </r>
       <r>    7.5753    0.0000 </r>
       <r>    9.1064    0.0000 </r>
       <r>    9.1064    0.0000 </r>
       <r>   12.3672    0.0000 </r>
       <r>   12.8034    0.0000 </r>
       <r>   12.8034    0.0000 </r>
       <r>   14.5459    0.0000 </r>
      </set>
      <set comment="kpoint 4">
       <r>   -4.5393    1.0000 </r>
       <r>   -0.2545    1.0000 </r>
       <r>    4.5485    1.0000 </r>
       <r>    4.5485    1.0000 </r>
       <r>    7.2107    0.0000 </r>
       <r>    9.0693    0.0000 </r>
       <r>    9.0693    0.0000 </r>
       <r>   13.4538    0.0000 </r>
       <r>   14.1555    0.0000 </r>
       <r>   14.1555    0.0000 </r>
       <r>   15.1283    0.0000 </r>
      </set>
      <set comment="kpoint 5">
       <r>   -3.9201    1.0000 </r>
       <r>   -1.2525    1.0000 </r>
       <r>    4.4378    1.0000 </r>
       <r>    4.4378    1.0000 </r>
       <r>    7.0825    0.0000 </r>
       <r>    8.9657    0.0000 </r>
       <r>    8.9657    0.0000 </r>
       <r>   13.3183    0.0000 </r>
       <r>   16.1114    0.0000 </r>
       <r>   16.1120    0.0000 </r>
       <r>   16.8122    0.0000 </r>
      </set>
      <set comment="kpoint 6">
       <r>   -5.9306    1.0000 </r>
       <r>    4.2639    1.0000 </r>
       <r>    4.8297    1.0000 </r>
       <r>    4.8297    1.0000 </r>
       <r>    7.6318    0.0000 </r>
       <r>    9.2880    0.0000 </r>
       <r>    9.2880    0.0000 </r>
       <r>    9.8360    0.0000 </r>
       <r>   12.1004    0.0000 </r>
       <r>   13.6236    0.0000 </r>
       <r>   14.5637    0.0000 </r>
      </set>
      <set comment="kpoint 7">
       <r>   -5.4706    1.0000 </r>
       <r>    2.4104    1.0000 </r>
       <r>    4.3274    1.0000 </r>
       <r>    4.3910    1.0000 </r>
       <r>    7.7613    0.0000 </r>
       <r>    9.2412    0.0000 </r>
       <r>   10.0436    0.0000 </r>
       <r>   10.3549    0.0000 </r>
       <r>   12.9768    0.0000 </r>
       <r>   13.7847    0.0000 </r>
       <r>   15.5516    0.0000 </r>
      </set>
      <set comment="kpoint 8">
       <r>   -4.6720    1.0000 </r>
       <r>    0.3885    1.0000 </r>
       <r>    3.8077    1.0000 </r>
       <r>    4.0625    1.0000 </r>
       <r>    7.8443    0.0000 </r>
       <r>    9.2089    0.0000 </r>
       <r>   10.0578    0.0000 </r>
       <r>   11.0556    0.0000 </r>
       <r>   14.8859    0.0000 </r>
       <r>   14.8973    0.0000 </r>
       <r>   15.4068    0.0000 </r>
      </set>
      <set comment="kpoint 9">
       <r>   -3.8331    1.0000 </r>
       <r>   -1.0419    1.0000 </r>
       <r>    3.3707    1.0000 </r>
       <r>    4.0845    1.0000 </r>
       <r>    7.7792    0.0000 </r>
       <r>    9.1049    0.0000 </r>
       <r>    9.7098    0.0000 </r>
       <r>   12.9209    0.0000 </r>
       <r>   14.5595    0.0000 </r>
       <r>   16.0330    0.0000 </r>
       <r>   17.0538    0.0000 </r>
      </set>
      <set comment="kpoint 10">
       <r>   -4.0703    1.0000 </r>
       <r>   -0.6807    1.0000 </r>
       <r>    3.1955    1.0000 </r>
       <r>    4.3737    1.0000 </r>
       <r>    7.9287    0.0000 </r>
       <r>    9.2239    0.0000 </r>
       <r>    9.4803    0.0000 </r>
       <r>   13.4439    0.0000 </r>
       <r>   13.6750    0.0000 </r>
       <r>   14.7509    0.0000 </r>
       <r>   16.6936    0.0000 </r>
      </set>
      <set comment="kpoint 11">
       <r>   -4.9720    1.0000 </r>
       <r>    1.0348    1.0000 </r>
       <r>    3.3498    1.0000 </r>
       <r>    4.8549    1.0000 </r>
       <r>    8.2719    0.0000 </r>
       <r>    9.2778    0.0000 </r>
       <r>    9.4517    0.0000 </r>
       <r>   11.8276    0.0000 </r>
       <r>   12.0923    0.0000 </r>
       <r>   15.3614    0.0000 </r>
       <r>   15.5749    0.0000 </r>
      </set>
      <set comment="kpoint 12">
       <r>   -5.6682    1.0000 </r>
       <r>    2.9416    1.0000 </r>
       <r>    4.0272    1.0000 </r>
       <r>    5.3265    1.0000 </r>
       <r>    8.5849    0.0000 </r>
       <r>    8.7255    0.0000 </r>
       <r>    8.9470    0.0000 </r>
       <r>   11.0464    0.0000 </r>
       <r>   11.9721    0.0000 </r>
       <r>   13.5819    0.0000 </r>
       <r>   15.2718    0.0000 </r>
      </set>
      <set comment="kpoint 13">
       <r>   -5.1362    1.0000 </r>
       <r>    2.0977    1.0000 </r>
       <r>    3.7677    1.0000 </r>
       <r>    3.7677    1.0000 </r>
       <r>    6.7677    0.0000 </r>
       <r>    8.7520    0.0000 </r>
       <r>   11.3059    0.0000 </r>
       <r>   11.3059    0.0000 </r>
       <r>   13.4846    0.0000 </r>
       <r>   14.5167    0.0000 </r>
       <r>   16.9175    0.0000 </r>
      </set>
      <set comment="kpoint 14">
       <r>   -4.4397    1.0000 </r>
       <r>    0.7008    1.0000 </r>
       <r>    3.0017    1.0000 </r>
       <r>    3.4546    1.0000 </r>
       <r>    6.9872    0.0000 </r>
       <r>    8.5193    0.0000 </r>
       <r>   11.5249    0.0000 </r>
       <r>   11.8233    0.0000 </r>
       <r>   15.5400    0.0000 </r>
       <r>   15.5869    0.0000 </r>
       <r>   17.1638    0.0000 </r>
      </set>
      <set comment="kpoint 15">
       <r>   -3.5347    1.0000 </r>
       <r>   -0.7074    1.0000 </r>
       <r>    2.1538    1.0000 </r>
       <r>    3.4566    1.0000 </r>
       <r>    7.1580    0.0000 </r>
       <r>   10.0481    0.0000 </r>
       <r>   11.2626    0.0000 </r>
       <r>   11.4932    0.0000 </r>
       <r>   15.7028    0.0000 </r>
       <r>   16.0768    0.0000 </r>
       <r>   17.6668    0.0000 </r>
      </set>
      <set comment="kpoint 16">
       <r>   -3.3376    1.0000 </r>
       <r>   -0.9574    1.0000 </r>
       <r>    1.7064    1.0000 </r>
       <r>    3.7678    1.0000 </r>
       <r>    7.4721    0.0000 </r>
       <r>   11.0176    0.0000 </r>
       <r>   11.0589    0.0000 </r>
       <r>   12.4998    0.0000 </r>
       <r>   13.5093    0.0000 </r>
       <r>   13.5640    0.0000 </r>
       <r>   18.0950    0.0000 </r>
      </set>
      <set comment="kpoint 17">
       <r>   -4.1946    1.0000 </r>
       <r>    0.1767    1.0000 </r>
       <r>    1.9471    1.0000 </r>
       <r>    4.3140    1.0000 </r>
       <r>    8.0540    0.0000 </r>
       <r>   10.3650    0.0000 </r>
       <r>   10.6995    0.0000 </r>
       <r>   11.6577    0.0000 </r>
       <r>   12.0700    0.0000 </r>
       <r>   15.1382    0.0000 </r>
       <r>   18.1174    0.0000 </r>
      </set>
      <set comment="kpoint 18">
       <r>   -3.8477    1.0000 </r>
       <r>   -0.0961    1.0000 </r>
       <r>    3.0636    1.0000 </r>
       <r>    3.0636    1.0000 </r>
       <r>    6.2666    0.0000 </r>
       <r>    7.1920    0.0000 </r>
       <r>   13.5535    0.0000 </r>
       <r>   13.5535    0.0000 </r>
       <r>   15.9991    0.0000 </r>
       <r>   16.0987    0.0000 </r>
       <r>   18.5041    0.0000 </r>
      </set>
      <set comment="kpoint 19">
       <r>   -2.9683    1.0000 </r>
       <r>   -1.1626    1.0000 </r>
       <r>    2.2581    1.0000 </r>
       <r>    2.9884    1.0000 </r>
       <r>    6.5471    0.0000 </r>
       <r>    7.6012    0.0000 </r>
       <r>   13.7907    0.0000 </r>
       <r>   13.8464    0.0000 </r>
       <r>   16.2348    0.0000 </r>
       <r>   16.3358    0.0000 </r>
       <r>   17.8363    0.0000 </r>
      </set>
      <set comment="kpoint 20">
       <r>   -2.5451    1.0000 </r>
       <r>   -1.5479    1.0000 </r>
       <r>    1.4158    1.0000 </r>
       <r>    3.2407    1.0000 </r>
       <r>    6.8503    0.0000 </r>
       <r>    9.7284    0.0000 </r>
       <r>   12.9971    0.0000 </r>
       <r>   13.5325    0.0000 </r>
       <r>   13.6992    0.0000 </r>
       <r>   14.0966    0.0000 </r>
       <r>   20.3754    0.0000 </r>
      </set>
      <set comment="kpoint 21">
       <r>   -2.1302    1.0000 </r>
       <r>   -2.1302    1.0000 </r>
       <r>    2.8222    1.0000 </r>
       <r>    2.8222    1.0000 </r>
       <r>    6.3677    0.0000 </r>
       <r>    6.3677    0.0000 </r>
       <r>   15.5527    0.0000 </r>
       <r>   15.5527    0.0000 </r>
       <r>   16.5233    0.0000 </r>
       <r>   16.5233    0.0000 </r>
       <r>   18.0599    0.0000 </r>
      </set>
      <set comment="kpoint 22">
       <r>   -4.8938    1.0000 </r>
       <r>    1.3479    1.0000 </r>
       <r>    2.9642    1.0000 </r>
       <r>    4.2161    1.0000 </r>
       <r>    8.0595    0.0000 </r>
       <r>    9.4435    0.0000 </r>
       <r>    9.8193    0.0000 </r>
       <r>   11.0573    0.0000 </r>
       <r>   13.3295    0.0000 </r>
       <r>   15.7220    0.0000 </r>
       <r>   16.5813    0.0000 </r>
      </set>
      <set comment="kpoint 23">
       <r>   -4.0244    1.0000 </r>
       <r>   -0.1717    1.0000 </r>
       <r>    2.3602    1.0000 </r>
       <r>    3.7287    1.0000 </r>
       <r>    8.4807    0.0000 </r>
       <r>    9.1462    0.0000 </r>
       <r>   10.5942    0.0000 </r>
       <r>   11.4948    0.0000 </r>
       <r>   14.5475    0.0000 </r>
       <r>   15.2435    0.0000 </r>
       <r>   17.5193    0.0000 </r>
      </set>
      <set comment="kpoint 24">
       <r>   -3.3902    1.0000 </r>
       <r>   -1.0912    1.0000 </r>
       <r>    2.2288    1.0000 </r>
       <r>    3.5057    1.0000 </r>
       <r>    8.6401    0.0000 </r>
       <r>    8.7627    0.0000 </r>
       <r>   11.4634    0.0000 </r>
       <r>   12.6826    0.0000 </r>
       <r>   12.9239    0.0000 </r>
       <r>   16.1245    0.0000 </r>
       <r>   17.1705    0.0000 </r>
      </set>
      <set comment="kpoint 25">
       <r>   -3.6543    1.0000 </r>
       <r>   -0.3114    1.0000 </r>
       <r>    2.3284    1.0000 </r>
       <r>    2.9203    1.0000 </r>
       <r>    7.5721    0.0000 </r>
       <r>    8.2751    0.0000 </r>
       <r>   11.3016    0.0000 </r>
       <r>   13.5049    0.0000 </r>
       <r>   15.6724    0.0000 </r>
       <r>   15.7266    0.0000 </r>
       <r>   18.3159    0.0000 </r>
      </set>
      <set comment="kpoint 26">
       <r>   -2.8008    1.0000 </r>
       <r>   -1.2599    1.0000 </r>
       <r>    1.6482    1.0000 </r>
       <r>    2.7244    1.0000 </r>
       <r>    8.0115    0.0000 </r>
       <r>    9.8853    0.0000 </r>
       <r>   10.8292    0.0000 </r>
       <r>   12.9685    0.0000 </r>
       <r>   13.9245    0.0000 </r>
       <r>   16.5771    0.0000 </r>
       <r>   17.6892    0.0000 </r>
      </set>
      <set comment="kpoint 27">
       <r>   -3.1444    1.0000 </r>
       <r>   -0.9020    1.0000 </r>
       <r>    1.4858    1.0000 </r>
       <r>    3.0910    1.0000 </r>
       <r>    8.4809    0.0000 </r>
       <r>   10.1309    0.0000 </r>
       <r>   10.7826    0.0000 </r>
       <r>   12.5796    0.0000 </r>
       <r>   13.3828    0.0000 </r>
       <r>   14.7634    0.0000 </r>
       <r>   19.5722    0.0000 </r>
      </set>
      <set comment="kpoint 28">
       <r>   -2.0565    1.0000 </r>
       <r>   -2.0565    1.0000 </r>
       <r>    2.2771    1.0000 </r>
       <r>    2.2771    1.0000 </r>
       <r>    7.6023    0.0000 </r>
       <r>    7.6023    0.0000 </r>
       <r>   13.3684    0.0000 </r>
       <r>   13.3684    0.0000 </r>
       <r>   16.0703    0.0000 </r>
       <r>   16.0704    0.0000 </r>
       <r>   18.3381    0.0000 </r>
      </set>
      <set comment="kpoint 29">
       <r>   -1.9757    1.0000 </r>
       <r>   -1.9757    1.0000 </r>
       <r>    1.8552    1.0000 </r>
       <r>    1.8552    1.0000 </r>
       <r>    9.8864    0.0000 </r>
       <r>    9.8864    0.0000 </r>
       <r>   10.5480    0.0000 </r>
       <r>   10.5480    0.0000 </r>
       <r>   16.0681    0.0000 </r>
       <r>   16.0681    0.0000 </r>
       <r>   18.4872    0.0000 </r>
      </set>
     </set>
    </set>
   </array>
  </eigenvalues>
  <separator name="orbital magnetization" >
   <v name="MAGDIPOLOUT">      0.00000000      0.00000000      0.00000000</v>
  </separator>
  <dielectricfunction comment="density-density">
   <imag>
    <array>
     <dimension dim="1">gridpoints</dimension>
     <field>energy</field>
     <field>xx</field>
     <field>yy</field>
     <field>zz</field>
     <field>xy</field>
     <field>yz</field>
     <field>zx</field>
     <set>
      <r>     0.0000     0.0000     0.0000     0.0000     0.0000     0.0000     0.0000 </r>
      <r>     0.0070     0.0012     0.0012     0.0012    -0.0000    -0.0000    -0.0000 </r>
      <r>     0.0140     0.0023     0.0023     0.0023    -0.0000    -0.0000    -0.0000 </r>
      <r>     0.0211     0.0035     0.0035     0.0035    -0.0000    -0.0000    -0.0000 </r>
      <r>     0.0281     0.0047     0.0047     0.0047    -0.0000    -0.0000    -0.0000 </r>
      <r>     0.0351     0.0058     0.0058     0.0058    -0.0000    -0.0000    -0.0000 </r>
      <r>     0.0421     0.0070     0.0070     0.0070    -0.0000    -0.0000    -0.0000 </r>
      <r>     0.0491     0.0082     0.0082     0.0082    -0.0000    -0.0000    -0.0000 </r>
      <r>     0.0562     0.0094     0.0094     0.0094    -0.0000    -0.0000    -0.0000 </r>
      <r>     0.0632     0.0105     0.0105     0.0105    -0.0000    -0.0000    -0.0000 </r>
      <r>     0.0702     0.0117     0.0117     0.0117    -0.0000    -0.0000    -0.0000 </r>
      <r>     0.0772     0.0129     0.0129     0.0129    -0.0000    -0.0000    -0.0000 </r>
      <r>     0.0842     0.0140     0.0140     0.0140    -0.0000    -0.0000    -0.0000 </r>
      <r>     0.0913     0.0152     0.0152     0.0152    -0.0000    -0.0000    -0.0000 </r>
      <r>     0.0983     0.0164     0.0164     0.0164    -0.0000    -0.0000    -0.0000 </r>
      <r>     0.1053     0.0176     0.0176     0.0176    -0.0000    -0.0000    -0.0000 </r>
      <r>     0.1123     0.0187     0.0187     0.0187    -0.0000    -0.0000    -0.0000 </r>
      <r>     0.1193     0.0199     0.0199     0.0199    -0.0000    -0.0000    -0.0000 </r>
      <r>     0.1263     0.0211     0.0211     0.0211    -0.0000    -0.0000    -0.0000 </r>
      <r>     0.1334     0.0223     0.0223     0.0223    -0.0000    -0.0000    -0.0000 </r>
      <r>     0.1404     0.0235     0.0235     0.0235    -0.0000    -0.0000    -0.0000 </r>
      <r>     0.1474     0.0246     0.0246     0.0246    -0.0000    -0.0000    -0.0000 </r>
      <r>     0.1544     0.0258     0.0258     0.0258    -0.0000    -0.0000    -0.0000 </r>
      <r>     0.1614     0.0270     0.0270     0.0270    -0.0000    -0.0000    -0.0000 </r>
      <r>     0.1685     0.0282     0.0282     0.0282    -0.0000    -0.0000    -0.0000 </r>
      <r>     0.1755     0.0294     0.0294     0.0294    -0.0000    -0.0000    -0.0000 </r>
      <r>     0.1825     0.0306     0.0306     0.0306    -0.0000    -0.0000    -0.0000 </r>
      <r>     0.1895     0.0318     0.0318     0.0318    -0.0000    -0.0000    -0.0000 </r>
      <r>     0.1965     0.0329     0.0329     0.0329    -0.0000    -0.0000    -0.0000 </r>
      <r>     0.2036     0.0341     0.0341     0.0341    -0.0000    -0.0000    -0.0000 </r>
      <r>     0.2106     0.0353     0.0353     0.0353    -0.0000    -0.0000    -0.0000 </r>
      <r>     0.2176     0.0365     0.0365     0.0365    -0.0000    -0.0000    -0.0000 </r>
      <r>     0.2246     0.0377     0.0377     0.0377    -0.0000    -0.0000    -0.0000 </r>
      <r>     0.2316     0.0389     0.0389     0.0389    -0.0000    -0.0000    -0.0000 </r>
      <r>     0.2387     0.0401     0.0401     0.0401    -0.0000    -0.0000    -0.0000 </r>
      <r>     0.2457     0.0413     0.0413     0.0413    -0.0000    -0.0000    -0.0000 </r>
      <r>     0.2527     0.0425     0.0425     0.0425    -0.0000    -0.0000    -0.0000 </r>
      <r>     0.2597     0.0437     0.0437     0.0437    -0.0000    -0.0000    -0.0000 </r>
      <r>     0.2667     0.0449     0.0449     0.0449    -0.0000    -0.0000    -0.0000 </r>
      <r>     0.2738     0.0462     0.0462     0.0462    -0.0000    -0.0000    -0.0000 </r>
      <r>     0.2808     0.0474     0.0474     0.0474    -0.0000    -0.0000    -0.0000 </r>
      <r>     0.2878     0.0486     0.0486     0.0486    -0.0000    -0.0000    -0.0000 </r>
      <r>     0.2948     0.0498     0.0498     0.0498    -0.0000    -0.0000    -0.0000 </r>
      <r>     0.3018     0.0510     0.0510     0.0510    -0.0000    -0.0000    -0.0000 </r>
      <r>     0.3089     0.0522     0.0522     0.0522    -0.0000    -0.0000    -0.0000 </r>
      <r>     0.3159     0.0535     0.0535     0.0535    -0.0000    -0.0000    -0.0000 </r>
      <r>     0.3229     0.0547     0.0547     0.0547    -0.0000    -0.0000    -0.0000 </r>
      <r>     0.3299     0.0559     0.0559     0.0559    -0.0000    -0.0000    -0.0000 </r>
      <r>     0.3369     0.0571     0.0571     0.0571    -0.0000    -0.0000    -0.0000 </r>
      <r>     0.3439     0.0584     0.0584     0.0584    -0.0000    -0.0000    -0.0000 </r>
      <r>     0.3510     0.0596     0.0596     0.0596    -0.0000    -0.0000    -0.0000 </r>
      <r>     0.3580     0.0609     0.0609     0.0609    -0.0000    -0.0000    -0.0000 </r>
      <r>     0.3650     0.0621     0.0621     0.0621    -0.0000    -0.0000    -0.0000 </r>
      <r>     0.3720     0.0633     0.0633     0.0633    -0.0000    -0.0000    -0.0000 </r>
      <r>     0.3790     0.0646     0.0646     0.0646    -0.0000    -0.0000    -0.0000 </r>
      <r>     0.3861     0.0659     0.0659     0.0659    -0.0000    -0.0000    -0.0000 </r>
      <r>     0.3931     0.0671     0.0671     0.0671    -0.0000    -0.0000    -0.0000 </r>
      <r>     0.4001     0.0684     0.0684     0.0684    -0.0000    -0.0000    -0.0000 </r>
      <r>     0.4071     0.0696     0.0696     0.0696    -0.0000    -0.0000    -0.0000 </r>
      <r>     0.4141     0.0709     0.0709     0.0709    -0.0000    -0.0000    -0.0000 </r>
      <r>     0.4212     0.0722     0.0722     0.0722    -0.0000    -0.0000    -0.0000 </r>
      <r>     0.4282     0.0734     0.0734     0.0734    -0.0000    -0.0000    -0.0000 </r>
      <r>     0.4352     0.0747     0.0747     0.0747    -0.0000    -0.0000    -0.0000 </r>
      <r>     0.4422     0.0760     0.0760     0.0760    -0.0000    -0.0000    -0.0000 </r>
      <r>     0.4492     0.0773     0.0773     0.0773    -0.0000    -0.0000    -0.0000 </r>
      <r>     0.4563     0.0786     0.0786     0.0786    -0.0000    -0.0000    -0.0000 </r>
      <r>     0.4633     0.0799     0.0799     0.0799    -0.0000    -0.0000    -0.0000 </r>
      <r>     0.4703     0.0811     0.0811     0.0811    -0.0000    -0.0000    -0.0000 </r>
      <r>     0.4773     0.0824     0.0824     0.0824    -0.0000    -0.0000    -0.0000 </r>
      <r>     0.4843     0.0837     0.0837     0.0837    -0.0000    -0.0000    -0.0000 </r>
      <r>     0.4914     0.0851     0.0851     0.0851    -0.0000    -0.0000    -0.0000 </r>
      <r>     0.4984     0.0864     0.0864     0.0864    -0.0000    -0.0000    -0.0000 </r>
      <r>     0.5054     0.0877     0.0877     0.0877    -0.0000    -0.0000    -0.0000 </r>
      <r>     0.5124     0.0890     0.0890     0.0890    -0.0000    -0.0000    -0.0000 </r>
      <r>     0.5194     0.0903     0.0903     0.0903    -0.0000    -0.0000    -0.0000 </r>
      <r>     0.5265     0.0917     0.0917     0.0917    -0.0000    -0.0000    -0.0000 </r>
      <r>     0.5335     0.0930     0.0930     0.0930    -0.0000    -0.0000    -0.0000 </r>
      <r>     0.5405     0.0943     0.0943     0.0943    -0.0000    -0.0000    -0.0000 </r>
      <r>     0.5475     0.0957     0.0957     0.0957    -0.0000    -0.0000    -0.0000 </r>
      <r>     0.5545     0.0970     0.0970     0.0970    -0.0000    -0.0000    -0.0000 </r>
      <r>     0.5615     0.0984     0.0984     0.0984    -0.0000    -0.0000    -0.0000 </r>
      <r>     0.5686     0.0997     0.0997     0.0997    -0.0000    -0.0000    -0.0000 </r>
      <r>     0.5756     0.1011     0.1011     0.1011    -0.0000    -0.0000    -0.0000 </r>
      <r>     0.5826     0.1025     0.1025     0.1025    -0.0000    -0.0000    -0.0000 </r>
      <r>     0.5896     0.1038     0.1038     0.1038    -0.0000    -0.0000    -0.0000 </r>
      <r>     0.5966     0.1052     0.1052     0.1052    -0.0000    -0.0000    -0.0000 </r>
      <r>     0.6037     0.1066     0.1066     0.1066    -0.0000    -0.0000    -0.0000 </r>
      <r>     0.6107     0.1080     0.1080     0.1080    -0.0000    -0.0000    -0.0000 </r>
      <r>     0.6177     0.1094     0.1094     0.1094    -0.0000    -0.0000    -0.0000 </r>
      <r>     0.6247     0.1108     0.1108     0.1108    -0.0000    -0.0000    -0.0000 </r>
      <r>     0.6317     0.1122     0.1122     0.1122    -0.0000    -0.0000    -0.0000 </r>
      <r>     0.6388     0.1136     0.1136     0.1136    -0.0000    -0.0000    -0.0000 </r>
      <r>     0.6458     0.1150     0.1150     0.1150    -0.0000    -0.0000    -0.0000 </r>
      <r>     0.6528     0.1164     0.1164     0.1164    -0.0000    -0.0000    -0.0000 </r>
      <r>     0.6598     0.1179     0.1179     0.1179    -0.0000    -0.0000    -0.0000 </r>
      <r>     0.6668     0.1193     0.1193     0.1193    -0.0000    -0.0000    -0.0000 </r>
      <r>     0.6739     0.1207     0.1207     0.1207    -0.0000    -0.0000    -0.0000 </r>
      <r>     0.6809     0.1222     0.1222     0.1222    -0.0000    -0.0000    -0.0000 </r>
      <r>     0.6879     0.1236     0.1236     0.1236    -0.0000    -0.0000    -0.0000 </r>
      <r>     0.6949     0.1251     0.1251     0.1251    -0.0000    -0.0000    -0.0000 </r>
      <r>     0.7019     0.1266     0.1266     0.1266    -0.0000    -0.0000    -0.0000 </r>
      <r>     0.7090     0.1280     0.1280     0.1280    -0.0000    -0.0000    -0.0000 </r>
      <r>     0.7160     0.1295     0.1295     0.1295    -0.0000    -0.0000    -0.0000 </r>
      <r>     0.7230     0.1310     0.1310     0.1310    -0.0000    -0.0000    -0.0000 </r>
      <r>     0.7300     0.1325     0.1325     0.1325    -0.0000    -0.0000    -0.0000 </r>
      <r>     0.7370     0.1340     0.1340     0.1340    -0.0000    -0.0000    -0.0000 </r>
      <r>     0.7441     0.1355     0.1355     0.1355    -0.0000    -0.0000    -0.0000 </r>
      <r>     0.7511     0.1370     0.1370     0.1370    -0.0000    -0.0000    -0.0000 </r>
      <r>     0.7581     0.1386     0.1386     0.1386    -0.0000    -0.0000    -0.0000 </r>
      <r>     0.7651     0.1401     0.1401     0.1401    -0.0000    -0.0000    -0.0000 </r>
      <r>     0.7721     0.1416     0.1416     0.1416    -0.0000    -0.0000    -0.0000 </r>
      <r>     0.7791     0.1432     0.1432     0.1432    -0.0000    -0.0000    -0.0000 </r>
      <r>     0.7862     0.1447     0.1447     0.1447    -0.0000    -0.0000    -0.0000 </r>
      <r>     0.7932     0.1463     0.1463     0.1463    -0.0000    -0.0000    -0.0000 </r>
      <r>     0.8002     0.1479     0.1479     0.1479    -0.0000    -0.0000    -0.0000 </r>
      <r>     0.8072     0.1495     0.1495     0.1495    -0.0000    -0.0000    -0.0000 </r>
      <r>     0.8142     0.1511     0.1511     0.1511    -0.0000    -0.0000    -0.0000 </r>
      <r>     0.8213     0.1526     0.1526     0.1526    -0.0000    -0.0000    -0.0000 </r>
      <r>     0.8283     0.1543     0.1543     0.1543    -0.0000    -0.0000    -0.0000 </r>
      <r>     0.8353     0.1559     0.1559     0.1559    -0.0000    -0.0000    -0.0000 </r>
      <r>     0.8423     0.1575     0.1575     0.1575    -0.0000    -0.0000    -0.0000 </r>
      <r>     0.8493     0.1591     0.1591     0.1591    -0.0000    -0.0000    -0.0000 </r>
      <r>     0.8564     0.1608     0.1608     0.1608    -0.0000    -0.0000    -0.0000 </r>
      <r>     0.8634     0.1624     0.1624     0.1624    -0.0000    -0.0000    -0.0000 </r>
      <r>     0.8704     0.1641     0.1641     0.1641    -0.0000    -0.0000    -0.0000 </r>
      <r>     0.8774     0.1657     0.1657     0.1657    -0.0000    -0.0000    -0.0000 </r>
      <r>     0.8844     0.1674     0.1674     0.1674    -0.0000    -0.0000    -0.0000 </r>
      <r>     0.8915     0.1691     0.1691     0.1691    -0.0000    -0.0000    -0.0000 </r>
      <r>     0.8985     0.1708     0.1708     0.1708    -0.0000    -0.0000    -0.0000 </r>
      <r>     0.9055     0.1725     0.1725     0.1725    -0.0000    -0.0000    -0.0000 </r>
      <r>     0.9125     0.1742     0.1742     0.1742    -0.0000    -0.0000    -0.0000 </r>
      <r>     0.9195     0.1760     0.1760     0.1760    -0.0000    -0.0000    -0.0000 </r>
      <r>     0.9266     0.1777     0.1777     0.1777    -0.0000    -0.0000    -0.0000 </r>
      <r>     0.9336     0.1795     0.1795     0.1795    -0.0000    -0.0000    -0.0000 </r>
      <r>     0.9406     0.1812     0.1812     0.1812    -0.0000    -0.0000    -0.0000 </r>
      <r>     0.9476     0.1830     0.1830     0.1830    -0.0000    -0.0000    -0.0000 </r>
      <r>     0.9546     0.1848     0.1848     0.1848    -0.0000    -0.0000    -0.0000 </r>
      <r>     0.9617     0.1866     0.1866     0.1866    -0.0000    -0.0000    -0.0000 </r>
      <r>     0.9687     0.1884     0.1884     0.1884    -0.0000    -0.0000    -0.0000 </r>
      <r>     0.9757     0.1902     0.1902     0.1902    -0.0000    -0.0000    -0.0000 </r>
      <r>     0.9827     0.1920     0.1920     0.1920    -0.0000    -0.0000    -0.0000 </r>
      <r>     0.9897     0.1938     0.1938     0.1938    -0.0000    -0.0000    -0.0000 </r>
      <r>     0.9967     0.1957     0.1957     0.1957    -0.0000    -0.0000    -0.0000 </r>
      <r>     1.0038     0.1976     0.1976     0.1976    -0.0000    -0.0000    -0.0000 </r>
      <r>     1.0108     0.1994     0.1994     0.1994    -0.0000    -0.0000    -0.0000 </r>
      <r>     1.0178     0.2013     0.2013     0.2013    -0.0000    -0.0000    -0.0000 </r>
      <r>     1.0248     0.2032     0.2032     0.2032    -0.0000    -0.0000    -0.0000 </r>
      <r>     1.0318     0.2051     0.2051     0.2051    -0.0000    -0.0000    -0.0000 </r>
      <r>     1.0389     0.2071     0.2071     0.2071    -0.0000    -0.0000    -0.0000 </r>
      <r>     1.0459     0.2090     0.2090     0.2090    -0.0000    -0.0000    -0.0000 </r>
      <r>     1.0529     0.2110     0.2110     0.2110    -0.0000    -0.0000    -0.0000 </r>
      <r>     1.0599     0.2129     0.2129     0.2129    -0.0000    -0.0000    -0.0000 </r>
      <r>     1.0669     0.2149     0.2149     0.2149    -0.0000    -0.0000    -0.0000 </r>
      <r>     1.0740     0.2169     0.2169     0.2169    -0.0000    -0.0000    -0.0000 </r>
      <r>     1.0810     0.2189     0.2189     0.2189    -0.0000    -0.0000    -0.0000 </r>
      <r>     1.0880     0.2209     0.2209     0.2209    -0.0000    -0.0000    -0.0000 </r>
      <r>     1.0950     0.2230     0.2230     0.2230    -0.0000    -0.0000    -0.0000 </r>
      <r>     1.1020     0.2250     0.2250     0.2250    -0.0000    -0.0000    -0.0000 </r>
      <r>     1.1091     0.2271     0.2271     0.2271    -0.0000    -0.0000    -0.0000 </r>
      <r>     1.1161     0.2292     0.2292     0.2292    -0.0000    -0.0000    -0.0000 </r>
      <r>     1.1231     0.2313     0.2313     0.2313    -0.0000    -0.0000    -0.0000 </r>
      <r>     1.1301     0.2334     0.2334     0.2334    -0.0000    -0.0000    -0.0000 </r>
      <r>     1.1371     0.2355     0.2355     0.2355    -0.0000    -0.0000    -0.0000 </r>
      <r>     1.1442     0.2377     0.2377     0.2377    -0.0000    -0.0000    -0.0000 </r>
      <r>     1.1512     0.2398     0.2398     0.2398    -0.0000    -0.0000    -0.0000 </r>
      <r>     1.1582     0.2420     0.2420     0.2420    -0.0000    -0.0000    -0.0000 </r>
      <r>     1.1652     0.2442     0.2442     0.2442    -0.0000    -0.0000    -0.0000 </r>
      <r>     1.1722     0.2464     0.2464     0.2464    -0.0000    -0.0000    -0.0000 </r>
      <r>     1.1793     0.2486     0.2486     0.2486    -0.0000    -0.0000    -0.0000 </r>
      <r>     1.1863     0.2509     0.2509     0.2509    -0.0000    -0.0000    -0.0000 </r>
      <r>     1.1933     0.2532     0.2532     0.2532    -0.0000    -0.0000    -0.0000 </r>
      <r>     1.2003     0.2554     0.2554     0.2554    -0.0000    -0.0000    -0.0000 </r>
      <r>     1.2073     0.2577     0.2577     0.2577    -0.0000    -0.0000    -0.0000 </r>
      <r>     1.2143     0.2601     0.2601     0.2601    -0.0000    -0.0000    -0.0000 </r>
      <r>     1.2214     0.2624     0.2624     0.2624    -0.0000    -0.0000    -0.0000 </r>
      <r>     1.2284     0.2648     0.2648     0.2648    -0.0000    -0.0000    -0.0000 </r>
      <r>     1.2354     0.2671     0.2671     0.2671    -0.0000    -0.0000    -0.0000 </r>
      <r>     1.2424     0.2695     0.2695     0.2695    -0.0000    -0.0000    -0.0000 </r>
      <r>     1.2494     0.2720     0.2720     0.2720    -0.0000    -0.0000    -0.0000 </r>
      <r>     1.2565     0.2744     0.2744     0.2744    -0.0000    -0.0000    -0.0000 </r>
      <r>     1.2635     0.2768     0.2768     0.2768    -0.0000    -0.0000    -0.0000 </r>
      <r>     1.2705     0.2793     0.2793     0.2793    -0.0000    -0.0000    -0.0000 </r>
      <r>     1.2775     0.2818     0.2818     0.2818    -0.0000    -0.0000    -0.0000 </r>
      <r>     1.2845     0.2844     0.2844     0.2844    -0.0000    -0.0000    -0.0000 </r>
      <r>     1.2916     0.2869     0.2869     0.2869    -0.0000    -0.0000    -0.0000 </r>
      <r>     1.2986     0.2895     0.2895     0.2895    -0.0000    -0.0000    -0.0000 </r>
      <r>     1.3056     0.2920     0.2920     0.2920    -0.0000    -0.0000    -0.0000 </r>
      <r>     1.3126     0.2947     0.2947     0.2947    -0.0000    -0.0000    -0.0000 </r>
      <r>     1.3196     0.2973     0.2973     0.2973    -0.0000    -0.0000    -0.0000 </r>
      <r>     1.3267     0.3000     0.3000     0.3000    -0.0000    -0.0000    -0.0000 </r>
      <r>     1.3337     0.3026     0.3026     0.3026    -0.0000    -0.0000    -0.0000 </r>
      <r>     1.3407     0.3053     0.3053     0.3053    -0.0000    -0.0000    -0.0000 </r>
      <r>     1.3477     0.3081     0.3081     0.3081    -0.0000    -0.0000    -0.0000 </r>
      <r>     1.3547     0.3108     0.3108     0.3108    -0.0000    -0.0000    -0.0000 </r>
      <r>     1.3618     0.3136     0.3136     0.3136    -0.0000    -0.0000    -0.0000 </r>
      <r>     1.3688     0.3164     0.3164     0.3164    -0.0000    -0.0000    -0.0000 </r>
      <r>     1.3758     0.3193     0.3193     0.3193    -0.0000    -0.0000    -0.0000 </r>
      <r>     1.3828     0.3221     0.3221     0.3221    -0.0000    -0.0000    -0.0000 </r>
      <r>     1.3898     0.3250     0.3250     0.3250    -0.0000    -0.0000    -0.0000 </r>
      <r>     1.3969     0.3279     0.3279     0.3279    -0.0000    -0.0000    -0.0000 </r>
      <r>     1.4039     0.3309     0.3309     0.3309    -0.0000    -0.0000    -0.0000 </r>
      <r>     1.4109     0.3338     0.3338     0.3338    -0.0000    -0.0000    -0.0000 </r>
      <r>     1.4179     0.3368     0.3368     0.3368    -0.0000    -0.0000    -0.0000 </r>
      <r>     1.4249     0.3399     0.3399     0.3399    -0.0000    -0.0000    -0.0000 </r>
      <r>     1.4320     0.3429     0.3429     0.3429    -0.0000    -0.0000    -0.0000 </r>
      <r>     1.4390     0.3460     0.3460     0.3460    -0.0000    -0.0000    -0.0000 </r>
      <r>     1.4460     0.3491     0.3491     0.3491    -0.0000    -0.0000    -0.0000 </r>
      <r>     1.4530     0.3523     0.3523     0.3523    -0.0000    -0.0000    -0.0000 </r>
      <r>     1.4600     0.3555     0.3555     0.3555    -0.0000    -0.0000    -0.0000 </r>
      <r>     1.4670     0.3587     0.3587     0.3587    -0.0000    -0.0000    -0.0000 </r>
      <r>     1.4741     0.3619     0.3619     0.3619    -0.0000    -0.0000    -0.0000 </r>
      <r>     1.4811     0.3652     0.3652     0.3652    -0.0000    -0.0000    -0.0000 </r>
      <r>     1.4881     0.3685     0.3685     0.3685    -0.0000    -0.0000    -0.0000 </r>
      <r>     1.4951     0.3719     0.3719     0.3719    -0.0000    -0.0000    -0.0000 </r>
      <r>     1.5021     0.3753     0.3753     0.3753    -0.0000    -0.0000    -0.0000 </r>
      <r>     1.5092     0.3787     0.3787     0.3787    -0.0000    -0.0000    -0.0000 </r>
      <r>     1.5162     0.3822     0.3822     0.3822    -0.0000    -0.0000    -0.0000 </r>
      <r>     1.5232     0.3857     0.3857     0.3857    -0.0000    -0.0000    -0.0000 </r>
      <r>     1.5302     0.3892     0.3892     0.3892    -0.0000    -0.0000    -0.0000 </r>
      <r>     1.5372     0.3928     0.3928     0.3928    -0.0000    -0.0000    -0.0000 </r>
      <r>     1.5443     0.3964     0.3964     0.3964    -0.0000    -0.0000    -0.0000 </r>
      <r>     1.5513     0.4000     0.4000     0.4000    -0.0000    -0.0000    -0.0000 </r>
      <r>     1.5583     0.4037     0.4037     0.4037    -0.0000    -0.0000    -0.0000 </r>
      <r>     1.5653     0.4075     0.4075     0.4075    -0.0000    -0.0000    -0.0000 </r>
      <r>     1.5723     0.4113     0.4113     0.4113    -0.0000    -0.0000    -0.0000 </r>
      <r>     1.5794     0.4151     0.4151     0.4151    -0.0000    -0.0000    -0.0000 </r>
      <r>     1.5864     0.4189     0.4189     0.4189    -0.0000    -0.0000    -0.0000 </r>
      <r>     1.5934     0.4228     0.4228     0.4228    -0.0000    -0.0000    -0.0000 </r>
      <r>     1.6004     0.4268     0.4268     0.4268    -0.0000    -0.0000    -0.0000 </r>
      <r>     1.6074     0.4308     0.4308     0.4308    -0.0000    -0.0000    -0.0000 </r>
      <r>     1.6145     0.4348     0.4348     0.4348    -0.0000    -0.0000    -0.0000 </r>
      <r>     1.6215     0.4389     0.4389     0.4389    -0.0000    -0.0000    -0.0000 </r>
      <r>     1.6285     0.4431     0.4431     0.4431    -0.0000    -0.0000    -0.0000 </r>
      <r>     1.6355     0.4473     0.4473     0.4473    -0.0000    -0.0000    -0.0000 </r>
      <r>     1.6425     0.4515     0.4515     0.4515    -0.0000    -0.0000    -0.0000 </r>
      <r>     1.6496     0.4558     0.4558     0.4558    -0.0000    -0.0000    -0.0000 </r>
      <r>     1.6566     0.4602     0.4602     0.4602    -0.0000    -0.0000    -0.0000 </r>
      <r>     1.6636     0.4646     0.4646     0.4646    -0.0000    -0.0000    -0.0000 </r>
      <r>     1.6706     0.4690     0.4690     0.4690    -0.0000    -0.0000    -0.0000 </r>
      <r>     1.6776     0.4735     0.4735     0.4735    -0.0000    -0.0000    -0.0000 </r>
      <r>     1.6846     0.4781     0.4781     0.4781    -0.0000    -0.0000    -0.0000 </r>
      <r>     1.6917     0.4827     0.4827     0.4827    -0.0000    -0.0000    -0.0000 </r>
      <r>     1.6987     0.4874     0.4874     0.4874    -0.0000    -0.0000    -0.0000 </r>
      <r>     1.7057     0.4921     0.4921     0.4921    -0.0000    -0.0000    -0.0000 </r>
      <r>     1.7127     0.4969     0.4969     0.4969    -0.0000    -0.0000    -0.0000 </r>
      <r>     1.7197     0.5018     0.5018     0.5018    -0.0000    -0.0000    -0.0000 </r>
      <r>     1.7268     0.5067     0.5067     0.5067    -0.0000    -0.0000    -0.0000 </r>
      <r>     1.7338     0.5117     0.5117     0.5117    -0.0000    -0.0000    -0.0000 </r>
      <r>     1.7408     0.5168     0.5168     0.5168    -0.0000    -0.0000    -0.0000 </r>
      <r>     1.7478     0.5219     0.5219     0.5219    -0.0000    -0.0000    -0.0000 </r>
      <r>     1.7548     0.5271     0.5271     0.5271    -0.0000    -0.0000    -0.0000 </r>
      <r>     1.7619     0.5324     0.5324     0.5324    -0.0000    -0.0000    -0.0000 </r>
      <r>     1.7689     0.5378     0.5378     0.5378    -0.0000    -0.0000    -0.0000 </r>
      <r>     1.7759     0.5432     0.5432     0.5432    -0.0000    -0.0000    -0.0000 </r>
      <r>     1.7829     0.5487     0.5487     0.5487    -0.0000    -0.0000    -0.0000 </r>
      <r>     1.7899     0.5542     0.5542     0.5542    -0.0000    -0.0000    -0.0000 </r>
      <r>     1.7970     0.5599     0.5599     0.5599    -0.0000    -0.0000    -0.0000 </r>
      <r>     1.8040     0.5656     0.5656     0.5656    -0.0000    -0.0000    -0.0000 </r>
      <r>     1.8110     0.5714     0.5714     0.5714    -0.0000    -0.0000    -0.0000 </r>
      <r>     1.8180     0.5773     0.5773     0.5773    -0.0000    -0.0000    -0.0000 </r>
      <r>     1.8250     0.5833     0.5833     0.5833    -0.0000    -0.0000    -0.0000 </r>
      <r>     1.8321     0.5894     0.5894     0.5894    -0.0000    -0.0000    -0.0000 </r>
      <r>     1.8391     0.5955     0.5955     0.5955    -0.0000    -0.0000    -0.0000 </r>
      <r>     1.8461     0.6018     0.6018     0.6018    -0.0000    -0.0000    -0.0000 </r>
      <r>     1.8531     0.6081     0.6081     0.6081    -0.0000    -0.0000    -0.0000 </r>
      <r>     1.8601     0.6146     0.6146     0.6146    -0.0000    -0.0000    -0.0000 </r>
      <r>     1.8672     0.6211     0.6211     0.6211    -0.0000    -0.0000    -0.0000 </r>
      <r>     1.8742     0.6278     0.6278     0.6278    -0.0000    -0.0000    -0.0000 </r>
      <r>     1.8812     0.6345     0.6345     0.6345    -0.0000    -0.0000    -0.0000 </r>
      <r>     1.8882     0.6414     0.6414     0.6414    -0.0000    -0.0000    -0.0000 </r>
      <r>     1.8952     0.6483     0.6483     0.6483    -0.0000    -0.0000    -0.0000 </r>
      <r>     1.9022     0.6554     0.6554     0.6554    -0.0000    -0.0000    -0.0000 </r>
      <r>     1.9093     0.6626     0.6626     0.6626    -0.0000    -0.0000    -0.0000 </r>
      <r>     1.9163     0.6699     0.6699     0.6699    -0.0000    -0.0000    -0.0000 </r>
      <r>     1.9233     0.6773     0.6773     0.6773    -0.0000    -0.0000    -0.0000 </r>
      <r>     1.9303     0.6849     0.6849     0.6849    -0.0000    -0.0000    -0.0000 </r>
      <r>     1.9373     0.6926     0.6926     0.6926    -0.0000    -0.0000    -0.0000 </r>
      <r>     1.9444     0.7004     0.7004     0.7004    -0.0000    -0.0000    -0.0000 </r>
      <r>     1.9514     0.7083     0.7083     0.7083    -0.0000    -0.0000    -0.0000 </r>
      <r>     1.9584     0.7164     0.7164     0.7164    -0.0000    -0.0000    -0.0000 </r>
      <r>     1.9654     0.7246     0.7246     0.7246    -0.0000    -0.0000    -0.0000 </r>
      <r>     1.9724     0.7330     0.7330     0.7330    -0.0000    -0.0000    -0.0000 </r>
      <r>     1.9795     0.7415     0.7415     0.7415    -0.0000    -0.0000    -0.0000 </r>
      <r>     1.9865     0.7501     0.7501     0.7501    -0.0000    -0.0000    -0.0000 </r>
      <r>     1.9935     0.7590     0.7590     0.7590    -0.0000    -0.0000    -0.0000 </r>
      <r>     2.0005     0.7679     0.7679     0.7679    -0.0000    -0.0000    -0.0000 </r>
      <r>     2.0075     0.7771     0.7771     0.7771    -0.0000    -0.0000    -0.0000 </r>
      <r>     2.0146     0.7864     0.7864     0.7864    -0.0000    -0.0000    -0.0000 </r>
      <r>     2.0216     0.7959     0.7959     0.7959    -0.0000    -0.0000    -0.0000 </r>
      <r>     2.0286     0.8055     0.8055     0.8055    -0.0000    -0.0000    -0.0000 </r>
      <r>     2.0356     0.8154     0.8154     0.8154    -0.0000    -0.0000    -0.0000 </r>
      <r>     2.0426     0.8254     0.8254     0.8254    -0.0000    -0.0000    -0.0000 </r>
      <r>     2.0497     0.8357     0.8357     0.8357    -0.0000    -0.0000    -0.0000 </r>
      <r>     2.0567     0.8461     0.8461     0.8461    -0.0000    -0.0000    -0.0000 </r>
      <r>     2.0637     0.8568     0.8568     0.8568    -0.0000    -0.0000    -0.0000 </r>
      <r>     2.0707     0.8676     0.8676     0.8676    -0.0000    -0.0000    -0.0000 </r>
      <r>     2.0777     0.8787     0.8787     0.8787    -0.0000    -0.0000    -0.0000 </r>
      <r>     2.0848     0.8901     0.8901     0.8901    -0.0000    -0.0000    -0.0000 </r>
      <r>     2.0918     0.9016     0.9016     0.9016    -0.0000    -0.0000    -0.0000 </r>
      <r>     2.0988     0.9134     0.9134     0.9134    -0.0000    -0.0000    -0.0000 </r>
      <r>     2.1058     0.9255     0.9255     0.9255    -0.0000    -0.0000    -0.0000 </r>
      <r>     2.1128     0.9378     0.9378     0.9378    -0.0000    -0.0000    -0.0000 </r>
      <r>     2.1198     0.9504     0.9504     0.9504    -0.0000    -0.0000    -0.0000 </r>
      <r>     2.1269     0.9633     0.9633     0.9633    -0.0000    -0.0000    -0.0000 </r>
      <r>     2.1339     0.9764     0.9764     0.9764    -0.0000    -0.0000    -0.0000 </r>
      <r>     2.1409     0.9899     0.9899     0.9899    -0.0000    -0.0000    -0.0000 </r>
      <r>     2.1479     1.0036     1.0036     1.0036    -0.0000    -0.0000    -0.0000 </r>
      <r>     2.1549     1.0177     1.0177     1.0177    -0.0000    -0.0000    -0.0000 </r>
      <r>     2.1620     1.0322     1.0322     1.0322    -0.0000    -0.0000    -0.0000 </r>
      <r>     2.1690     1.0469     1.0469     1.0469    -0.0000    -0.0000    -0.0000 </r>
      <r>     2.1760     1.0621     1.0621     1.0621    -0.0000    -0.0000    -0.0000 </r>
      <r>     2.1830     1.0776     1.0776     1.0776    -0.0000    -0.0000    -0.0000 </r>
      <r>     2.1900     1.0935     1.0935     1.0935    -0.0000    -0.0000    -0.0000 </r>
      <r>     2.1971     1.1097     1.1097     1.1097    -0.0000    -0.0000    -0.0000 </r>
      <r>     2.2041     1.1265     1.1265     1.1265    -0.0000    -0.0000    -0.0000 </r>
      <r>     2.2111     1.1436     1.1436     1.1436    -0.0000    -0.0000    -0.0000 </r>
      <r>     2.2181     1.1612     1.1612     1.1612    -0.0000    -0.0000    -0.0000 </r>
      <r>     2.2251     1.1793     1.1793     1.1793    -0.0000    -0.0000    -0.0000 </r>
      <r>     2.2322     1.1979     1.1979     1.1979    -0.0000    -0.0000    -0.0000 </r>
      <r>     2.2392     1.2169     1.2169     1.2169    -0.0000    -0.0000    -0.0000 </r>
      <r>     2.2462     1.2366     1.2366     1.2366    -0.0000    -0.0000    -0.0000 </r>
      <r>     2.2532     1.2568     1.2568     1.2568    -0.0000    -0.0000    -0.0000 </r>
      <r>     2.2602     1.2775     1.2775     1.2775    -0.0000    -0.0000    -0.0000 </r>
      <r>     2.2673     1.2989     1.2989     1.2989    -0.0000    -0.0000    -0.0000 </r>
      <r>     2.2743     1.3209     1.3209     1.3209    -0.0000    -0.0000    -0.0000 </r>
      <r>     2.2813     1.3436     1.3436     1.3436    -0.0000    -0.0000    -0.0000 </r>
      <r>     2.2883     1.3671     1.3671     1.3671    -0.0000    -0.0000    -0.0000 </r>
      <r>     2.2953     1.3912     1.3912     1.3912    -0.0000    -0.0000    -0.0000 </r>
      <r>     2.3024     1.4161     1.4161     1.4161    -0.0000    -0.0000    -0.0000 </r>
      <r>     2.3094     1.4419     1.4419     1.4419    -0.0000    -0.0000    -0.0000 </r>
      <r>     2.3164     1.4685     1.4685     1.4685    -0.0000    -0.0000    -0.0000 </r>
      <r>     2.3234     1.4960     1.4960     1.4960    -0.0000    -0.0000    -0.0000 </r>
      <r>     2.3304     1.5245     1.5245     1.5245    -0.0000    -0.0000    -0.0000 </r>
      <r>     2.3374     1.5540     1.5540     1.5540    -0.0000    -0.0000    -0.0000 </r>
      <r>     2.3445     1.5845     1.5845     1.5845    -0.0000    -0.0000    -0.0000 </r>
      <r>     2.3515     1.6162     1.6162     1.6162    -0.0000    -0.0000    -0.0000 </r>
      <r>     2.3585     1.6491     1.6491     1.6491    -0.0000    -0.0000    -0.0000 </r>
      <r>     2.3655     1.6832     1.6832     1.6832    -0.0000    -0.0000    -0.0000 </r>
      <r>     2.3725     1.7187     1.7187     1.7187    -0.0000    -0.0000    -0.0000 </r>
      <r>     2.3796     1.7556     1.7556     1.7556    -0.0000    -0.0000    -0.0000 </r>
      <r>     2.3866     1.7940     1.7940     1.7940    -0.0000    -0.0000    -0.0000 </r>
      <r>     2.3936     1.8340     1.8340     1.8340    -0.0000    -0.0000    -0.0000 </r>
      <r>     2.4006     1.8758     1.8758     1.8758    -0.0000    -0.0000    -0.0000 </r>
      <r>     2.4076     1.9193     1.9193     1.9193    -0.0000    -0.0000    -0.0000 </r>
      <r>     2.4147     1.9649     1.9649     1.9649    -0.0000    -0.0000    -0.0000 </r>
      <r>     2.4217     2.0125     2.0125     2.0125    -0.0000    -0.0000    -0.0000 </r>
      <r>     2.4287     2.0624     2.0624     2.0624    -0.0000    -0.0000    -0.0000 </r>
      <r>     2.4357     2.1147     2.1147     2.1147    -0.0000    -0.0000    -0.0000 </r>
      <r>     2.4427     2.1695     2.1695     2.1695    -0.0000    -0.0000    -0.0000 </r>
      <r>     2.4498     2.2272     2.2272     2.2272    -0.0000    -0.0000    -0.0000 </r>
      <r>     2.4568     2.2878     2.2878     2.2878    -0.0000    -0.0000    -0.0000 </r>
      <r>     2.4638     2.3516     2.3516     2.3516    -0.0000    -0.0000    -0.0000 </r>
      <r>     2.4708     2.4189     2.4189     2.4189    -0.0000    -0.0000    -0.0000 </r>
      <r>     2.4778     2.4899     2.4899     2.4899    -0.0000    -0.0000    -0.0000 </r>
      <r>     2.4849     2.5649     2.5649     2.5649    -0.0000    -0.0000    -0.0000 </r>
      <r>     2.4919     2.6443     2.6443     2.6443    -0.0000    -0.0000    -0.0000 </r>
      <r>     2.4989     2.7283     2.7283     2.7283    -0.0000    -0.0000    -0.0000 </r>
      <r>     2.5059     2.8174     2.8174     2.8174    -0.0000    -0.0000    -0.0000 </r>
      <r>     2.5129     2.9118     2.9118     2.9118    -0.0000    -0.0000    -0.0000 </r>
      <r>     2.5200     3.0121     3.0121     3.0121    -0.0000    -0.0000    -0.0000 </r>
      <r>     2.5270     3.1185     3.1185     3.1185    -0.0000    -0.0000    -0.0000 </r>
      <r>     2.5340     3.2316     3.2316     3.2316    -0.0000    -0.0000    -0.0000 </r>
      <r>     2.5410     3.3517     3.3517     3.3517    -0.0000    -0.0000    -0.0000 </r>
      <r>     2.5480     3.4793     3.4793     3.4793    -0.0000    -0.0000    -0.0000 </r>
      <r>     2.5550     3.6148     3.6148     3.6148    -0.0000    -0.0000    -0.0000 </r>
      <r>     2.5621     3.7584     3.7584     3.7584    -0.0000    -0.0000    -0.0000 </r>
      <r>     2.5691     3.9105     3.9105     3.9105    -0.0000    -0.0000    -0.0000 </r>
      <r>     2.5761     4.0714     4.0714     4.0714    -0.0000    -0.0000    -0.0000 </r>
      <r>     2.5831     4.2412     4.2412     4.2412    -0.0000    -0.0000    -0.0000 </r>
      <r>     2.5901     4.4199     4.4199     4.4199    -0.0000    -0.0000    -0.0000 </r>
      <r>     2.5972     4.6076     4.6076     4.6076    -0.0000    -0.0000    -0.0000 </r>
      <r>     2.6042     4.8041     4.8041     4.8041    -0.0000    -0.0000    -0.0000 </r>
      <r>     2.6112     5.0092     5.0092     5.0092    -0.0000    -0.0000    -0.0000 </r>
      <r>     2.6182     5.2223     5.2223     5.2223    -0.0000    -0.0000    -0.0000 </r>
      <r>     2.6252     5.4429     5.4429     5.4429    -0.0000    -0.0000    -0.0000 </r>
      <r>     2.6323     5.6703     5.6703     5.6703    -0.0000    -0.0000    -0.0000 </r>
      <r>     2.6393     5.9036     5.9036     5.9036    -0.0000    -0.0000    -0.0000 </r>
      <r>     2.6463     6.1418     6.1418     6.1418    -0.0000    -0.0000    -0.0000 </r>
      <r>     2.6533     6.3836     6.3836     6.3836    -0.0000    -0.0000    -0.0000 </r>
      <r>     2.6603     6.6278     6.6278     6.6278    -0.0000    -0.0000    -0.0000 </r>
      <r>     2.6674     6.8729     6.8729     6.8729    -0.0000    -0.0000    -0.0000 </r>
      <r>     2.6744     7.1173     7.1173     7.1173    -0.0000    -0.0000    -0.0000 </r>
      <r>     2.6814     7.3595     7.3595     7.3595    -0.0000    -0.0000    -0.0000 </r>
      <r>     2.6884     7.5980     7.5980     7.5980    -0.0000    -0.0000    -0.0000 </r>
      <r>     2.6954     7.8314     7.8314     7.8314    -0.0000    -0.0000    -0.0000 </r>
      <r>     2.7025     8.0582     8.0582     8.0582    -0.0000    -0.0000    -0.0000 </r>
      <r>     2.7095     8.2775     8.2775     8.2775    -0.0000    -0.0000    -0.0000 </r>
      <r>     2.7165     8.4885     8.4885     8.4885    -0.0000    -0.0000    -0.0000 </r>
      <r>     2.7235     8.6908     8.6908     8.6908    -0.0000    -0.0000    -0.0000 </r>
      <r>     2.7305     8.8845     8.8845     8.8845    -0.0000    -0.0000    -0.0000 </r>
      <r>     2.7376     9.0699     9.0699     9.0699    -0.0000    -0.0000    -0.0000 </r>
      <r>     2.7446     9.2477     9.2477     9.2477    -0.0000    -0.0000    -0.0000 </r>
      <r>     2.7516     9.4191     9.4191     9.4191    -0.0000    -0.0000    -0.0000 </r>
      <r>     2.7586     9.5854     9.5854     9.5854    -0.0000    -0.0000    -0.0000 </r>
      <r>     2.7656     9.7479     9.7479     9.7479    -0.0000    -0.0000    -0.0000 </r>
      <r>     2.7726     9.9081     9.9081     9.9081    -0.0000    -0.0000    -0.0000 </r>
      <r>     2.7797    10.0675    10.0675    10.0675    -0.0000    -0.0000    -0.0000 </r>
      <r>     2.7867    10.2274    10.2274    10.2274    -0.0000    -0.0000    -0.0000 </r>
      <r>     2.7937    10.3889    10.3889    10.3889    -0.0000    -0.0000    -0.0000 </r>
      <r>     2.8007    10.5529    10.5529    10.5529    -0.0000    -0.0000    -0.0000 </r>
      <r>     2.8077    10.7203    10.7203    10.7203    -0.0000    -0.0000    -0.0000 </r>
      <r>     2.8148    10.8914    10.8914    10.8914    -0.0000    -0.0000    -0.0000 </r>
[...]
        <r>  0.0079  0.1193  0.0678  0.0091  0.0000  0.0000  0.0000  0.0000  0.0000 </r>
       </set>
       <set comment="band 5">
        <r>  0.0273  0.0598  0.0239  0.0247  0.0000  0.0000  0.0000  0.0000  0.0000 </r>
        <r>  0.0273  0.0598  0.0239  0.0247  0.0000  0.0000  0.0000  0.0000  0.0000 </r>
       </set>
       <set comment="band 6">
        <r>  0.0985  0.0369  0.0291  0.0262  0.0000  0.0000  0.0000  0.0000  0.0000 </r>
        <r>  0.0985  0.0369  0.0291  0.0262  0.0000  0.0000  0.0000  0.0000  0.0000 </r>
       </set>
       <set comment="band 7">
        <r>  0.0000  0.0157  0.0340  0.0208  0.0000  0.0000  0.0000  0.0000  0.0000 </r>
        <r>  0.0000  0.0157  0.0340  0.0208  0.0000  0.0000  0.0000  0.0000  0.0000 </r>
       </set>
       <set comment="band 8">
        <r>  0.0068  0.0666  0.0716  0.0139  0.0000  0.0000  0.0000  0.0000  0.0000 </r>
        <r>  0.0068  0.0666  0.0716  0.0139  0.0000  0.0000  0.0000  0.0000  0.0000 </r>
       </set>
       <set comment="band 9">
        <r>  0.0452  0.0037  0.0058  0.0442  0.0000  0.0000  0.0000  0.0000  0.0000 </r>
        <r>  0.0452  0.0037  0.0058  0.0442  0.0000  0.0000  0.0000  0.0000  0.0000 </r>
       </set>
       <set comment="band 10">
        <r>  0.0517  0.0077  0.0253  0.0601  0.0000  0.0000  0.0000  0.0000  0.0000 </r>
        <r>  0.0518  0.0077  0.0253  0.0601  0.0000  0.0000  0.0000  0.0000  0.0000 </r>
       </set>
       <set comment="band 11">
        <r>  0.0117  0.0145  0.0240  0.0825  0.0000  0.0000  0.0000  0.0000  0.0000 </r>
        <r>  0.0118  0.0146  0.0240  0.0824  0.0000  0.0000  0.0000  0.0000  0.0000 </r>
       </set>
      </set>
      <set comment="kpoint 23">
       <set comment="band 1">
        <r>  0.2086  0.0016  0.0015  0.0169  0.0000  0.0000  0.0000  0.0000  0.0000 </r>
        <r>  0.2086  0.0016  0.0015  0.0169  0.0000  0.0000  0.0000  0.0000  0.0000 </r>
       </set>
       <set comment="band 2">
        <r>  0.1462  0.0112  0.0037  0.0668  0.0000  0.0000  0.0000  0.0000  0.0000 </r>
        <r>  0.1462  0.0112  0.0037  0.0668  0.0000  0.0000  0.0000  0.0000  0.0000 </r>
       </set>
       <set comment="band 3">
        <r>  0.0274  0.0544  0.0669  0.0323  0.0000  0.0000  0.0000  0.0000  0.0000 </r>
        <r>  0.0274  0.0545  0.0669  0.0323  0.0000  0.0000  0.0000  0.0000  0.0000 </r>
       </set>
       <set comment="band 4">
        <r>  0.0038  0.0851  0.0953  0.0109  0.0000  0.0000  0.0000  0.0000  0.0000 </r>
        <r>  0.0038  0.0851  0.0953  0.0109  0.0000  0.0000  0.0000  0.0000  0.0000 </r>
       </set>
       <set comment="band 5">
        <r>  0.0439  0.0381  0.0351  0.0149  0.0000  0.0000  0.0000  0.0000  0.0000 </r>
        <r>  0.0439  0.0381  0.0351  0.0149  0.0000  0.0000  0.0000  0.0000  0.0000 </r>
       </set>
       <set comment="band 6">
        <r>  0.0407  0.0499  0.0385  0.0028  0.0000  0.0000  0.0000  0.0000  0.0000 </r>
        <r>  0.0407  0.0499  0.0385  0.0028  0.0000  0.0000  0.0000  0.0000  0.0000 </r>
       </set>
       <set comment="band 7">
        <r>  0.0358  0.0480  0.0020  0.0384  0.0000  0.0000  0.0000  0.0000  0.0000 </r>
        <r>  0.0358  0.0480  0.0020  0.0384  0.0000  0.0000  0.0000  0.0000  0.0000 </r>
       </set>
       <set comment="band 8">
        <r>  0.0135  0.0546  0.0661  0.0005  0.0000  0.0000  0.0000  0.0000  0.0000 </r>
        <r>  0.0135  0.0546  0.0661  0.0005  0.0000  0.0000  0.0000  0.0000  0.0000 </r>
       </set>
       <set comment="band 9">
        <r>  0.0232  0.0011  0.0162  0.0609  0.0000  0.0000  0.0000  0.0000  0.0000 </r>
        <r>  0.0232  0.0011  0.0162  0.0609  0.0000  0.0000  0.0000  0.0000  0.0000 </r>
       </set>
       <set comment="band 10">
        <r>  0.0043  0.0115  0.0310  0.0805  0.0000  0.0000  0.0000  0.0000  0.0000 </r>
        <r>  0.0043  0.0115  0.0310  0.0805  0.0000  0.0000  0.0000  0.0000  0.0000 </r>
       </set>
       <set comment="band 11">
        <r>  0.0309  0.0057  0.0057  0.0026  0.0000  0.0000  0.0000  0.0000  0.0000 </r>
        <r>  0.0314  0.0057  0.0056  0.0025  0.0000  0.0000  0.0000  0.0000  0.0000 </r>
       </set>
      </set>
      <set comment="kpoint 24">
       <set comment="band 1">
        <r>  0.2183  0.0060  0.0020  0.0129  0.0000  0.0000  0.0000  0.0000  0.0000 </r>
        <r>  0.2183  0.0060  0.0020  0.0129  0.0000  0.0000  0.0000  0.0000  0.0000 </r>
       </set>
       <set comment="band 2">
        <r>  0.1350  0.0087  0.0011  0.0687  0.0000  0.0000  0.0000  0.0000  0.0000 </r>
        <r>  0.1350  0.0087  0.0011  0.0687  0.0000  0.0000  0.0000  0.0000  0.0000 </r>
       </set>
       <set comment="band 3">
        <r>  0.0369  0.0836  0.0338  0.0307  0.0000  0.0000  0.0000  0.0000  0.0000 </r>
        <r>  0.0369  0.0836  0.0338  0.0307  0.0000  0.0000  0.0000  0.0000  0.0000 </r>
       </set>
       <set comment="band 4">
        <r>  0.0008  0.0492  0.1317  0.0093  0.0000  0.0000  0.0000  0.0000  0.0000 </r>
        <r>  0.0008  0.0492  0.1317  0.0093  0.0000  0.0000  0.0000  0.0000  0.0000 </r>
       </set>
       <set comment="band 5">
        <r>  0.0807  0.0264  0.0386  0.0162  0.0000  0.0000  0.0000  0.0000  0.0000 </r>
        <r>  0.0807  0.0264  0.0386  0.0162  0.0000  0.0000  0.0000  0.0000  0.0000 </r>
       </set>
       <set comment="band 6">
        <r>  0.0078  0.0385  0.0400  0.0042  0.0000  0.0000  0.0000  0.0000  0.0000 </r>
        <r>  0.0078  0.0385  0.0400  0.0042  0.0000  0.0000  0.0000  0.0000  0.0000 </r>
       </set>
       <set comment="band 7">
        <r>  0.0231  0.0594  0.0572  0.0055  0.0000  0.0000  0.0000  0.0000  0.0000 </r>
        <r>  0.0231  0.0595  0.0572  0.0055  0.0000  0.0000  0.0000  0.0000  0.0000 </r>
       </set>
       <set comment="band 8">
        <r>  0.0137  0.0198  0.0115  0.0434  0.0000  0.0000  0.0000  0.0000  0.0000 </r>
        <r>  0.0137  0.0199  0.0115  0.0435  0.0000  0.0000  0.0000  0.0000  0.0000 </r>
       </set>
       <set comment="band 9">
        <r>  0.0200  0.0531  0.0182  0.0621  0.0000  0.0000  0.0000  0.0000  0.0000 </r>
        <r>  0.0200  0.0531  0.0182  0.0621  0.0000  0.0000  0.0000  0.0000  0.0000 </r>
       </set>
       <set comment="band 10">
        <r>  0.0000  0.0035  0.0010  0.0430  0.0000  0.0000  0.0000  0.0000  0.0000 </r>
        <r>  0.0000  0.0035  0.0010  0.0430  0.0000  0.0000  0.0000  0.0000  0.0000 </r>
       </set>
       <set comment="band 11">
        <r>  0.0155  0.0047  0.0579  0.0572  0.0000  0.0000  0.0000  0.0000  0.0000 </r>
        <r>  0.0143  0.0044  0.0579  0.0594  0.0000  0.0000  0.0000  0.0000  0.0000 </r>
       </set>
      </set>
      <set comment="kpoint 25">
       <set comment="band 1">
        <r>  0.2035  0.0051  0.0013  0.0193  0.0000  0.0000  0.0000  0.0000  0.0000 </r>
        <r>  0.2035  0.0051  0.0013  0.0193  0.0000  0.0000  0.0000  0.0000  0.0000 </r>
       </set>
       <set comment="band 2">
        <r>  0.1823  0.0143  0.0081  0.0433  0.0000  0.0000  0.0000  0.0000  0.0000 </r>
        <r>  0.1823  0.0143  0.0081  0.0433  0.0000  0.0000  0.0000  0.0000  0.0000 </r>
       </set>
       <set comment="band 3">
        <r>  0.0083  0.0344  0.0752  0.0562  0.0000  0.0000  0.0000  0.0000  0.0000 </r>
        <r>  0.0083  0.0344  0.0752  0.0562  0.0000  0.0000  0.0000  0.0000  0.0000 </r>
       </set>
       <set comment="band 4">
        <r>  0.0007  0.0948  0.0759  0.0097  0.0000  0.0000  0.0000  0.0000  0.0000 </r>
        <r>  0.0007  0.0948  0.0759  0.0097  0.0000  0.0000  0.0000  0.0000  0.0000 </r>
       </set>
       <set comment="band 5">
        <r>  0.0368  0.0484  0.0226  0.0129  0.0000  0.0000  0.0000  0.0000  0.0000 </r>
        <r>  0.0368  0.0484  0.0226  0.0129  0.0000  0.0000  0.0000  0.0000  0.0000 </r>
       </set>
       <set comment="band 6">
        <r>  0.0391  0.0033  0.0157  0.0344  0.0000  0.0000  0.0000  0.0000  0.0000 </r>
        <r>  0.0391  0.0033  0.0157  0.0344  0.0000  0.0000  0.0000  0.0000  0.0000 </r>
       </set>
       <set comment="band 7">
        <r>  0.0339  0.0620  0.0489  0.0073  0.0000  0.0000  0.0000  0.0000  0.0000 </r>
        <r>  0.0339  0.0620  0.0489  0.0073  0.0000  0.0000  0.0000  0.0000  0.0000 </r>
       </set>
       <set comment="band 8">
        <r>  0.0026  0.0670  0.0767  0.0169  0.0000  0.0000  0.0000  0.0000  0.0000 </r>
        <r>  0.0026  0.0670  0.0767  0.0169  0.0000  0.0000  0.0000  0.0000  0.0000 </r>
       </set>
       <set comment="band 9">
        <r>  0.0407  0.0119  0.0031  0.0573  0.0000  0.0000  0.0000  0.0000  0.0000 </r>
        <r>  0.0407  0.0119  0.0031  0.0573  0.0000  0.0000  0.0000  0.0000  0.0000 </r>
       </set>
       <set comment="band 10">
        <r>  0.0065  0.0066  0.0281  0.0768  0.0000  0.0000  0.0000  0.0000  0.0000 </r>
        <r>  0.0065  0.0066  0.0281  0.0768  0.0000  0.0000  0.0000  0.0000  0.0000 </r>
       </set>
       <set comment="band 11">
        <r>  0.0178  0.0196  0.0569  0.0863  0.0000  0.0000  0.0000  0.0000  0.0000 </r>
        <r>  0.0177  0.0159  0.0533  0.0868  0.0000  0.0000  0.0000  0.0000  0.0000 </r>
       </set>
      </set>
      <set comment="kpoint 26">
       <set comment="band 1">
        <r>  0.2095  0.0094  0.0020  0.0192  0.0000  0.0000  0.0000  0.0000  0.0000 </r>
        <r>  0.2095  0.0094  0.0020  0.0192  0.0000  0.0000  0.0000  0.0000  0.0000 </r>
       </set>
       <set comment="band 2">
        <r>  0.1844  0.0117  0.0028  0.0416  0.0000  0.0000  0.0000  0.0000  0.0000 </r>
        <r>  0.1844  0.0117  0.0028  0.0416  0.0000  0.0000  0.0000  0.0000  0.0000 </r>
       </set>
       <set comment="band 3">
        <r>  0.0069  0.0901  0.0089  0.0551  0.0000  0.0000  0.0000  0.0000  0.0000 </r>
        <r>  0.0069  0.0901  0.0089  0.0551  0.0000  0.0000  0.0000  0.0000  0.0000 </r>
       </set>
       <set comment="band 4">
        <r>  0.0017  0.0217  0.1481  0.0061  0.0000  0.0000  0.0000  0.0000  0.0000 </r>
        <r>  0.0017  0.0217  0.1481  0.0061  0.0000  0.0000  0.0000  0.0000  0.0000 </r>
       </set>
       <set comment="band 5">
        <r>  0.0386  0.0182  0.0388  0.0149  0.0000  0.0000  0.0000  0.0000  0.0000 </r>
        <r>  0.0386  0.0182  0.0388  0.0149  0.0000  0.0000  0.0000  0.0000  0.0000 </r>
       </set>
       <set comment="band 6">
        <r>  0.0166  0.0498  0.0051  0.0300  0.0000  0.0000  0.0000  0.0000  0.0000 </r>
        <r>  0.0166  0.0498  0.0051  0.0300  0.0000  0.0000  0.0000  0.0000  0.0000 </r>
       </set>
       <set comment="band 7">
        <r>  0.0443  0.0549  0.0422  0.0116  0.0000  0.0000  0.0000  0.0000  0.0000 </r>
        <r>  0.0443  0.0549  0.0422  0.0116  0.0000  0.0000  0.0000  0.0000  0.0000 </r>
       </set>
       <set comment="band 8">
        <r>  0.0237  0.0160  0.0429  0.0635  0.0000  0.0000  0.0000  0.0000  0.0000 </r>
        <r>  0.0237  0.0160  0.0429  0.0635  0.0000  0.0000  0.0000  0.0000  0.0000 </r>
       </set>
       <set comment="band 9">
        <r>  0.0115  0.0609  0.0517  0.0069  0.0000  0.0000  0.0000  0.0000  0.0000 </r>
        <r>  0.0115  0.0609  0.0517  0.0069  0.0000  0.0000  0.0000  0.0000  0.0000 </r>
       </set>
       <set comment="band 10">
        <r>  0.0066  0.0115  0.0133  0.0776  0.0000  0.0000  0.0000  0.0000  0.0000 </r>
        <r>  0.0067  0.0115  0.0133  0.0776  0.0000  0.0000  0.0000  0.0000  0.0000 </r>
       </set>
       <set comment="band 11">
        <r>  0.0216  0.0074  0.0337  0.0671  0.0000  0.0000  0.0000  0.0000  0.0000 </r>
        <r>  0.0214  0.0072  0.0336  0.0675  0.0000  0.0000  0.0000  0.0000  0.0000 </r>
       </set>
      </set>
      <set comment="kpoint 27">
       <set comment="band 1">
        <r>  0.2104  0.0140  0.0022  0.0109  0.0000  0.0000  0.0000  0.0000  0.0000 </r>
        <r>  0.2104  0.0140  0.0022  0.0109  0.0000  0.0000  0.0000  0.0000  0.0000 </r>
       </set>
       <set comment="band 2">
        <r>  0.1799  0.0278  0.0023  0.0312  0.0000  0.0000  0.0000  0.0000  0.0000 </r>
        <r>  0.1799  0.0278  0.0023  0.0312  0.0000  0.0000  0.0000  0.0000  0.0000 </r>
       </set>
       <set comment="band 3">
        <r>  0.0060  0.0786  0.0009  0.0723  0.0000  0.0000  0.0000  0.0000  0.0000 </r>
        <r>  0.0060  0.0786  0.0009  0.0723  0.0000  0.0000  0.0000  0.0000  0.0000 </r>
       </set>
       <set comment="band 4">
        <r>  0.0034  0.0066  0.1600  0.0130  0.0000  0.0000  0.0000  0.0000  0.0000 </r>
        <r>  0.0034  0.0066  0.1600  0.0130  0.0000  0.0000  0.0000  0.0000  0.0000 </r>
       </set>
       <set comment="band 5">
        <r>  0.0388  0.0141  0.0396  0.0236  0.0000  0.0000  0.0000  0.0000  0.0000 </r>
        <r>  0.0388  0.0141  0.0396  0.0236  0.0000  0.0000  0.0000  0.0000  0.0000 </r>
       </set>
       <set comment="band 6">
        <r>  0.0181  0.0106  0.0776  0.0193  0.0000  0.0000  0.0000  0.0000  0.0000 </r>
        <r>  0.0181  0.0106  0.0776  0.0193  0.0000  0.0000  0.0000  0.0000  0.0000 </r>
       </set>
       <set comment="band 7">
        <r>  0.0437  0.0462  0.0009  0.0362  0.0000  0.0000  0.0000  0.0000  0.0000 </r>
        <r>  0.0437  0.0462  0.0009  0.0362  0.0000  0.0000  0.0000  0.0000  0.0000 </r>
       </set>
       <set comment="band 8">
        <r>  0.0187  0.0601  0.0045  0.0384  0.0000  0.0000  0.0000  0.0000  0.0000 </r>
        <r>  0.0186  0.0601  0.0045  0.0384  0.0000  0.0000  0.0000  0.0000  0.0000 </r>
       </set>
       <set comment="band 9">
        <r>  0.0124  0.0316  0.0622  0.0585  0.0000  0.0000  0.0000  0.0000  0.0000 </r>
        <r>  0.0124  0.0316  0.0622  0.0585  0.0000  0.0000  0.0000  0.0000  0.0000 </r>
       </set>
       <set comment="band 10">
        <r>  0.0284  0.0435  0.0113  0.0251  0.0000  0.0000  0.0000  0.0000  0.0000 </r>
        <r>  0.0284  0.0435  0.0113  0.0251  0.0000  0.0000  0.0000  0.0000  0.0000 </r>
       </set>
       <set comment="band 11">
        <r>  0.0157  0.0084  0.0036  0.0103  0.0000  0.0000  0.0000  0.0000  0.0000 </r>
        <r>  0.0162  0.0071  0.0056  0.0135  0.0000  0.0000  0.0000  0.0000  0.0000 </r>
       </set>
      </set>
      <set comment="kpoint 28">
       <set comment="band 1">
        <r>  0.1981  0.0150  0.0024  0.0252  0.0000  0.0000  0.0000  0.0000  0.0000 </r>
        <r>  0.1981  0.0150  0.0024  0.0252  0.0000  0.0000  0.0000  0.0000  0.0000 </r>
       </set>
       <set comment="band 2">
        <r>  0.1981  0.0134  0.0023  0.0269  0.0000  0.0000  0.0000  0.0000  0.0000 </r>
        <r>  0.1981  0.0134  0.0023  0.0269  0.0000  0.0000  0.0000  0.0000  0.0000 </r>
       </set>
       <set comment="band 3">
        <r>  0.0025  0.0347  0.0741  0.0617  0.0000  0.0000  0.0000  0.0000  0.0000 </r>
        <r>  0.0025  0.0347  0.0741  0.0617  0.0000  0.0000  0.0000  0.0000  0.0000 </r>
       </set>
       <set comment="band 4">
        <r>  0.0025  0.0790  0.0797  0.0117  0.0000  0.0000  0.0000  0.0000  0.0000 </r>
        <r>  0.0025  0.0790  0.0797  0.0117  0.0000  0.0000  0.0000  0.0000  0.0000 </r>
       </set>
       <set comment="band 5">
        <r>  0.0396  0.0222  0.0045  0.0396  0.0000  0.0000  0.0000  0.0000  0.0000 </r>
        <r>  0.0396  0.0222  0.0045  0.0396  0.0000  0.0000  0.0000  0.0000  0.0000 </r>
       </set>
       <set comment="band 6">
        <r>  0.0396  0.0220  0.0355  0.0088  0.0000  0.0000  0.0000  0.0000  0.0000 </r>
        <r>  0.0396  0.0220  0.0355  0.0088  0.0000  0.0000  0.0000  0.0000  0.0000 </r>
       </set>
       <set comment="band 7">
        <r>  0.0204  0.0723  0.0448  0.0090  0.0000  0.0000  0.0000  0.0000  0.0000 </r>
        <r>  0.0215  0.0722  0.0455  0.0083  0.0000  0.0000  0.0000  0.0000  0.0000 </r>
       </set>
       <set comment="band 8">
        <r>  0.0215  0.0117  0.0531  0.0611  0.0000  0.0000  0.0000  0.0000  0.0000 </r>
        <r>  0.0204  0.0118  0.0525  0.0618  0.0000  0.0000  0.0000  0.0000  0.0000 </r>
       </set>
       <set comment="band 9">
        <r>  0.0002  0.0698  0.0243  0.0604  0.0000  0.0000  0.0000  0.0000  0.0000 </r>
        <r>  0.0008  0.0491  0.0043  0.0388  0.0000  0.0000  0.0000  0.0000  0.0000 </r>
       </set>
       <set comment="band 10">
        <r>  0.0009  0.0126  0.0776  0.0022  0.0000  0.0000  0.0000  0.0000  0.0000 </r>
        <r>  0.0003  0.0333  0.0975  0.0242  0.0000  0.0000  0.0000  0.0000  0.0000 </r>
       </set>
       <set comment="band 11">
        <r>  0.0079  0.0533  0.0118  0.0921  0.0000  0.0000  0.0000  0.0000  0.0000 </r>
        <r>  0.0415  0.0105  0.0021  0.0177  0.0000  0.0000  0.0000  0.0000  0.0000 </r>
       </set>
      </set>
      <set comment="kpoint 29">
       <set comment="band 1">
        <r>  0.2041  0.0136  0.0102  0.0170  0.0000  0.0000  0.0000  0.0000  0.0000 </r>
        <r>  0.2043  0.0136  0.0102  0.0170  0.0000  0.0000  0.0000  0.0000  0.0000 </r>
       </set>
       <set comment="band 2">
        <r>  0.2043  0.0136  0.0102  0.0170  0.0000  0.0000  0.0000  0.0000  0.0000 </r>
        <r>  0.2041  0.0136  0.0102  0.0170  0.0000  0.0000  0.0000  0.0000  0.0000 </r>
       </set>
       <set comment="band 3">
        <r>  0.0000  0.0132  0.0615  0.0851  0.0000  0.0000  0.0000  0.0000  0.0000 </r>
        <r>  0.0000  0.0132  0.0615  0.0851  0.0000  0.0000  0.0000  0.0000  0.0000 </r>
       </set>
       <set comment="band 4">
        <r>  0.0000  0.0934  0.0529  0.0136  0.0000  0.0000  0.0000  0.0000  0.0000 </r>
        <r>  0.0000  0.0933  0.0529  0.0136  0.0000  0.0000  0.0000  0.0000  0.0000 </r>
       </set>
       <set comment="band 5">
        <r>  0.0000  0.0291  0.0415  0.0128  0.0000  0.0000  0.0000  0.0000  0.0000 </r>
        <r>  0.0000  0.0305  0.0437  0.0135  0.0000  0.0000  0.0000  0.0000  0.0000 </r>
       </set>
       <set comment="band 6">
        <r>  0.0000  0.0280  0.0440  0.0158  0.0000  0.0000  0.0000  0.0000  0.0000 </r>
        <r>  0.0000  0.0265  0.0418  0.0150  0.0000  0.0000  0.0000  0.0000  0.0000 </r>
       </set>
       <set comment="band 7">
        <r>  0.0595  0.0363  0.0272  0.0454  0.0000  0.0000  0.0000  0.0000  0.0000 </r>
        <r>  0.0636  0.0340  0.0255  0.0425  0.0000  0.0000  0.0000  0.0000  0.0000 </r>
       </set>
       <set comment="band 8">
        <r>  0.0636  0.0340  0.0255  0.0425  0.0000  0.0000  0.0000  0.0000  0.0000 </r>
        <r>  0.0595  0.0363  0.0272  0.0454  0.0000  0.0000  0.0000  0.0000  0.0000 </r>
       </set>
       <set comment="band 9">
        <r>  0.0000  0.0725  0.0173  0.0193  0.0000  0.0000  0.0000  0.0000  0.0000 </r>
        <r>  0.0000  0.0899  0.0215  0.0500  0.0000  0.0000  0.0000  0.0000  0.0000 </r>
       </set>
       <set comment="band 10">
        <r>  0.0000  0.0177  0.0697  0.0740  0.0000  0.0000  0.0000  0.0000  0.0000 </r>
        <r>  0.0000  0.0002  0.0655  0.0433  0.0000  0.0000  0.0000  0.0000  0.0000 </r>
       </set>
       <set comment="band 11">
        <r>  0.0312  0.0265  0.0199  0.0332  0.0000  0.0000  0.0000  0.0000  0.0000 </r>
        <r>  0.0195  0.0423  0.0317  0.0529  0.0000  0.0000  0.0000  0.0000  0.0000 </r>
       </set>
      </set>
     </set>
    </set>
   </array>
  </projected>
 </calculation>
 <structure name="finalpos" >
  <crystal>
   <varray name="basis" >
    <v>       3.34889800       0.00000000       1.93348700 </v>
    <v>       1.11629900       3.15737200       1.93348700 </v>
    <v>       0.00000000       0.00000000       3.86697500 </v>
   </varray>
   <i name="volume">     40.88829843 </i>
   <varray name="rec_basis" >
    <v>       0.29860569      -0.10557300       0.00000000 </v>
    <v>       0.00000000       0.31671909       0.00000000 </v>
    <v>      -0.14930281      -0.10557302       0.25860007 </v>
   </varray>
  </crystal>
  <varray name="positions" >
   <v>       0.25000000       0.25000000       0.25000000 </v>
   <v>       0.00000000       0.00000000       0.00000000 </v>
  </varray>
 </structure>
</modeling>
