 vasp.6.2.1 16May21 (build Oct 27 2021 18:14:32) complex                        
  
 executed on             LinuxIFC date 2021.10.29  09:25:16
 running on    4 total cores
 distrk:  each k-point on    4 cores,    1 groups
 distr:  one band on NCORE=   1 cores,    4 groups


--------------------------------------------------------------------------------------------------------


 INCAR:
   ALGO = Normal
   EDIFF = 1e-05
   EDIFFG = -0.02
   ENAUG = 1360
   ENCUT = 680
   IBRION = 8
   ISIF = 3
   ISMEAR = -5
   ISPIN = 2
   KSPACING = 0.5
   LAECHG = True
   LASPH = True
   LCHARG = True
   LELF = True
   LEPSILON = True
   LMIXTAU = True
   LORBIT = 11
   LPEAD = True
   LREAL = Auto
   LVTOT = True
   LWAVE = False
   MAGMOM = 2*0.6
   NELM = 200
   NSW = 1
   PREC = Accurate
   SIGMA = 0.05

 POTCAR:    PAW_PBE Si 05Jan2001                  
 WARNING: For LVTOT=.TRUE., VASP.5.x writes the TOTAL local potential to the
     file LOCPOT. If you want only the Hartree contributions, use LVHAR=.TRUE.
     instead. 

 POTCAR:    PAW_PBE Si 05Jan2001                  
   VRHFIN =Si: s2p2                                                                                 
   LEXCH  = PE                                                                                      
   EATOM  =   103.0669 eV,    7.5752 Ry                                                             
                                                                                                    
   TITEL  = PAW_PBE Si 05Jan2001                                                                    
   LULTRA =        F    use ultrasoft PP ?                                                          
   IUNSCR =        1    unscreen: 0-lin 1-nonlin 2-no                                               
   RPACOR =    1.500    partial core radius                                                         
   POMASS =   28.085; ZVAL   =    4.000    mass and valenz                                          
   RCORE  =    1.900    outmost cutoff radius                                                       
   RWIGS  =    2.480; RWIGS  =    1.312    wigner-seitz radius (au A)                               
   ENMAX  =  245.345; ENMIN  =  184.009 eV                                                          
   ICORE  =        2    local potential                                                             
   LCOR   =        T    correct aug charges                                                         
   LPAW   =        T    paw PP                                                                      
   EAUG   =  322.069                                                                                
   DEXC   =    0.000                                                                                
   RMAX   =    1.950    core radius for proj-oper                                                   
   RAUG   =    1.300    factor for augmentation sphere                                              
   RDEP   =    1.993    radius for radial grids                                                     
   RDEPT  =    1.837    core radius for aug-charge                                                  
                                                                                                    
   Atomic configuration                                                                             
    6 entries                                                                                       
     n  l   j            E        occ.                                                              
     1  0  0.50     -1785.8828   2.0000                                                             
     2  0  0.50      -139.4969   2.0000                                                             
     2  1  1.50       -95.5546   6.0000                                                             
     3  0  0.50       -10.8127   2.0000                                                             
     3  1  0.50        -4.0811   2.0000                                                             
     3  2  1.50        -4.0817   0.0000                                                             
   Description                                                                                      
     l       E           TYP  RCUT    TYP  RCUT                                                     
     0    -10.8127223     23  1.900                                                                 
     0     -7.6451159     23  1.900                                                                 
     1     -4.0811372     23  1.900                                                                 
     1      2.4879257     23  1.900                                                                 
     2     -4.0817478      7  1.900                                                                 
  local pseudopotential read in
  partial core-charges read in
  partial kinetic energy density read in
  atomic valenz-charges read in
  non local Contribution for L=           0  read in
    real space projection operators read in
  non local Contribution for L=           0  read in
    real space projection operators read in
  non local Contribution for L=           1  read in
    real space projection operators read in
  non local Contribution for L=           1  read in
    real space projection operators read in
    PAW grid and wavefunctions read in
 
   number of l-projection  operators is LMAX  =           4
   number of lm-projection operators is LMMAX =           8
 
 -----------------------------------------------------------------------------
|                                                                             |
|               ----> ADVICE to this user running VASP <----                  |
|                                                                             |
|     You have a (more or less) 'small supercell' and for smaller cells       |
|     it is recommended to use the reciprocal-space projection scheme!        |
|     The real-space optimization is not efficient for small cells and it     |
|     is also less accurate ...                                               |
|     Therefore, set LREAL=.FALSE. in the INCAR file.                         |
|                                                                             |
 -----------------------------------------------------------------------------

 Optimization of the real space projectors (new method)

 maximal supplied QI-value         = 19.84
 optimisation between [QCUT,QGAM] = [ 13.29, 26.59] = [ 49.49,197.96] Ry 
 Optimized for a Real-space Cutoff    1.12 Angstroem

   l    n(q)    QCUT    max X(q) W(low)/X(q) W(high)/X(q)  e(spline) 
   0      9    13.294   159.560    0.23E-03    0.88E-04    0.53E-07
   0      9    13.294   115.863    0.22E-03    0.87E-04    0.52E-07
   1      8    13.294    88.339    0.81E-04    0.17E-03    0.12E-06
   1      8    13.294    48.592    0.79E-04    0.17E-03    0.12E-06
  PAW_PBE Si 05Jan2001                  :
 energy of atom  1       EATOM= -103.0669
 kinetic energy error for atom=    0.0003 (will be added to EATOM!!)
 
 
 POSCAR: Si2
  positions in direct lattice
  No initial velocities read in
 exchange correlation table for  LEXCH =        8
   RHO(1)=    0.500       N(1)  =     2000
   RHO(2)=  100.500       N(2)  =     4000
 


--------------------------------------------------------------------------------------------------------


 ion  position               nearest neighbor table
   1  0.250  0.250  0.250-   2 2.37   2 2.37   2 2.37   2 2.37
   2  0.000  0.000  0.000-   1 2.37   1 2.37   1 2.37   1 2.37
 
  LATTYP: Found a face centered cubic cell.
 ALAT       =     5.4687280757
  
  Lattice vectors:
  
 A1 = (   3.3488980000,   0.0000000000,   1.9334870000)
 A2 = (   1.1162990000,   3.1573720000,   1.9334870000)
 A3 = (   0.0000000000,   0.0000000000,   3.8669750000)


Analysis of symmetry for initial positions (statically):
=====================================================================
 Subroutine PRICEL returns:
 Original cell was already a primitive cell.
 

 Routine SETGRP: Setting up the symmetry group for a 
 face centered cubic supercell.


 Subroutine GETGRP returns: Found 48 space group operations
 (whereof 24 operations were pure point group operations)
 out of a pool of 48 trial point group operations.


The static configuration has the point symmetry T_d .
 The point group associated with its full space group is O_h .


Analysis of symmetry for dynamics (positions and initial velocities):
=====================================================================
 Subroutine PRICEL returns:
 Original cell was already a primitive cell.
 

 Routine SETGRP: Setting up the symmetry group for a 
 face centered cubic supercell.


 Subroutine GETGRP returns: Found 48 space group operations
 (whereof 24 operations were pure point group operations)
 out of a pool of 48 trial point group operations.


The dynamic configuration has the point symmetry T_d .
 The point group associated with its full space group is O_h .


Analysis of structural, dynamic, and magnetic symmetry:
=====================================================================
 Subroutine PRICEL returns:
 Original cell was already a primitive cell.
 

 Routine SETGRP: Setting up the symmetry group for a 
 face centered cubic supercell.


 Subroutine GETGRP returns: Found 48 space group operations
 (whereof 24 operations were pure point group operations)
 out of a pool of 48 trial point group operations.


The overall configuration has the point symmetry T_d .
 The point group associated with its full space group is O_h .


 Subroutine INISYM returns: Found 48 space group operations
 (whereof 24 operations are pure point group operations),
 and found     1 'primitive' translations


----------------------------------------------------------------------------------------

                                     Primitive cell                                     

  volume of cell :      40.8883

  direct lattice vectors                    reciprocal lattice vectors
     3.348898000  0.000000000  1.933487000     0.298605691 -0.105573000  0.000000000
     1.116299000  3.157372000  1.933487000     0.000000000  0.316719094  0.000000000
     0.000000000  0.000000000  3.866975000    -0.149302807 -0.105573020  0.258600069

  length of vectors
     3.866974243  3.866974707  3.866975000     0.316719145  0.316719094  0.316719096

  position of ions in fractional coordinates (direct lattice)
     0.250000000  0.250000000  0.250000000
     0.000000000  0.000000000  0.000000000

  ion indices of the primitive-cell ions
   primitive index   ion index
                 1           1
                 2           2

----------------------------------------------------------------------------------------

 
 -----------------------------------------------------------------------------
|                                                                             |
|           W    W    AA    RRRRR   N    N  II  N    N   GGGG   !!!           |
|           W    W   A  A   R    R  NN   N  II  NN   N  G    G  !!!           |
|           W    W  A    A  R    R  N N  N  II  N N  N  G       !!!           |
|           W WW W  AAAAAA  RRRRR   N  N N  II  N  N N  G  GGG   !            |
|           WW  WW  A    A  R   R   N   NN  II  N   NN  G    G                |
|           W    W  A    A  R    R  N    N  II  N    N   GGGG   !!!           |
|                                                                             |
|     The requested file  could not be found or opened for reading            |
|     k-point information. Automatic k-point generation is used as a          |
|     fallback, which may lead to unwanted results.                           |
|                                                                             |
 -----------------------------------------------------------------------------

 

Automatic generation of k-mesh.
 Grid dimensions derived from KSPACING:
 generate k-points for:    4    4    4

 Generating k-lattice:

  Cartesian coordinates                     Fractional coordinates (reciprocal lattice)
     0.074651423 -0.026393250  0.000000000     0.250000000 -0.000000000  0.000000000
     0.000000000  0.079179774  0.000000000     0.000000000  0.250000000  0.000000000
    -0.037325702 -0.026393255  0.064650017     0.000000000  0.000000000  0.250000000

  Length of vectors
     0.079179786  0.079179774  0.079179774

  Shift w.r.t. Gamma in fractional coordinates (k-lattice)
     0.000000000  0.000000000  0.000000000

 TETIRR: Found      9 inequivalent tetrahedra from      384
 
 Subroutine IBZKPT returns following result:
 ===========================================
 
 Found      8 irreducible k-points:
 
 Following reciprocal coordinates:
            Coordinates               Weight
  0.000000  0.000000  0.000000      1.000000
  0.250000  0.000000  0.000000      8.000000
  0.500000  0.000000  0.000000      4.000000
  0.250000  0.250000  0.000000      6.000000
  0.500000  0.250000  0.000000     24.000000
 -0.250000  0.250000  0.000000     12.000000
  0.500000  0.500000  0.000000      3.000000
 -0.250000  0.500000  0.250000      6.000000
 
 Following cartesian coordinates:
            Coordinates               Weight
  0.000000  0.000000  0.000000      1.000000
  0.074651 -0.026393  0.000000      8.000000
  0.149303 -0.052786  0.000000      4.000000
  0.074651  0.052787  0.000000      6.000000
  0.149303  0.026393  0.000000     24.000000
 -0.074651  0.105573  0.000000     12.000000
  0.149303  0.105573  0.000000      3.000000
 -0.111977  0.158360  0.064650      6.000000
 
 
 Subroutine IBZKPT_HF returns following result:
 ==============================================
 
 Found     64 k-points in 1st BZ
 the following     64 k-points will be used (e.g. in the exchange kernel)
 Following reciprocal coordinates:   # in IRBZ
  0.000000  0.000000  0.000000    0.01562500   1 t-inv F
  0.250000  0.000000  0.000000    0.01562500   2 t-inv F
  0.500000  0.000000  0.000000    0.01562500   3 t-inv F
  0.250000  0.250000  0.000000    0.01562500   4 t-inv F
  0.500000  0.250000  0.000000    0.01562500   5 t-inv F
 -0.250000  0.250000  0.000000    0.01562500   6 t-inv F
  0.500000  0.500000  0.000000    0.01562500   7 t-inv F
 -0.250000  0.500000  0.250000    0.01562500   8 t-inv F
  0.000000  0.250000  0.000000    0.01562500   2 t-inv F
  0.000000  0.000000  0.250000    0.01562500   2 t-inv F
 -0.250000 -0.250000 -0.250000    0.01562500   2 t-inv F
 -0.250000 -0.000000  0.000000    0.01562500   2 t-inv F
  0.000000 -0.250000 -0.000000    0.01562500   2 t-inv F
 -0.000000  0.000000 -0.250000    0.01562500   2 t-inv F
  0.250000  0.250000  0.250000    0.01562500   2 t-inv F
  0.000000  0.500000  0.000000    0.01562500   3 t-inv F
  0.000000  0.000000  0.500000    0.01562500   3 t-inv F
 -0.500000 -0.500000 -0.500000    0.01562500   3 t-inv F
  0.000000  0.250000  0.250000    0.01562500   4 t-inv F
  0.250000  0.000000  0.250000    0.01562500   4 t-inv F
 -0.250000 -0.250000  0.000000    0.01562500   4 t-inv F
 -0.250000 -0.000000 -0.250000    0.01562500   4 t-inv F
  0.000000 -0.250000 -0.250000    0.01562500   4 t-inv F
  0.000000  0.500000  0.250000    0.01562500   5 t-inv F
  0.250000  0.000000  0.500000    0.01562500   5 t-inv F
 -0.250000 -0.250000  0.250000    0.01562500   5 t-inv F
 -0.500000 -0.250000 -0.500000    0.01562500   5 t-inv F
  0.250000  0.500000  0.000000    0.01562500   5 t-inv F
  0.250000 -0.250000 -0.250000    0.01562500   5 t-inv F
 -0.500000 -0.500000 -0.250000    0.01562500   5 t-inv F
  0.000000  0.250000  0.500000    0.01562500   5 t-inv F
 -0.250000  0.250000 -0.250000    0.01562500   5 t-inv F
 -0.250000 -0.500000 -0.500000    0.01562500   5 t-inv F
  0.500000  0.000000  0.250000    0.01562500   5 t-inv F
 -0.500000 -0.250000  0.000000    0.01562500   5 t-inv F
  0.000000 -0.500000 -0.250000    0.01562500   5 t-inv F
 -0.250000  0.000000 -0.500000    0.01562500   5 t-inv F
  0.250000  0.250000 -0.250000    0.01562500   5 t-inv F
  0.500000  0.250000  0.500000    0.01562500   5 t-inv F
 -0.250000 -0.500000  0.000000    0.01562500   5 t-inv F
 -0.250000  0.250000  0.250000    0.01562500   5 t-inv F
  0.500000  0.500000  0.250000    0.01562500   5 t-inv F
  0.000000 -0.250000 -0.500000    0.01562500   5 t-inv F
  0.250000 -0.250000  0.250000    0.01562500   5 t-inv F
  0.250000  0.500000  0.500000    0.01562500   5 t-inv F
 -0.500000  0.000000 -0.250000    0.01562500   5 t-inv F
  0.000000 -0.250000  0.250000    0.01562500   6 t-inv F
  0.250000  0.000000 -0.250000    0.01562500   6 t-inv F
 -0.250000 -0.250000 -0.500000    0.01562500   6 t-inv F
  0.250000  0.500000  0.250000    0.01562500   6 t-inv F
  0.250000 -0.250000  0.000000    0.01562500   6 t-inv F
 -0.500000 -0.250000 -0.250000    0.01562500   6 t-inv F
  0.250000  0.250000  0.500000    0.01562500   6 t-inv F
  0.000000  0.250000 -0.250000    0.01562500   6 t-inv F
 -0.250000 -0.500000 -0.250000    0.01562500   6 t-inv F
  0.500000  0.250000  0.250000    0.01562500   6 t-inv F
 -0.250000  0.000000  0.250000    0.01562500   6 t-inv F
  0.000000  0.500000  0.500000    0.01562500   7 t-inv F
  0.500000  0.000000  0.500000    0.01562500   7 t-inv F
  0.250000 -0.250000  0.500000    0.01562500   8 t-inv F
  0.500000  0.250000 -0.250000    0.01562500   8 t-inv F
 -0.500000 -0.250000 -0.750000    0.01562500   8 t-inv F
  0.250000 -0.500000 -0.250000    0.01562500   8 t-inv F
 -0.250000  0.250000 -0.500000    0.01562500   8 t-inv F


--------------------------------------------------------------------------------------------------------




 Dimension of arrays:
   k-points           NKPTS =      8   k-points in BZ     NKDIM =      8   number of bands    NBANDS=     12
   number of dos      NEDOS =    301   number of ions     NIONS =      2
   non local maximal  LDIM  =      4   non local SUM 2l+1 LMDIM =      8
   total plane-waves  NPLWV =  46656
   max r-space proj   IRMAX =   6824   max aug-charges    IRDMAX=  38346
   dimension x,y,z NGX =    36 NGY =   36 NGZ =   36
   dimension x,y,z NGXF=    72 NGYF=   72 NGZF=   72
   support grid    NGXF=    72 NGYF=   72 NGZF=   72
   ions per type =               2
   NGX,Y,Z   is equivalent  to a cutoff of  15.48, 15.48, 15.48 a.u.
   NGXF,Y,Z  is equivalent  to a cutoff of  30.95, 30.95, 30.95 a.u.

 SYSTEM =  unknown system                          
 POSCAR =  Si2                                     

 Startparameter for this run:
   NWRITE =      2    write-flag & timer
   PREC   = accura    normal or accurate (medium, high low for compatibility)
   ISTART =      0    job   : 0-new  1-cont  2-samecut
   ICHARG =      2    charge: 1-file 2-atom 10-const
   ISPIN  =      2    spin polarized calculation?
   LNONCOLLINEAR =      F non collinear calculations
   LSORBIT =      F    spin-orbit coupling
   INIWAV =      1    electr: 0-lowe 1-rand  2-diag
   LASPH  =      T    aspherical Exc in radial PAW
 Electronic Relaxation 1
   ENCUT  =  680.0 eV  49.98 Ry    7.07 a.u.   8.22  8.22  8.22*2*pi/ulx,y,z
   ENINI  =  680.0     initial cutoff
   ENAUG  = 1360.0 eV  augmentation charge cutoff
   NELM   =    200;   NELMIN=  2; NELMDL= -5     # of ELM steps 
   EDIFF  = 0.1E-04   stopping-criterion for ELM
   LREAL  =      T    real-space projection
   NLSPLINE    = F    spline interpolate recip. space projectors
   LCOMPAT=      F    compatible to vasp.4.4
   GGA_COMPAT  = T    GGA compatible to vasp.4.4-vasp.4.6
   LMAXPAW     = -100 max onsite density
   LMAXMIX     =    2 max onsite mixed and CHGCAR
   VOSKOWN=      0    Vosko Wilk Nusair interpolation
   ROPT   =   -0.00025
 Ionic relaxation
   EDIFFG = -.2E-01   stopping-criterion for IOM
   NSW    =      1    number of steps for IOM
   NBLOCK =      1;   KBLOCK =      1    inner block; outer block 
   IBRION =      8    ionic relax: 0-MD 1-quasi-New 2-CG
   NFREE  =      0    steps in history (QN), initial steepest desc. (CG)
   ISIF   =      3    stress and relaxation
   IWAVPR =     11    prediction:  0-non 1-charg 2-wave 3-comb
   ISYM   =      2    0-nonsym 1-usesym 2-fastsym
   LCORR  =      T    Harris-Foulkes like correction to forces

   POTIM  = 0.5000    time-step for ionic-motion
   TEIN   =    0.0    initial temperature
   TEBEG  =    0.0;   TEEND  =   0.0 temperature during run
   SMASS  =  -3.00    Nose mass-parameter (am)
   estimated Nose-frequenzy (Omega)   =  0.10E-29 period in steps = 0.13E+47 mass=  -0.342E-27a.u.
   SCALEE = 1.0000    scale energy and forces
   NPACO  =    256;   APACO  = 16.0  distance and # of slots for P.C.
   PSTRESS=    0.0 pullay stress

  Mass of Ions in am
   POMASS =  28.09
  Ionic Valenz
   ZVAL   =   4.00
  Atomic Wigner-Seitz radii
   RWIGS  =  -1.00
  virtual crystal weights 
   VCA    =   1.00
   NELECT =       8.0000    total number of electrons
   NUPDOWN=      -1.0000    fix difference up-down

 DOS related values:
   EMIN   =  10.00;   EMAX   =-10.00  energy-range for DOS
   EFERMI =   0.00
   ISMEAR =    -5;   SIGMA  =   0.05  broadening in eV -4-tet -1-fermi 0-gaus

 Electronic relaxation 2 (details)
   IALGO  =     38    algorithm
   LDIAG  =      T    sub-space diagonalisation (order eigenvalues)
   LSUBROT=      F    optimize rotation matrix (better conditioning)
   TURBO    =      0    0=normal 1=particle mesh
   IRESTART =      0    0=no restart 2=restart with 2 vectors
   NREBOOT  =      0    no. of reboots
   NMIN     =      0    reboot dimension
   EREF     =   0.00    reference energy to select bands
   IMIX   =      4    mixing-type and parameters
     AMIX     =   0.40;   BMIX     =  1.00
     AMIX_MAG =   1.60;   BMIX_MAG =  1.00
     AMIN     =   0.10
     WC   =   100.;   INIMIX=   1;  MIXPRE=   1;  MAXMIX= -45

 Intra band minimization:
   WEIMIN = 0.0010     energy-eigenvalue tresh-hold
   EBREAK =  0.21E-06  absolut break condition
   DEPER  =   0.30     relativ break condition  

   TIME   =   0.40     timestep for ELM

  volume/ion in A,a.u.               =      20.44       137.96
  Fermi-wavevector in a.u.,A,eV,Ry     =   0.950397  1.795990 12.289528  0.903255
  Thomas-Fermi vector in A             =   2.078770
 
 Write flags
   LWAVE        =      F    write WAVECAR
   LDOWNSAMPLE  =      F    k-point downsampling of WAVECAR
   LCHARG       =      T    write CHGCAR
   LVTOT        =      T    write LOCPOT, total local potential
   LVHAR        =      F    write LOCPOT, Hartree potential only
   LELF         =      T    write electronic localiz. function (ELF)
   LORBIT       =     11    0 simple, 1 ext, 2 COOP (PROOUT), +10 PAW based schemes


 Dipole corrections
   LMONO  =      F    monopole corrections only (constant potential shift)
   LDIPOL =      F    correct potential (dipole corrections)
   IDIPOL =      0    1-x, 2-y, 3-z, 4-all directions 
   EPSILON=  1.0000000 bulk dielectric constant

 Exchange correlation treatment:
   GGA     =    --    GGA type
   LEXCH   =     8    internal setting for exchange type
   VOSKOWN=      0    Vosko Wilk Nusair interpolation
   LHFCALC =     F    Hartree Fock is set to
   LHFONE  =     F    Hartree Fock one center treatment
   AEXX    =    0.0000 exact exchange contribution

 Linear response parameters
   LEPSILON=     T    determine dielectric tensor
   LRPA    =     F    only Hartree local field effects (RPA)
   LNABLA  =     F    use nabla operator in PAW spheres
   LVEL    =     F    velocity operator in full k-point grid
   LINTERFAST=   F  fast interpolation
   KINTER  =     0    interpolate to denser k-point grid
   CSHIFT  =0.1000    complex shift for real part using Kramers Kronig
   OMEGAMAX=  -1.0    maximum frequency
   DEG_THRESHOLD= 0.2000000E-02 threshold for treating states as degnerate
   RTIME   =   -0.100 relaxation time in fs
  (WPLASMAI=    0.000 imaginary part of plasma frequency in eV, 0.658/RTIME)
   DFIELD  = 0.0000000 0.0000000 0.0000000 field for delta impulse in time
 
 Orbital magnetization related:
   ORBITALMAG=     F  switch on orbital magnetization
   LCHIMAG   =     F  perturbation theory with respect to B field
   DQ        =  0.001000  dq finite difference perturbation B field
   LLRAUG    =     F  two centre corrections for induced B field

 PEAD related settings:
   LPEAD      =     T    switch on PEAD
   IPEAD      =     4    finite difference order for dpsi/dk
   LCALCPOL   =     F    calculate macroscopic polarization
   LCALCEPS   =     F    calculate dielectric tensor
   EFIELD_PEAD=    0.0000    0.0000    0.0000
   SKIP_EDOTP =     F
   LRPA       =     F
   SKIP_SCF   =     F


--------------------------------------------------------------------------------------------------------


 linear response using symmetry
 charge density and potential will be updated during run
 spin polarized calculation
 Variant of blocked Davidson
 Davidson routine will perform the subspace rotation
 perform sub-space diagonalisation
    after iterative eigenvector-optimisation
 modified Broyden-mixing scheme, WC =      100.0
 initial mixing is a Kerker type mixing with AMIX =  0.4000 and BMIX =      1.0000
 Hartree-type preconditioning will be used
 using additional bands            8
 real space projection scheme for non local part
 use partial core corrections
 calculate Harris-corrections to forces 
   (improved forces if not selfconsistent)
 use gradient corrections 
 use of overlap-Matrix (Vanderbilt PP)
 Fermi weights with tetrahedron method with Bloechl corrections


--------------------------------------------------------------------------------------------------------


  energy-cutoff  :      680.00
  volume of cell :       40.89
      direct lattice vectors                 reciprocal lattice vectors
     3.348898000  0.000000000  1.933487000     0.298605691 -0.105573000  0.000000000
     1.116299000  3.157372000  1.933487000     0.000000000  0.316719094  0.000000000
     0.000000000  0.000000000  3.866975000    -0.149302807 -0.105573020  0.258600069

  length of vectors
     3.866974243  3.866974707  3.866975000     0.316719145  0.316719094  0.316719096


 
 k-points in units of 2pi/SCALE and weight: read from INCAR                         
   0.00000000  0.00000000  0.00000000       0.016
   0.07465142 -0.02639325  0.00000000       0.125
   0.14930285 -0.05278650  0.00000000       0.062
   0.07465142  0.05278652  0.00000000       0.094
   0.14930285  0.02639327  0.00000000       0.375
  -0.07465142  0.10557302  0.00000000       0.188
   0.14930285  0.10557305  0.00000000       0.047
  -0.11197712  0.15835954  0.06465002       0.094
 
 k-points in reciprocal lattice and weights: read from INCAR                         
   0.00000000  0.00000000  0.00000000       0.016
   0.25000000  0.00000000  0.00000000       0.125
   0.50000000  0.00000000  0.00000000       0.062
   0.25000000  0.25000000  0.00000000       0.094
   0.50000000  0.25000000  0.00000000       0.375
  -0.25000000  0.25000000  0.00000000       0.188
   0.50000000  0.50000000  0.00000000       0.047
  -0.25000000  0.50000000  0.25000000       0.094
 
 position of ions in fractional coordinates (direct lattice) 
   0.25000000  0.25000000  0.25000000
   0.00000000  0.00000000  0.00000000
 
 position of ions in cartesian coordinates  (Angst):
   1.11629925  0.78934300  1.93348725
   0.00000000  0.00000000  0.00000000
 


--------------------------------------------------------------------------------------------------------


 k-point   1 :   0.0000 0.0000 0.0000  plane waves:    1639
 k-point   2 :   0.2500 0.0000 0.0000  plane waves:    1642
 k-point   3 :   0.5000 0.0000 0.0000  plane waves:    1676
 k-point   4 :   0.2500 0.2500 0.0000  plane waves:    1636
 k-point   5 :   0.5000 0.2500 0.0000  plane waves:    1651
 k-point   6 :  -0.2500 0.2500 0.0000  plane waves:    1634
 k-point   7 :   0.5000 0.5000 0.0000  plane waves:    1660
 k-point   8 :  -0.2500 0.5000 0.2500  plane waves:    1628

 maximum and minimum number of plane-waves per node :      1676     1628

 maximum number of plane-waves:      1676
 maximum index in each direction: 
   IXMAX=    8   IYMAX=    8   IZMAX=    8
   IXMIN=   -8   IYMIN=   -8   IZMIN=   -8


 serial   3D FFT for wavefunctions
 parallel 3D FFT for charge:
    minimum data exchange during FFTs selected (reduces bandwidth)


 total amount of memory used by VASP MPI-rank0    46517. kBytes
=======================================================================

   base      :      30000. kBytes
   nonlr-proj:       1161. kBytes
   fftplans  :       3408. kBytes
   grid      :      10637. kBytes
   one-center:         12. kBytes
   wavefun   :       1299. kBytes
 
     INWAV:  cpu time    0.0000: real time    0.0000
 Broyden mixing: mesh for mixing (old mesh)
   NGX = 17   NGY = 17   NGZ = 17
  (NGX  = 72   NGY  = 72   NGZ  = 72)
  gives a total of   4913 points

 initial charge density was supplied:
 charge density of overlapping atoms calculated
 number of electron       8.0000000 magnetization       1.2000000
 keeping initial charge density in first step


--------------------------------------------------------------------------------------------------------


 Maximum index for non-local projection operator         6603
 Maximum index for augmentation-charges         9303 (set IRDMAX)


--------------------------------------------------------------------------------------------------------


 First call to EWALD:  gamma=   0.514
 Maximum number of real-space cells 3x 3x 3
 Maximum number of reciprocal cells 3x 3x 3

    FEWALD:  cpu time    0.0012: real time    0.0019


--------------------------------------- Iteration      1(   1)  ---------------------------------------


    POTLOK:  cpu time    0.0876: real time    0.0936
    SETDIJ:  cpu time    0.1580: real time    0.1595
     EDDAV:  cpu time    0.3562: real time    0.3718
 BZINTS: Fermi energy:    9.292900;    8.000000 electrons
         Band energy: 0.207352E+02;  BLOECHL correction:   -0.185314
       DOS:  cpu time    0.0013: real time    0.0028
    --------------------------------------------
      LOOP:  cpu time    0.6032: real time    0.6278

 eigenvalue-minimisations  :   384
 total energy-change (2. order) : 0.8478722E+01  (-0.3456506E+03)
 number of electron       8.0000000 magnetization       1.2000000
 augmentation part        8.0000000 magnetization       1.2000000

 Free energy of the ion-electron system (eV)
  ---------------------------------------------------
  alpha Z        PSCENC =         3.29317992
  Ewald energy   TEWEN  =      -226.94489173
  -Hartree energ DENC   =       -11.32339116
  -exchange      EXHF   =         0.00000000
  -V(xc)+E(xc)   XCENC  =       -18.60569953
  PAW double counting   =       176.18363791     -140.99252705
  entropy T*S    EENTRO =         0.00000000
  eigenvalues    EBANDS =        20.73519146
  atomic energy  EATOM  =       206.13322186
  Solvation  Ediel_sol  =         0.00000000
  ---------------------------------------------------
  free energy    TOTEN  =         8.47872167 eV

  energy without entropy =        8.47872167  energy(sigma->0) =        8.47872167


--------------------------------------------------------------------------------------------------------




--------------------------------------- Iteration      1(   2)  ---------------------------------------


     EDDAV:  cpu time    0.4925: real time    0.4944
 BZINTS: Fermi energy:    5.872050;    8.000000 electrons
         Band energy: 0.224153E+01;  BLOECHL correction:   -0.000000
       DOS:  cpu time    0.0003: real time    0.0003
    --------------------------------------------
      LOOP:  cpu time    0.4928: real time    0.4946

 eigenvalue-minimisations  :   504
 total energy-change (2. order) :-0.1849367E+02  (-0.1787362E+02)
 number of electron       8.0000000 magnetization       1.2000000
 augmentation part        8.0000000 magnetization       1.2000000

 Free energy of the ion-electron system (eV)
  ---------------------------------------------------
  alpha Z        PSCENC =         3.29317992
  Ewald energy   TEWEN  =      -226.94489173
  -Hartree energ DENC   =       -11.32339116
  -exchange      EXHF   =         0.00000000
  -V(xc)+E(xc)   XCENC  =       -18.60569953
  PAW double counting   =       176.18363791     -140.99252705
  entropy T*S    EENTRO =         0.00000000
  eigenvalues    EBANDS =         2.24152601
  atomic energy  EATOM  =       206.13322186
  Solvation  Ediel_sol  =         0.00000000
  ---------------------------------------------------
  free energy    TOTEN  =       -10.01494378 eV

  energy without entropy =      -10.01494378  energy(sigma->0) =      -10.01494378


--------------------------------------------------------------------------------------------------------




--------------------------------------- Iteration      1(   3)  ---------------------------------------


     EDDAV:  cpu time    0.6260: real time    0.6421
 BZINTS: Fermi energy:    5.856436;    8.000000 electrons
         Band energy: 0.159173E+01;  BLOECHL correction:   -0.000000
       DOS:  cpu time    0.0003: real time    0.0003
    --------------------------------------------
      LOOP:  cpu time    0.6263: real time    0.6424

 eigenvalue-minimisations  :   496
 total energy-change (2. order) :-0.6498008E+00  (-0.6478059E+00)
 number of electron       8.0000000 magnetization       1.2000000
 augmentation part        8.0000000 magnetization       1.2000000

 Free energy of the ion-electron system (eV)
  ---------------------------------------------------
  alpha Z        PSCENC =         3.29317992
  Ewald energy   TEWEN  =      -226.94489173
  -Hartree energ DENC   =       -11.32339116
  -exchange      EXHF   =         0.00000000
  -V(xc)+E(xc)   XCENC  =       -18.60569953
  PAW double counting   =       176.18363791     -140.99252705
  entropy T*S    EENTRO =         0.00000000
  eigenvalues    EBANDS =         1.59172525
  atomic energy  EATOM  =       206.13322186
  Solvation  Ediel_sol  =         0.00000000
  ---------------------------------------------------
  free energy    TOTEN  =       -10.66474453 eV

  energy without entropy =      -10.66474453  energy(sigma->0) =      -10.66474453


--------------------------------------------------------------------------------------------------------




--------------------------------------- Iteration      1(   4)  ---------------------------------------


     EDDAV:  cpu time    0.4908: real time    0.4918
 BZINTS: Fermi energy:    5.856001;    8.000000 electrons
         Band energy: 0.158673E+01;  BLOECHL correction:    0.000000
       DOS:  cpu time    0.0003: real time    0.0003
    --------------------------------------------
      LOOP:  cpu time    0.4911: real time    0.4921

 eigenvalue-minimisations  :   444
 total energy-change (2. order) :-0.4992444E-02  (-0.4991833E-02)
 number of electron       8.0000000 magnetization       1.2000000
 augmentation part        8.0000000 magnetization       1.2000000

 Free energy of the ion-electron system (eV)
  ---------------------------------------------------
  alpha Z        PSCENC =         3.29317992
  Ewald energy   TEWEN  =      -226.94489173
  -Hartree energ DENC   =       -11.32339116
  -exchange      EXHF   =         0.00000000
  -V(xc)+E(xc)   XCENC  =       -18.60569953
  PAW double counting   =       176.18363791     -140.99252705
  entropy T*S    EENTRO =         0.00000000
  eigenvalues    EBANDS =         1.58673281
  atomic energy  EATOM  =       206.13322186
  Solvation  Ediel_sol  =         0.00000000
  ---------------------------------------------------
  free energy    TOTEN  =       -10.66973698 eV

  energy without entropy =      -10.66973698  energy(sigma->0) =      -10.66973698


--------------------------------------------------------------------------------------------------------




--------------------------------------- Iteration      1(   5)  ---------------------------------------


     EDDAV:  cpu time    0.4896: real time    0.4905
 BZINTS: Fermi energy:    5.856492;    8.000000 electrons
         Band energy: 0.158668E+01;  BLOECHL correction:   -0.000000
       DOS:  cpu time    0.0004: real time    0.0004
    CHARGE:  cpu time    0.0292: real time    0.0317
    MIXING:  cpu time    0.0034: real time    0.0052
    --------------------------------------------
      LOOP:  cpu time    0.5227: real time    0.5278

 eigenvalue-minimisations  :   496
 total energy-change (2. order) :-0.5096023E-04  (-0.5094631E-04)
 number of electron       8.0000000 magnetization      -0.3329125
 augmentation part       -0.4660022 magnetization      -0.3296373

 Broyden mixing:
  rms(total) = 0.53081E+00    rms(broyden)= 0.53081E+00
  rms(prec ) = 0.99697E+00
  weight for this iteration     100.00

 Free energy of the ion-electron system (eV)
  ---------------------------------------------------
  alpha Z        PSCENC =         3.29317992
  Ewald energy   TEWEN  =      -226.94489173
  -Hartree energ DENC   =       -11.32339116
  -exchange      EXHF   =         0.00000000
  -V(xc)+E(xc)   XCENC  =       -18.60569953
  PAW double counting   =       176.18363791     -140.99252705
  entropy T*S    EENTRO =         0.00000000
  eigenvalues    EBANDS =         1.58668185
  atomic energy  EATOM  =       206.13322186
  Solvation  Ediel_sol  =         0.00000000
  ---------------------------------------------------
  free energy    TOTEN  =       -10.66978794 eV

  energy without entropy =      -10.66978794  energy(sigma->0) =      -10.66978794


--------------------------------------------------------------------------------------------------------




--------------------------------------- Iteration      1(   6)  ---------------------------------------


    POTLOK:  cpu time    0.0913: real time    0.0913
    SETDIJ:  cpu time    0.1690: real time    0.1813
     EDDAV:  cpu time    0.5588: real time    0.5606
 BZINTS: Fermi energy:    6.120262;    8.000000 electrons
         Band energy: 0.305356E+01;  BLOECHL correction:    0.000000
       DOS:  cpu time    0.0003: real time    0.0003
    CHARGE:  cpu time    0.0328: real time    0.0328
    MIXING:  cpu time    0.0051: real time    0.0128
    --------------------------------------------
      LOOP:  cpu time    0.8573: real time    0.8791

 eigenvalue-minimisations  :   428
 total energy-change (2. order) :-0.4298201E-01  (-0.8672151E-02)
 number of electron       8.0000000 magnetization       0.4423277
 augmentation part       -0.4594121 magnetization       0.4418820

 Broyden mixing:
  rms(total) = 0.31166E+00    rms(broyden)= 0.31166E+00
  rms(prec ) = 0.58880E+00
  weight for this iteration     100.00

 eigenvalues of (default mixing * dielectric matrix)
  average eigenvalue GAMMA=   0.8971
  0.8971

 Free energy of the ion-electron system (eV)
  ---------------------------------------------------
  alpha Z        PSCENC =         3.29317992
  Ewald energy   TEWEN  =      -226.94489173
  -Hartree energ DENC   =       -12.89271831
  -exchange      EXHF   =         0.00000000
  -V(xc)+E(xc)   XCENC  =       -18.43643466
  PAW double counting   =       371.57884076     -336.49752959
  entropy T*S    EENTRO =         0.00000000
  eigenvalues    EBANDS =         3.05356181
  atomic energy  EATOM  =       206.13322186
  Solvation  Ediel_sol  =         0.00000000
  ---------------------------------------------------
  free energy    TOTEN  =       -10.71276995 eV

  energy without entropy =      -10.71276995  energy(sigma->0) =      -10.71276995


--------------------------------------------------------------------------------------------------------




--------------------------------------- Iteration      1(   7)  ---------------------------------------


    POTLOK:  cpu time    0.1037: real time    0.1039
    SETDIJ:  cpu time    0.1759: real time    0.1763
     EDDAV:  cpu time    0.4981: real time    0.5066
 BZINTS: Fermi energy:    6.196259;    8.000000 electrons
         Band energy: 0.479725E+01;  BLOECHL correction:   -0.000000
       DOS:  cpu time    0.0004: real time    0.0004
    CHARGE:  cpu time    0.0314: real time    0.0314
    MIXING:  cpu time    0.0032: real time    0.0037
    --------------------------------------------
      LOOP:  cpu time    0.8126: real time    0.8223

 eigenvalue-minimisations  :   432
 total energy-change (2. order) : 0.6587711E-01  (-0.8721242E-02)
 number of electron       8.0000000 magnetization       0.0997601
 augmentation part       -0.4539088 magnetization       0.1005212

 Broyden mixing:
  rms(total) = 0.20149E+00    rms(broyden)= 0.20149E+00
  rms(prec ) = 0.24098E+00
  weight for this iteration     100.00

 eigenvalues of (default mixing * dielectric matrix)
  average eigenvalue GAMMA=   1.2049
  1.7597  0.6501

 Free energy of the ion-electron system (eV)
  ---------------------------------------------------
  alpha Z        PSCENC =         3.29317992
  Ewald energy   TEWEN  =      -226.94489173
  -Hartree energ DENC   =       -14.78054159
  -exchange      EXHF   =         0.00000000
  -V(xc)+E(xc)   XCENC  =       -18.13029081
  PAW double counting   =       699.36237362     -664.37719115
  entropy T*S    EENTRO =         0.00000000
  eigenvalues    EBANDS =         4.79724705
  atomic energy  EATOM  =       206.13322186
  Solvation  Ediel_sol  =         0.00000000
  ---------------------------------------------------
  free energy    TOTEN  =       -10.64689284 eV

  energy without entropy =      -10.64689284  energy(sigma->0) =      -10.64689284


--------------------------------------------------------------------------------------------------------




--------------------------------------- Iteration      1(   8)  ---------------------------------------


    POTLOK:  cpu time    0.0903: real time    0.0905
    SETDIJ:  cpu time    0.1574: real time    0.1577
     EDDAV:  cpu time    0.4360: real time    0.4392
 BZINTS: Fermi energy:    6.335438;    8.000000 electrons
         Band energy: 0.535962E+01;  BLOECHL correction:    0.000000
       DOS:  cpu time    0.0003: real time    0.0003
    CHARGE:  cpu time    0.0266: real time    0.0267
    MIXING:  cpu time    0.0029: real time    0.0029
    --------------------------------------------
      LOOP:  cpu time    0.7136: real time    0.7172

 eigenvalue-minimisations  :   424
 total energy-change (2. order) :-0.1665423E-01  (-0.1378462E-02)
 number of electron       8.0000000 magnetization      -0.0061900
 augmentation part       -0.4522544 magnetization      -0.0060513

 Broyden mixing:
  rms(total) = 0.46133E-01    rms(broyden)= 0.46133E-01
  rms(prec ) = 0.55826E-01
  weight for this iteration     100.00

 eigenvalues of (default mixing * dielectric matrix)
  average eigenvalue GAMMA=   1.3046
  2.5174  0.7830  0.6135

 Free energy of the ion-electron system (eV)
  ---------------------------------------------------
  alpha Z        PSCENC =         3.29317992
  Ewald energy   TEWEN  =      -226.94489173
  -Hartree energ DENC   =       -15.41706889
  -exchange      EXHF   =         0.00000000
  -V(xc)+E(xc)   XCENC  =       -18.04130063
  PAW double counting   =       830.22940603     -795.27571691
  entropy T*S    EENTRO =         0.00000000
  eigenvalues    EBANDS =         5.35962330
  atomic energy  EATOM  =       206.13322186
  Solvation  Ediel_sol  =         0.00000000
  ---------------------------------------------------
  free energy    TOTEN  =       -10.66354707 eV

  energy without entropy =      -10.66354707  energy(sigma->0) =      -10.66354707


--------------------------------------------------------------------------------------------------------




--------------------------------------- Iteration      1(   9)  ---------------------------------------


    POTLOK:  cpu time    0.0926: real time    0.0927
    SETDIJ:  cpu time    0.1518: real time    0.1520
     EDDAV:  cpu time    0.4663: real time    0.4679
 BZINTS: Fermi energy:    6.376904;    8.000000 electrons
         Band energy: 0.539831E+01;  BLOECHL correction:   -0.000000
       DOS:  cpu time    0.0003: real time    0.0003
    CHARGE:  cpu time    0.0269: real time    0.0269
    MIXING:  cpu time    0.0030: real time    0.0031
    --------------------------------------------
      LOOP:  cpu time    0.7409: real time    0.7429

 eigenvalue-minimisations  :   452
 total energy-change (2. order) :-0.2011559E-02  (-0.9507616E-04)
 number of electron       8.0000000 magnetization      -0.0010930
 augmentation part       -0.4523792 magnetization      -0.0010371

 Broyden mixing:
  rms(total) = 0.10659E-01    rms(broyden)= 0.10659E-01
  rms(prec ) = 0.23624E-01
  weight for this iteration     100.00

 eigenvalues of (default mixing * dielectric matrix)
  average eigenvalue GAMMA=   1.3354
  2.4559  1.4927  0.7769  0.6161

 Free energy of the ion-electron system (eV)
  ---------------------------------------------------
  alpha Z        PSCENC =         3.29317992
  Ewald energy   TEWEN  =      -226.94489173
  -Hartree energ DENC   =       -15.47371297
  -exchange      EXHF   =         0.00000000
  -V(xc)+E(xc)   XCENC  =       -18.02982776
  PAW double counting   =       846.39050098     -811.43233730
  entropy T*S    EENTRO =         0.00000000
  eigenvalues    EBANDS =         5.39830838
  atomic energy  EATOM  =       206.13322186
  Solvation  Ediel_sol  =         0.00000000
  ---------------------------------------------------
  free energy    TOTEN  =       -10.66555863 eV

  energy without entropy =      -10.66555863  energy(sigma->0) =      -10.66555863


--------------------------------------------------------------------------------------------------------




--------------------------------------- Iteration      1(  10)  ---------------------------------------


    POTLOK:  cpu time    0.0893: real time    0.0894
    SETDIJ:  cpu time    0.1563: real time    0.1566
     EDDAV:  cpu time    0.4066: real time    0.4073
 BZINTS: Fermi energy:    6.387107;    8.000000 electrons
         Band energy: 0.537237E+01;  BLOECHL correction:   -0.000000
       DOS:  cpu time    0.0004: real time    0.0004
    CHARGE:  cpu time    0.0279: real time    0.0280
    MIXING:  cpu time    0.0031: real time    0.0031
    --------------------------------------------
      LOOP:  cpu time    0.6837: real time    0.6848

 eigenvalue-minimisations  :   416
 total energy-change (2. order) :-0.6443641E-03  (-0.9622201E-04)
 number of electron       8.0000000 magnetization       0.0015146
 augmentation part       -0.4528124 magnetization       0.0014717

 Broyden mixing:
  rms(total) = 0.42201E-02    rms(broyden)= 0.42201E-02
  rms(prec ) = 0.66263E-02
  weight for this iteration     100.00

 eigenvalues of (default mixing * dielectric matrix)
  average eigenvalue GAMMA=   1.3798
  2.3377  2.3377  0.8380  0.7668  0.6190

 Free energy of the ion-electron system (eV)
  ---------------------------------------------------
  alpha Z        PSCENC =         3.29317992
  Ewald energy   TEWEN  =      -226.94489173
  -Hartree energ DENC   =       -15.46749537
  -exchange      EXHF   =         0.00000000
  -V(xc)+E(xc)   XCENC  =       -18.02532651
  PAW double counting   =       849.41614305     -814.44340560
  entropy T*S    EENTRO =         0.00000000
  eigenvalues    EBANDS =         5.37237140
  atomic energy  EATOM  =       206.13322186
  Solvation  Ediel_sol  =         0.00000000
  ---------------------------------------------------
  free energy    TOTEN  =       -10.66620299 eV

  energy without entropy =      -10.66620299  energy(sigma->0) =      -10.66620299


--------------------------------------------------------------------------------------------------------




--------------------------------------- Iteration      1(  11)  ---------------------------------------


    POTLOK:  cpu time    0.0934: real time    0.0937
    SETDIJ:  cpu time    0.1549: real time    0.1551
     EDDAV:  cpu time    0.4377: real time    0.4383
 BZINTS: Fermi energy:    6.391005;    8.000000 electrons
         Band energy: 0.538489E+01;  BLOECHL correction:    0.000000
       DOS:  cpu time    0.0004: real time    0.0004
    CHARGE:  cpu time    0.0266: real time    0.0268
    MIXING:  cpu time    0.0030: real time    0.0030
    --------------------------------------------
      LOOP:  cpu time    0.7159: real time    0.7172

 eigenvalue-minimisations  :   452
 total energy-change (2. order) :-0.7187748E-04  (-0.1459429E-04)
 number of electron       8.0000000 magnetization       0.0002580
 augmentation part       -0.4528456 magnetization       0.0002655

 Broyden mixing:
  rms(total) = 0.31588E-02    rms(broyden)= 0.31588E-02
  rms(prec ) = 0.40395E-02
  weight for this iteration     100.00

 eigenvalues of (default mixing * dielectric matrix)
  average eigenvalue GAMMA=   1.4024
  2.4163  2.4163  1.4871  0.7754  0.6945  0.6245

 Free energy of the ion-electron system (eV)
  ---------------------------------------------------
  alpha Z        PSCENC =         3.29317992
  Ewald energy   TEWEN  =      -226.94489173
  -Hartree energ DENC   =       -15.48288987
  -exchange      EXHF   =         0.00000000
  -V(xc)+E(xc)   XCENC  =       -18.02301112
  PAW double counting   =       847.30372928     -812.33050066
  entropy T*S    EENTRO =         0.00000000
  eigenvalues    EBANDS =         5.38488745
  atomic energy  EATOM  =       206.13322186
  Solvation  Ediel_sol  =         0.00000000
  ---------------------------------------------------
  free energy    TOTEN  =       -10.66627487 eV

  energy without entropy =      -10.66627487  energy(sigma->0) =      -10.66627487


--------------------------------------------------------------------------------------------------------




--------------------------------------- Iteration      1(  12)  ---------------------------------------


    POTLOK:  cpu time    0.0927: real time    0.0932
    SETDIJ:  cpu time    0.1525: real time    0.1526
     EDDAV:  cpu time    0.4300: real time    0.4307
 BZINTS: Fermi energy:    6.392223;    8.000000 electrons
         Band energy: 0.539412E+01;  BLOECHL correction:    0.000000
       DOS:  cpu time    0.0004: real time    0.0004
    CHARGE:  cpu time    0.0256: real time    0.0257
    MIXING:  cpu time    0.0040: real time    0.0040
    --------------------------------------------
      LOOP:  cpu time    0.7052: real time    0.7066

 eigenvalue-minimisations  :   440
 total energy-change (2. order) :-0.2021602E-04  (-0.1369848E-05)
 number of electron       8.0000000 magnetization      -0.0002489
 augmentation part       -0.4528214 magnetization      -0.0002330

 Broyden mixing:
  rms(total) = 0.11750E-02    rms(broyden)= 0.11750E-02
  rms(prec ) = 0.15607E-02
  weight for this iteration     100.00

 eigenvalues of (default mixing * dielectric matrix)
  average eigenvalue GAMMA=   1.3820
  2.5727  2.5727  1.6774  0.7887  0.6253  0.7186  0.7186

 Free energy of the ion-electron system (eV)
  ---------------------------------------------------
  alpha Z        PSCENC =         3.29317992
  Ewald energy   TEWEN  =      -226.94489173
  -Hartree energ DENC   =       -15.49272171
  -exchange      EXHF   =         0.00000000
  -V(xc)+E(xc)   XCENC  =       -18.02206015
  PAW double counting   =       843.72733884     -808.75447930
  entropy T*S    EENTRO =         0.00000000
  eigenvalues    EBANDS =         5.39411718
  atomic energy  EATOM  =       206.13322186
  Solvation  Ediel_sol  =         0.00000000
  ---------------------------------------------------
  free energy    TOTEN  =       -10.66629509 eV

  energy without entropy =      -10.66629509  energy(sigma->0) =      -10.66629509


--------------------------------------------------------------------------------------------------------




--------------------------------------- Iteration      1(  13)  ---------------------------------------


    POTLOK:  cpu time    0.0896: real time    0.0898
    SETDIJ:  cpu time    0.1534: real time    0.1536
     EDDAV:  cpu time    0.3678: real time    0.3682
 BZINTS: Fermi energy:    6.394114;    8.000000 electrons
         Band energy: 0.539694E+01;  BLOECHL correction:   -0.000000
       DOS:  cpu time    0.0003: real time    0.0003
    --------------------------------------------
      LOOP:  cpu time    0.6111: real time    0.6119

 eigenvalue-minimisations  :   360
 total energy-change (2. order) :-0.4797916E-05  (-0.6410703E-06)
 number of electron       8.0000000 magnetization      -0.0002489
 augmentation part       -0.4528214 magnetization      -0.0002330

 Free energy of the ion-electron system (eV)
  ---------------------------------------------------
  alpha Z        PSCENC =         3.29317992
  Ewald energy   TEWEN  =      -226.94489173
  -Hartree energ DENC   =       -15.49590929
  -exchange      EXHF   =         0.00000000
  -V(xc)+E(xc)   XCENC  =       -18.02180052
  PAW double counting   =       841.89352992     -806.92056731
  entropy T*S    EENTRO =         0.00000000
  eigenvalues    EBANDS =         5.39693728
  atomic energy  EATOM  =       206.13322186
  Solvation  Ediel_sol  =         0.00000000
  ---------------------------------------------------
  free energy    TOTEN  =       -10.66629988 eV

  energy without entropy =      -10.66629988  energy(sigma->0) =      -10.66629988


--------------------------------------------------------------------------------------------------------




 average (electrostatic) potential at core
  the test charge radii are     0.9892
  (the norm of the test charge is              1.0000)
       1 -83.4157       2 -83.4157
 
 
 
 E-fermi :   6.3941     XC(G=0):  -9.3007     alpha+bet :-11.7317

 Fermi energy:         6.3941139870

 spin component 1

 k-point     1 :       0.0000    0.0000    0.0000
  band No.  band energies     occupation 
      1      -6.1635      1.00000
      2       5.6597      1.00000
      3       5.6597      1.00000
      4       5.6597      1.00000
      5       8.1986      0.00000
      6       8.1986      0.00000
      7       8.1986      0.00000
      8       8.7962      0.00000
      9      13.3468      0.00000
     10      13.3468      0.00000
     11      13.5352      0.00000
     12      16.8171      0.00000

 k-point     2 :       0.2500    0.0000    0.0000
  band No.  band energies     occupation 
      1      -5.3780      1.00000
      2       1.7671      1.00000
      3       4.9112      1.00000
      4       4.9112      1.00000
      5       7.6107      0.00000
      6       9.1332      0.00000
      7       9.1332      0.00000
      8      12.4115      0.00000
      9      12.8255      0.00000
     10      12.8255      0.00000
     11      14.5777      0.00000
     12      17.3651      0.00000

 k-point     3 :       0.5000    0.0000    0.0000
  band No.  band energies     occupation 
      1      -3.8818      1.00000
      2      -1.2190      1.00000
      3       4.4771      1.00000
      4       4.4771      1.00000
      5       7.1192      0.00000
      6       8.9886      0.00000
      7       8.9886      0.00000
      8      13.3481      0.00000
      9      16.1396      0.00000
     10      16.1396      0.00000
     11      16.8471      0.00000
     12      16.8646      0.00000

 k-point     4 :       0.2500    0.2500    0.0000
  band No.  band energies     occupation 
      1      -5.1002      1.00000
      2       2.1402      1.00000
      3       3.8033      1.00000
      4       3.8033      1.00000
      5       6.7951      0.00000
      6       8.7778      0.00000
      7      11.3402      0.00000
      8      11.3402      0.00000
      9      13.5263      0.00000
     10      14.5385      0.00000
     11      16.9595      0.00000
     12      18.5546      0.00000

 k-point     5 :       0.5000    0.2500    0.0000
  band No.  band energies     occupation 
      1      -3.4969      1.00000
      2      -0.6694      1.00000
      3       2.1863      1.00000
      4       3.4920      1.00000
      5       7.1848     -0.00000
      6      10.0788     -0.00000
      7      11.2991      0.00000
      8      11.5214      0.00000
      9      15.7396      0.00000
     10      16.1062      0.00000
     11      17.6945      0.00000
     12      18.1781      0.00000

 k-point     6 :      -0.2500    0.2500    0.0000
  band No.  band energies     occupation 
      1      -4.1576      1.00000
      2       0.2159      1.00000
      3       1.9783      1.00000
      4       4.3522      1.00000
      5       8.0817      0.00000
      6      10.3917      0.00000
      7      10.7396      0.00000
      8      11.6916      0.00000
      9      12.0937      0.00000
     10      15.1720      0.00000
     11      18.1440      0.00000
     12      18.6812      0.00000

 k-point     7 :       0.5000    0.5000    0.0000
  band No.  band energies     occupation 
      1      -2.0916      1.00000
      2      -2.0916      1.00000
      3       2.8561      1.00000
      4       2.8561      1.00000
      5       6.3939      0.00000
      6       6.3939      0.00000
      7      15.5883      0.00000
      8      15.5883      0.00000
      9      16.5606      0.00000
     10      16.5606      0.00000
     11      18.0822      0.00000
     12      18.0823      0.00000

 k-point     8 :      -0.2500    0.5000    0.2500
  band No.  band energies     occupation 
      1      -1.9361      1.00000
      2      -1.9361      1.00000
      3       1.8855      1.00000
      4       1.8855      1.00000
      5       9.9189     -0.00000
      6       9.9189     -0.00000
      7      10.5772      0.00000
      8      10.5772      0.00000
      9      16.1057      0.00000
     10      16.1057      0.00000
     11      18.5200      0.00000
     12      18.5200      0.00000
 Fermi energy:         6.3941139870

 spin component 2

 k-point     1 :       0.0000    0.0000    0.0000
  band No.  band energies     occupation 
      1      -6.1637      1.00000
      2       5.6594      1.00000
      3       5.6594      1.00000
      4       5.6594      1.00000
      5       8.1984      0.00000
      6       8.1984      0.00000
      7       8.1984      0.00000
      8       8.7960      0.00000
      9      13.3466      0.00000
     10      13.3466      0.00000
     11      13.5365      0.00000
     12      16.8174      0.00000

 k-point     2 :       0.2500    0.0000    0.0000
  band No.  band energies     occupation 
      1      -5.3782      1.00000
      2       1.7668      1.00000
      3       4.9108      1.00000
      4       4.9108      1.00000
      5       7.6106      0.00000
      6       9.1330      0.00000
      7       9.1330      0.00000
      8      12.4114      0.00000
      9      12.8255      0.00000
     10      12.8255      0.00000
     11      14.5786      0.00000
     12      17.3659      0.00000

 k-point     3 :       0.5000    0.0000    0.0000
  band No.  band energies     occupation 
      1      -3.8821      1.00000
      2      -1.2192      1.00000
      3       4.4768      1.00000
      4       4.4768      1.00000
      5       7.1192      0.00000
      6       8.9886      0.00000
      7       8.9886      0.00000
      8      13.3490      0.00000
      9      16.1394      0.00000
     10      16.1394      0.00000
     11      16.8474      0.00000
     12      16.8645      0.00000

 k-point     4 :       0.2500    0.2500    0.0000
  band No.  band energies     occupation 
      1      -5.1004      1.00000
      2       2.1398      1.00000
      3       3.8030      1.00000
      4       3.8030      1.00000
      5       6.7953      0.00000
      6       8.7779      0.00000
      7      11.3400      0.00000
      8      11.3400      0.00000
      9      13.5261      0.00000
     10      14.5383      0.00000
     11      16.9604      0.00000
     12      18.5548      0.00000

 k-point     5 :       0.5000    0.2500    0.0000
  band No.  band energies     occupation 
      1      -3.4971      1.00000
      2      -0.6697      1.00000
      3       2.1862      1.00000
      4       3.4917      1.00000
      5       7.1850      0.00000
      6      10.0789      0.00000
      7      11.2989      0.00000
      8      11.5212      0.00000
      9      15.7397      0.00000
     10      16.1060      0.00000
     11      17.6943      0.00000
     12      18.1781      0.00000

 k-point     6 :      -0.2500    0.2500    0.0000
  band No.  band energies     occupation 
      1      -4.1578      1.00000
      2       0.2156      1.00000
      3       1.9782      1.00000
      4       4.3519      1.00000
      5       8.0818      0.00000
      6      10.3915      0.00000
      7      10.7397      0.00000
      8      11.6916      0.00000
      9      12.0937      0.00000
     10      15.1720      0.00000
     11      18.1445      0.00000
     12      18.6810      0.00000

 k-point     7 :       0.5000    0.5000    0.0000
  band No.  band energies     occupation 
      1      -2.0919      1.00000
      2      -2.0919      1.00000
      3       2.8559      1.00000
      4       2.8559      1.00000
      5       6.3942      0.00000
      6       6.3942      0.00000
      7      15.5880      0.00000
      8      15.5880      0.00000
      9      16.5604      0.00000
     10      16.5604      0.00000
     11      18.0820      0.00000
     12      18.0820      0.00000

 k-point     8 :      -0.2500    0.5000    0.2500
  band No.  band energies     occupation 
      1      -1.9364      1.00000
      2      -1.9364      1.00000
      3       1.8854      1.00000
      4       1.8854      1.00000
      5       9.9191      0.00000
      6       9.9191      0.00000
      7      10.5771      0.00000
      8      10.5771      0.00000
      9      16.1055      0.00000
     10      16.1055      0.00000
     11      18.5198      0.00000
     12      18.5198      0.00000


--------------------------------------------------------------------------------------------------------


 soft charge-density along one line, spin component           1
         0         1         2         3         4         5         6         7         8         9
 total charge-density along one line
 
 soft charge-density along one line, spin component           2
         0         1         2         3         4         5         6         7         8         9
 total charge-density along one line
 
 pseudopotential strength for first ion, spin component:           1
 18.431  25.715  -0.000  -0.000   0.000  -0.000  -0.000   0.000
 25.715  35.882  -0.000  -0.000   0.000  -0.000  -0.000   0.000
 -0.000  -0.000   4.180   0.000   0.000   7.790   0.000   0.000
 -0.000  -0.000   0.000   4.180   0.000   0.000   7.790   0.000
  0.000   0.000   0.000   0.000   4.180   0.000   0.000   7.790
 -0.000  -0.000   7.790   0.000   0.000  14.527   0.000   0.000
 -0.000  -0.000   0.000   7.790   0.000   0.000  14.527   0.000
  0.000   0.000   0.000   0.000   7.790   0.000   0.000  14.527
 pseudopotential strength for first ion, spin component:           2
 18.431  25.715  -0.000  -0.000   0.000  -0.000  -0.000   0.000
 25.715  35.882  -0.000  -0.000   0.000  -0.000  -0.000   0.000
 -0.000  -0.000   4.180   0.000  -0.000   7.790   0.000  -0.000
 -0.000  -0.000   0.000   4.180   0.000   0.000   7.790   0.000
  0.000   0.000  -0.000   0.000   4.180  -0.000   0.000   7.790
 -0.000  -0.000   7.790   0.000  -0.000  14.527   0.000  -0.000
 -0.000  -0.000   0.000   7.790   0.000   0.000  14.527   0.000
  0.000   0.000  -0.000   0.000   7.790  -0.000   0.000  14.527
 total augmentation occupancy for first ion, spin component:           1
  5.553  -2.071   0.000   0.000  -0.000   0.000  -0.000  -0.000
 -2.071   0.867  -0.000  -0.000  -0.000   0.000   0.000   0.000
 -0.000  -0.000   2.936  -0.000  -0.000  -0.653   0.000   0.000
  0.000   0.000  -0.000   2.936  -0.000   0.000  -0.653   0.000
  0.000  -0.000  -0.000  -0.000   2.936   0.000   0.000  -0.653
  0.000   0.000  -0.653   0.000   0.000   0.154  -0.000  -0.000
  0.000   0.000   0.000  -0.653   0.000  -0.000   0.154  -0.000
 -0.000   0.000   0.000   0.000  -0.653  -0.000  -0.000   0.154
 total augmentation occupancy for first ion, spin component:           2
  0.000  -0.000   0.000   0.000  -0.000  -0.000   0.000   0.000
 -0.000   0.000  -0.000  -0.000   0.000   0.000  -0.000  -0.000
  0.000  -0.000  -0.000   0.000   0.000   0.000  -0.000  -0.000
  0.000  -0.000   0.000  -0.000   0.000  -0.000   0.000  -0.000
 -0.000   0.000   0.000   0.000  -0.000  -0.000  -0.000   0.000
 -0.000  -0.000   0.000  -0.000  -0.000  -0.000   0.000   0.000
  0.000   0.000  -0.000   0.000  -0.000   0.000  -0.000   0.000
  0.000  -0.000  -0.000  -0.000   0.000   0.000   0.000  -0.000


------------------------ aborting loop because EDIFF is reached ----------------------------------------





 total charge

# of ion       s       p       d       tot
------------------------------------------
    1        0.737   0.945   0.000   1.683
    2        0.737   0.945   0.000   1.683
--------------------------------------------------
tot          1.475   1.891   0.000   3.366



 magnetization (x)

# of ion       s       p       d       tot
------------------------------------------
    1       -0.000  -0.000   0.000  -0.000
    2       -0.000  -0.000   0.000  -0.000
--------------------------------------------------
tot         -0.000  -0.000   0.000  -0.000
 
    CHARGE:  cpu time    0.0316: real time    0.0317
    FORLOC:  cpu time    0.0017: real time    0.0020
    FORNL :  cpu time    0.1263: real time    0.1268
    STRESS:  cpu time    0.3837: real time    0.3843
    FORCOR:  cpu time    0.0874: real time    0.0932
    FORHAR:  cpu time    0.0087: real time    0.0087
    MIXING:  cpu time    0.0028: real time    0.0028
    OFIELD:  cpu time    0.0001: real time    0.0001

  FORCE on cell =-STRESS in cart. coord.  units (eV):
  Direction    XX          YY          ZZ          XY          YZ          ZX
  --------------------------------------------------------------------------------------
  Alpha Z     3.29318     3.29318     3.29318
  Ewald     -75.64832   -75.64835   -75.64832    -0.00001     0.00001     0.00001
  Hartree     5.16567     5.16567     5.16567    -0.00000     0.00000     0.00000
  E(xc)     -25.29875   -25.29875   -25.29875    -0.00000    -0.00000    -0.00000
  Local     -29.67539   -29.67539   -29.67540     0.00001    -0.00000    -0.00000
  n-local    73.04036    76.53010    81.80848    -0.94854    -0.12418     0.08782
  augment   -11.50926   -11.50926   -11.50927    -0.00000    -0.00000    -0.00000
  Kinetic    52.48984    55.33733    62.24875     0.62160     0.33725    -0.23847
  Fock        0.00000     0.00000     0.00000     0.00000     0.00000     0.00000
  -------------------------------------------------------------------------------------
  Total       0.14539     0.14539     0.14539    -0.00000    -0.00000    -0.00000
  in kB       5.69717     5.69718     5.69717    -0.00000    -0.00000    -0.00000
  external pressure =        5.70 kB  Pullay stress =        0.00 kB


 VOLUME and BASIS-vectors are now :
 -----------------------------------------------------------------------------
  energy-cutoff  :      680.00
  volume of cell :       40.89
      direct lattice vectors                 reciprocal lattice vectors
     3.348898000  0.000000000  1.933487000     0.298605691 -0.105573000  0.000000000
     1.116299000  3.157372000  1.933487000     0.000000000  0.316719094  0.000000000
     0.000000000  0.000000000  3.866975000    -0.149302807 -0.105573020  0.258600069

  length of vectors
     3.866974243  3.866974707  3.866975000     0.316719145  0.316719094  0.316719096


 FORCES acting on ions
    electron-ion (+dipol)            ewald-force                    non-local-force                 convergence-correction
 -----------------------------------------------------------------------------------------------
   0.377E-05 -.693E-05 -.845E-05   -.634E-05 0.116E-04 0.142E-04   0.532E-17 -.442E-16 -.857E-16   0.369E-09 -.632E-09 -.755E-09
   -.377E-05 0.693E-05 0.845E-05   0.634E-05 -.116E-04 -.142E-04   -.619E-17 0.216E-16 0.843E-16   -.369E-09 0.632E-09 0.755E-09
 -----------------------------------------------------------------------------------------------
   -.305E-13 0.263E-13 0.132E-12   0.718E-18 -.107E-15 0.148E-15   -.862E-18 -.227E-16 -.135E-17   -.906E-15 -.208E-14 -.160E-14
 
 
 POSITION                                       TOTAL-FORCE (eV/Angst)
 -----------------------------------------------------------------------------------
      1.11630      0.78934      1.93349         0.000000      0.000000      0.000000
      0.00000      0.00000      0.00000        -0.000000     -0.000000     -0.000000
 -----------------------------------------------------------------------------------
    total drift:                               -0.000000      0.000000      0.000000


--------------------------------------------------------------------------------------------------------



  FREE ENERGIE OF THE ION-ELECTRON SYSTEM (eV)
  ---------------------------------------------------
  free  energy   TOTEN  =       -10.66629988 eV

  energy  without entropy=      -10.66629988  energy(sigma->0) =      -10.66629988
 


--------------------------------------------------------------------------------------------------------


    POTLOK:  cpu time    0.2445: real time    0.2450


--------------------------------------------------------------------------------------------------------


 -----------------------------------------------------------------------------
|                                                                             |
|           W    W    AA    RRRRR   N    N  II  N    N   GGGG   !!!           |
|           W    W   A  A   R    R  NN   N  II  NN   N  G    G  !!!           |
|           W    W  A    A  R    R  N N  N  II  N N  N  G       !!!           |
|           W WW W  AAAAAA  RRRRR   N  N N  II  N  N N  G  GGG   !            |
|           WW  WW  A    A  R   R   N   NN  II  N   NN  G    G                |
|           W    W  A    A  R    R  N    N  II  N    N   GGGG   !!!           |
|                                                                             |
|     Linear response in principle supports LREAL = Auto (or                  |
|     LREAL=.TRUE.). However, in some cases we have found that the            |
|     real-space projection is not sufficiently accurate.                     |
|     I strongly recommend that you switch it off by setting                  |
|     LREAL=.FALSE.                                                           |
|                                                                             |
 -----------------------------------------------------------------------------

 
 Found     1 degrees of freedom:
  ----------------------------------------------
 
     directions for atom     1:  x 
 Linear response reoptimize wavefunctions
 Linear response to external field (no local field effect), progress :
  Direction:   1
  LATTYP: Found a face centered cubic cell.
 ALAT       =     5.4687280757
  
  Lattice vectors:
  
 A1 = (   3.3488980000,   0.0000000000,   1.9334870000)
 A2 = (   1.1162990000,   3.1573720000,   1.9334870000)
 A3 = (   0.0000000000,   0.0000000000,   3.8669750000)


Analysis of symmetry for initial positions (statically):
=====================================================================
 Subroutine PRICEL returns:
 Original cell was already a primitive cell.
 

 Routine SETGRP: Setting up the symmetry group for a 
 face centered cubic supercell.


 Subroutine GETGRP returns: Found 48 space group operations
 (whereof 24 operations were pure point group operations)
 out of a pool of 48 trial point group operations.


The static configuration has the point symmetry T_d .
 The point group associated with its full space group is O_h .


Analysis of symmetry for dynamics (positions and initial velocities):
=====================================================================
 Subroutine PRICEL returns:
 Original cell was already a primitive cell.
 

 Routine SETGRP: Setting up the symmetry group for a 
 face centered cubic supercell.


 Subroutine GETGRP returns: Found  2 space group operations
 (whereof  2 operations were pure point group operations)
 out of a pool of 48 trial point group operations.


The dynamic configuration has the point symmetry C_1h.


Analysis of structural, dynamic, and magnetic symmetry:
=====================================================================
 Subroutine PRICEL returns:
 Original cell was already a primitive cell.
 

 Routine SETGRP: Setting up the symmetry group for a 
 face centered cubic supercell.


 Subroutine GETGRP returns: Found  2 space group operations
 (whereof  2 operations were pure point group operations)
 out of a pool of 48 trial point group operations.


The overall configuration has the point symmetry C_1h.


 Subroutine INISYM returns: Found  2 space group operations
 (whereof  2 operations are pure point group operations),
 and found     1 'primitive' translations



----------------------------------------- Iteration    1(   1)  ---------------------------------------


   POT+DIJ:  cpu time    0.5024: real time    0.5045
    HAMIL1:  cpu time    0.1083: real time    0.1142
    LRDIAG:  cpu time    0.0122: real time    0.0181
    LRDIIS:  cpu time    0.1615: real time    0.1716
    LRDIAG:  cpu time    0.0065: real time    0.0066
    --------------------------------------------
      LOOP:  cpu time    0.7913: real time    0.8153

 Free energy of the ion-electron system (eV)
  ---------------------------------------------------
  -Hartree energ DENC   =         0.00000000
  -V(xc)+E(xc)   XCENC  =         0.00000000
  PAW double counting   =         0.00000000        0.00000000
  entropy T*S    EENTRO =         0.00000000
  eigenvalues    EBANDS =        -0.43491197
  ---------------------------------------------------
  free energy    TOTEN  =        -0.43491197 eV

  energy without entropy =       -0.43491197


----------------------------------------- Iteration    1(   2)  ---------------------------------------


   POT+DIJ:  cpu time    0.5231: real time    0.5674
    HAMIL1:  cpu time    0.1183: real time    0.1312
    LRDIAG:  cpu time    0.0111: real time    0.0111
    LRDIIS:  cpu time    0.1449: real time    0.1453
    LRDIAG:  cpu time    0.0072: real time    0.0072
    --------------------------------------------
      LOOP:  cpu time    0.8050: real time    0.8624

 Free energy of the ion-electron system (eV)
  ---------------------------------------------------
  -Hartree energ DENC   =         0.00000000
  -V(xc)+E(xc)   XCENC  =         0.00000000
  PAW double counting   =         0.00000000        0.00000000
  entropy T*S    EENTRO =         0.00000000
  eigenvalues    EBANDS =        -0.44545999
  ---------------------------------------------------
  free energy    TOTEN  =        -0.44545999 eV

  energy without entropy =       -0.44545999


----------------------------------------- Iteration    1(   3)  ---------------------------------------


   POT+DIJ:  cpu time    0.4948: real time    0.4958
    HAMIL1:  cpu time    0.1072: real time    0.1074
    LRDIAG:  cpu time    0.0109: real time    0.0109
    LRDIIS:  cpu time    0.1599: real time    0.1602
    LRDIAG:  cpu time    0.0059: real time    0.0059
    --------------------------------------------
      LOOP:  cpu time    0.7791: real time    0.7805

 Free energy of the ion-electron system (eV)
  ---------------------------------------------------
  -Hartree energ DENC   =         0.00000000
  -V(xc)+E(xc)   XCENC  =         0.00000000
  PAW double counting   =         0.00000000        0.00000000
  entropy T*S    EENTRO =         0.00000000
  eigenvalues    EBANDS =        -0.44553764
  ---------------------------------------------------
  free energy    TOTEN  =        -0.44553764 eV

  energy without entropy =       -0.44553764


----------------------------------------- Iteration    1(   4)  ---------------------------------------


   POT+DIJ:  cpu time    0.4944: real time    0.4961
    HAMIL1:  cpu time    0.1002: real time    0.1002
    LRDIAG:  cpu time    0.0108: real time    0.0108
    LRDIIS:  cpu time    0.1401: real time    0.1404
    LRDIAG:  cpu time    0.0060: real time    0.0060
    --------------------------------------------
      LOOP:  cpu time    0.7519: real time    0.7538

 Free energy of the ion-electron system (eV)
  ---------------------------------------------------
  -Hartree energ DENC   =         0.00000000
  -V(xc)+E(xc)   XCENC  =         0.00000000
  PAW double counting   =         0.00000000        0.00000000
  entropy T*S    EENTRO =         0.00000000
  eigenvalues    EBANDS =        -0.44553828
  ---------------------------------------------------
  free energy    TOTEN  =        -0.44553828 eV

  energy without entropy =       -0.44553828


------------------------ aborting loop because EDIFF is reached ----------------------------------------


 change of polarisation eV/A/(eV/A) component  1 :     0.891     0.118     0.034
 dielectric tensor                  component  1 :     4.944     0.520     0.152


--------------------------------------------------------------------------------------------------------


 Linear response to external field (no local field effect), progress :
  Direction:   2
  LATTYP: Found a face centered cubic cell.
 ALAT       =     5.4687280757
  
  Lattice vectors:
  
 A1 = (   3.3488980000,   0.0000000000,   1.9334870000)
 A2 = (   1.1162990000,   3.1573720000,   1.9334870000)
 A3 = (   0.0000000000,   0.0000000000,   3.8669750000)


Analysis of symmetry for initial positions (statically):
=====================================================================
 Subroutine PRICEL returns:
 Original cell was already a primitive cell.
 

 Routine SETGRP: Setting up the symmetry group for a 
 face centered cubic supercell.


 Subroutine GETGRP returns: Found 48 space group operations
 (whereof 24 operations were pure point group operations)
 out of a pool of 48 trial point group operations.


The static configuration has the point symmetry T_d .
 The point group associated with its full space group is O_h .


Analysis of symmetry for dynamics (positions and initial velocities):
=====================================================================
 Subroutine PRICEL returns:
 Original cell was already a primitive cell.
 

 Routine SETGRP: Setting up the symmetry group for a 
 face centered cubic supercell.


 Subroutine GETGRP returns: Found  6 space group operations
 (whereof  6 operations were pure point group operations)
 out of a pool of 48 trial point group operations.


The dynamic configuration has the point symmetry C_3v.


Analysis of structural, dynamic, and magnetic symmetry:
=====================================================================
 Subroutine PRICEL returns:
 Original cell was already a primitive cell.
 

 Routine SETGRP: Setting up the symmetry group for a 
 face centered cubic supercell.


 Subroutine GETGRP returns: Found  6 space group operations
 (whereof  6 operations were pure point group operations)
 out of a pool of 48 trial point group operations.


The overall configuration has the point symmetry C_3v.


 Subroutine INISYM returns: Found  6 space group operations
 (whereof  6 operations are pure point group operations),
 and found     1 'primitive' translations



----------------------------------------- Iteration    2(   1)  ---------------------------------------


   POT+DIJ:  cpu time    0.4949: real time    0.4961
    HAMIL1:  cpu time    0.1044: real time    0.1047
    LRDIAG:  cpu time    0.0119: real time    0.0119
    LRDIIS:  cpu time    0.1730: real time    0.1735
    LRDIAG:  cpu time    0.0064: real time    0.0064
    --------------------------------------------
      LOOP:  cpu time    0.7909: real time    0.7931

[...]
      2      -0.3280      0.00000
      3       1.2932      0.00000
      4      -0.9274      0.00000
      5      -1.1150      0.00000
      6       1.1087      0.00000
      7      -0.1255      0.00000
      8       1.2139      0.00000
      9      -0.8192      0.00000
     10      -0.4922      0.00000
     11      -1.3283      0.00000
     12       0.0598      0.00000

 k-point  15 :       0.2500    0.0000    0.5000
  band No.  band energies     occupation 
      1      -0.6723      0.00000
      2       2.1897      0.00000
      3      -2.7347      0.00000
      4       1.0694      0.00000
      5       1.2225      0.00000
      6      -1.2654      0.00000
      7      -0.0570      0.00000
      8      -2.7696      0.00000
      9       1.3469      0.00000
     10       1.8122      0.00000
     11       3.1673      0.00000
     12       1.4702      0.00000

 k-point  16 :       0.2500    0.2500   -0.2500
  band No.  band energies     occupation 
      1      -0.5551      0.00000
      2       1.2058      0.00000
      3       1.1446      0.00000
      4      -1.7129      0.00000
      5      -2.1225      0.00000
      6       2.0607      0.00000
      7      -0.4336      0.00000
      8       0.8720      0.00000
      9      -1.1108      0.00000
     10       0.3356      0.00000
     11      -0.8176      0.00000
     12       1.6496      0.00000

 k-point  17 :       0.5000    0.2500    0.5000
  band No.  band energies     occupation 
      1      -0.5941      0.00000
      2       1.5338      0.00000
      3      -0.1485      0.00000
      4      -0.7854      0.00000
      5      -1.0074      0.00000
      6       0.9519      0.00000
      7      -0.3081      0.00000
      8      -0.3419      0.00000
      9      -0.2915      0.00000
     10       0.8278      0.00000
     11       0.5107      0.00000
     12       1.5898      0.00000

 k-point  18 :       0.2500    0.5000    0.0000
  band No.  band energies     occupation 
      1      -0.0781      0.00000
      2       0.6559      0.00000
      3      -2.5862      0.00000
      4       1.8550      0.00000
      5       2.2301      0.00000
      6      -2.2173      0.00000
      7       0.2512      0.00000
      8      -2.4277      0.00000
      9       1.6385      0.00000
     10       0.9844      0.00000
     11       2.6566      0.00000
     12      -0.1195      0.00000

 k-point  19 :       0.2500   -0.2500   -0.2500
  band No.  band energies     occupation 
      1       1.2274      0.00000
      2      -3.3954      0.00000
      3       1.5902      0.00000
      4       0.6435      0.00000
      5       0.9001      0.00000
      6      -0.7951      0.00000
      7       0.4907      0.00000
      8       1.8976      0.00000
      9      -0.2359      0.00000
     10      -2.1478      0.00000
     11      -2.3496      0.00000
     12      -3.1197      0.00000

 k-point  20 :       0.0000   -0.2500    0.2500
  band No.  band energies     occupation 
      1      -0.3162      0.00000
      2       1.3538      0.00000
      3      -0.0988      0.00000
      4      -1.1763      0.00000
      5      -1.1100      0.00000
      6       1.1500      0.00000
      7      -0.5002      0.00000
      8       0.5165      0.00000
      9      -0.3040      0.00000
     10       0.5679      0.00000
     11      -1.2849      0.00000
     12       1.6247      0.00000

 k-point  21 :       0.2500    0.0000   -0.2500
  band No.  band energies     occupation 
      1       0.3163      0.00000
      2      -1.3537      0.00000
      3       0.0988      0.00000
      4       1.1763      0.00000
      5       1.1100      0.00000
      6      -1.1500      0.00000
      7       0.5003      0.00000
      8      -0.5164      0.00000
      9       0.3041      0.00000
     10      -0.5678      0.00000
     11       1.2851      0.00000
     12      -1.6246      0.00000

 k-point  22 :       0.2500    0.2500    0.5000
  band No.  band energies     occupation 
      1      -0.6325      0.00000
      2       2.7077      0.00000
      3      -0.1976      0.00000
      4      -2.3526      0.00000
      5      -2.2201      0.00000
      6       2.3001      0.00000
      7      -1.0004      0.00000
      8       1.0330      0.00000
      9      -0.6081      0.00000
     10       1.1358      0.00000
     11      -2.5698      0.00000
     12       3.2498      0.00000

 k-point  23 :       0.0000    0.5000    0.5000
  band No.  band energies     occupation 
      1      -1.3291      0.00000
      2       1.3292      0.00000
      3      -0.7054      0.00000
      4       0.7055      0.00000
      5      -1.0185      0.00000
      6       1.0186      0.00000
      7      -0.3238      0.00000
      8       0.3239      0.00000
      9      -0.1489      0.00000
     10       0.1490      0.00000
     11      -1.9494      0.00000
     12       1.9494      0.00000

 k-point  24 :       0.2500   -0.2500    0.5000
  band No.  band energies     occupation 
      1      -1.4350      0.00000
      2       1.4350      0.00000
      3      -0.8507      0.00000
      4       0.8508      0.00000
      5      -1.5327      0.00000
      6       1.5329      0.00000
      7      -0.1057      0.00000
      8       0.1057      0.00000
      9      -0.2472      0.00000
     10       0.2472      0.00000
     11      -0.3956      0.00000
     12       0.3956      0.00000


------------------------ aborting loop because EDIFF is reached ----------------------------------------


    FORLOC:  cpu time    0.0015: real time    0.0015
    FORNL :  cpu time    0.3498: real time    0.3529
    STRESS:  cpu time    1.0472: real time    1.0533
    FORCOR:  cpu time    0.0893: real time    0.0898
    OFIELD:  cpu time    0.0005: real time    0.0005
    FORLOC:  cpu time    0.0014: real time    0.0014
    FORNL :  cpu time    0.3490: real time    0.3518
    STRESS:  cpu time    1.1034: real time    1.1057
    FORCOR:  cpu time    0.0888: real time    0.0893
    OFIELD:  cpu time    0.0005: real time    0.0005
    FORLOC:  cpu time    0.0015: real time    0.0015
    FORNL :  cpu time    0.3307: real time    0.3315
    STRESS:  cpu time    1.0053: real time    1.0073
    FORCOR:  cpu time    0.0891: real time    0.0895
    OFIELD:  cpu time    0.0005: real time    0.0005
    FORLOC:  cpu time    0.0014: real time    0.0014
    FORNL :  cpu time    0.3357: real time    0.3364
    STRESS:  cpu time    0.9949: real time    0.9969
    FORCOR:  cpu time    0.0906: real time    0.0910
    OFIELD:  cpu time    0.0006: real time    0.0006

 INTERNAL STRAIN TENSOR  FOR ION    1  DIRECTION 1   (eV/Angst):
 -----------------------------------------------------------------------------
     7.04006 -5.05711 -0.00000
    -4.87608  0.00112  0.00000
    -0.00000  0.00000 -7.02861


 POSITION                   FORCE-CONSTANT FOR ION    1 DIRECTION 1 (eV/Angst/Angst)
 -----------------------------------------------------------------------------------
      1.11630      0.78934      1.93349       -13.754066     -0.000959      0.000002
      0.00000      0.00000      0.00000        13.754066      0.000959     -0.000002
 -----------------------------------------------------------------------------------
    total drift:                                0.000000      0.000000      0.000000


 BORN EFFECTIVE CHARGE FOR ION    1 DIRECTION 1 :  -0.113   0.002   0.000
                   rigid augmentation           :   0.226   0.000  -0.000
                   ionic contribution           :   4.000   0.000  -0.000
                   Berry contribution           :  -4.339   0.002   0.000


--------------------------------------------------------------------------------------------------------


  LATTYP: Found a face centered cubic cell.
 ALAT       =     5.4687280757
  
  Lattice vectors:
  
 A1 = (   3.3488980000,   0.0000000000,   1.9334870000)
 A2 = (   1.1162990000,   3.1573720000,   1.9334870000)
 A3 = (   0.0000000000,   0.0000000000,   3.8669750000)


Analysis of symmetry for initial positions (statically):
=====================================================================
 Subroutine PRICEL returns:
 Original cell was already a primitive cell.
 

 Routine SETGRP: Setting up the symmetry group for a 
 face centered cubic supercell.


 Subroutine GETGRP returns: Found 48 space group operations
 (whereof 24 operations were pure point group operations)
 out of a pool of 48 trial point group operations.


The static configuration has the point symmetry T_d .
 The point group associated with its full space group is O_h .


Analysis of symmetry for dynamics (positions and initial velocities):
=====================================================================
 Subroutine PRICEL returns:
 Original cell was already a primitive cell.
 

 Routine SETGRP: Setting up the symmetry group for a 
 face centered cubic supercell.


 Subroutine GETGRP returns: Found 48 space group operations
 (whereof 24 operations were pure point group operations)
 out of a pool of 48 trial point group operations.


The dynamic configuration has the point symmetry T_d .
 The point group associated with its full space group is O_h .


Analysis of structural, dynamic, and magnetic symmetry:
=====================================================================
 Subroutine PRICEL returns:
 Original cell was already a primitive cell.
 

 Routine SETGRP: Setting up the symmetry group for a 
 face centered cubic supercell.


 Subroutine GETGRP returns: Found 48 space group operations
 (whereof 24 operations were pure point group operations)
 out of a pool of 48 trial point group operations.


The overall configuration has the point symmetry T_d .
 The point group associated with its full space group is O_h .


 Subroutine INISYM returns: Found 48 space group operations
 (whereof 24 operations are pure point group operations),
 and found     1 'primitive' translations

 -----------------------------------------------------------------------------
|                                                                             |
|           W    W    AA    RRRRR   N    N  II  N    N   GGGG   !!!           |
|           W    W   A  A   R    R  NN   N  II  NN   N  G    G  !!!           |
|           W    W  A    A  R    R  N N  N  II  N N  N  G       !!!           |
|           W WW W  AAAAAA  RRRRR   N  N N  II  N  N N  G  GGG   !            |
|           WW  WW  A    A  R   R   N   NN  II  N   NN  G    G                |
|           W    W  A    A  R    R  N    N  II  N    N   GGGG   !!!           |
|                                                                             |
|     The requested file  could not be found or opened for reading            |
|     k-point information. Automatic k-point generation is used as a          |
|     fallback, which may lead to unwanted results.                           |
|                                                                             |
 -----------------------------------------------------------------------------



--------------------------------------------------------------------------------------------------------




 MACROSCOPIC STATIC DIELECTRIC TENSOR (including local field effects in DFT)
 ------------------------------------------------------
          11.415395    -0.000001    -0.000002
          -0.000001    11.415400    -0.000001
          -0.000002    -0.000001    11.415399
 ------------------------------------------------------


 PIEZOELECTRIC TENSOR (including local field effects)  for field in x, y, z        (e  Angst)
          XX          YY          ZZ          XY          YZ          ZX
  --------------------------------------------------------------------------------
  x    -0.00000     0.00000     0.00000    -0.00000     0.00000    -0.00000
  y    -0.00000     0.00000    -0.00000    -0.00000     0.00000     0.00000
  z    -0.00000    -0.00000    -0.00000    -0.00000    -0.00000     0.00000

 PIEZOELECTRIC TENSOR (including local field effects)  for field in x, y, z        (C/m^2)
          XX          YY          ZZ          XY          YZ          ZX
  --------------------------------------------------------------------------------
  x    -0.00000     0.00000     0.00000    -0.00000     0.00000    -0.00000
  y    -0.00000     0.00000    -0.00000    -0.00000     0.00000     0.00000
  z    -0.00000    -0.00000    -0.00000    -0.00000    -0.00000     0.00000
 
 BORN EFFECTIVE CHARGES (including local field effects) (in |e|, cummulative output)
 ---------------------------------------------------------------------------------
 ion    1
    1     0.00000     0.00000     0.00000
    2    -0.00000    -0.00000    -0.00000
    3     0.00000     0.00000     0.00000
 ion    2
    1    -0.00000     0.00000    -0.00000
    2     0.00000     0.00000    -0.00000
    3     0.00000     0.00000    -0.00000

 INTERNAL STRAIN TENSOR FOR ION    1 for displacements in x,y,z  (eV/Angst):
          X           Y           Z          XY          YZ          ZX
  --------------------------------------------------------------------------------
  x     7.03061    -0.00000    -7.03061    -4.97139     0.00000    -0.00000
  y    -4.97139     9.94279    -4.97139    -0.00000    -0.00000     0.00000
  z    -0.00000    -0.00000     0.00000     0.00000    -4.97139    -7.03061

 INTERNAL STRAIN TENSOR FOR ION    2 for displacements in x,y,z  (eV/Angst):
          X           Y           Z          XY          YZ          ZX
  --------------------------------------------------------------------------------
  x    -7.03061     0.00000     7.03061     4.97139    -0.00000     0.00000
  y     4.97139    -9.94279     4.97139     0.00000     0.00000    -0.00000
  z     0.00000     0.00000    -0.00000    -0.00000     4.97139     7.03061


--------------------------------------------------------------------------------------------------------


 
 SECOND DERIVATIVES (NOT SYMMETRIZED)
 ------------------------------------
               1X          1Y          1Z          2X          2Y          2Z 
  1X   -13.754158    0.000001    0.000002   13.754158   -0.000001   -0.000002
  1Y     0.000001  -13.754164    0.000001   -0.000001   13.754164   -0.000001
  1Z     0.000002    0.000001  -13.754163   -0.000002   -0.000001   13.754163
  2X    13.754158   -0.000001   -0.000002  -13.754158    0.000001    0.000002
  2Y    -0.000001   13.754164   -0.000001    0.000001  -13.754164    0.000001
  2Z    -0.000002   -0.000001   13.754163    0.000002    0.000001  -13.754163
 
 
 Eigenvectors and eigenvalues of the dynamical matrix
 ----------------------------------------------------
 
 
   1 f  =   15.471971 THz    97.213258 2PiTHz  516.089386 cm-1    63.986900 meV
             X         Y         Z           dx          dy          dz
      1.116299  0.789343  1.933487     0.007612   -0.589224    0.390841  
      0.000000  0.000000  0.000000    -0.007612    0.589224   -0.390841  
 
   2 f  =   15.471969 THz    97.213251 2PiTHz  516.089351 cm-1    63.986896 meV
             X         Y         Z           dx          dy          dz
      1.116299  0.789343  1.933487    -0.313791    0.347449    0.529919  
      0.000000  0.000000  0.000000     0.313791   -0.347449   -0.529919  
 
   3 f  =   15.471966 THz    97.213229 2PiTHz  516.089232 cm-1    63.986881 meV
             X         Y         Z           dx          dy          dz
      1.116299  0.789343  1.933487    -0.633622   -0.179147   -0.257738  
      0.000000  0.000000  0.000000     0.633622    0.179147    0.257738  
 
   4 f  =    0.000000 THz     0.000002 2PiTHz    0.000008 cm-1     0.000001 meV
             X         Y         Z           dx          dy          dz
      1.116299  0.789343  1.933487     0.006296    0.071673    0.703437  
      0.000000  0.000000  0.000000     0.006296    0.071673    0.703437  
 
   5 f  =    0.000000 THz     0.000000 2PiTHz    0.000003 cm-1     0.000000 meV
             X         Y         Z           dx          dy          dz
      1.116299  0.789343  1.933487     0.277397    0.646819   -0.068387  
      0.000000  0.000000  0.000000     0.277397    0.646819   -0.068387  
 
   6 f/i=    0.000000 THz     0.000001 2PiTHz    0.000004 cm-1     0.000000 meV
             X         Y         Z           dx          dy          dz
      1.116299  0.789343  1.933487     0.650393   -0.276566    0.022358  
      0.000000  0.000000  0.000000     0.650393   -0.276566    0.022358  
 


--------------------------------------------------------------------------------------------------------




 MACROSCOPIC STATIC DIELECTRIC TENSOR IONIC CONTRIBUTION
 ------------------------------------------------------
           0.000000    -0.000000     0.000000
          -0.000000     0.000000    -0.000000
           0.000000    -0.000000     0.000000
 ------------------------------------------------------


 ELASTIC MODULI CONTR FROM IONIC RELAXATION (kBar)
 Direction    XX          YY          ZZ          XY          YZ          ZX
 --------------------------------------------------------------------------------
 XX        -211.2295    140.8197     70.4099     99.5745     -0.0000      0.0000
 YY         140.8197   -281.6395    140.8197      0.0000      0.0000     -0.0000
 ZZ          70.4099    140.8197   -211.2296    -99.5746      0.0000      0.0001
 XY          99.5745      0.0000    -99.5746    -70.4098      0.0000     -0.0000
 YZ          -0.0000      0.0000      0.0000      0.0000    -70.4099    -99.5746
 ZX           0.0000     -0.0000      0.0001     -0.0000    -99.5746   -140.8197
 --------------------------------------------------------------------------------


 PIEZOELECTRIC TENSOR IONIC CONTR  for field in x, y, z        (C/m^2)
          XX          YY          ZZ          XY          YZ          ZX
  --------------------------------------------------------------------------------
  x     0.00000    -0.00000    -0.00000    -0.00000    -0.00000    -0.00000
  y     0.00000    -0.00000     0.00000     0.00000     0.00000     0.00000
  z    -0.00000     0.00000    -0.00000    -0.00000    -0.00000    -0.00000


--------------------------------------------------------------------------------------------------------


     LOOP+:  cpu time  107.7379: real time  111.9307
    4ORBIT:  cpu time    0.0000: real time    0.0000



 total charge

# of ion       s       p       d       tot
------------------------------------------
    1        0.737   0.945   0.000   1.683
    2        0.737   0.945   0.000   1.683
--------------------------------------------------
tot          1.475   1.891   0.000   3.366



 magnetization (x)

# of ion       s       p       d       tot
------------------------------------------
    1       -0.000   0.000   0.000  -0.000
    2       -0.000   0.000   0.000  -0.000
--------------------------------------------------
tot         -0.000   0.000   0.000  -0.000
 
 BZINTS: Fermi energy:    6.394216;    8.000000 electrons
         Band energy: 0.539760E+01;  BLOECHL correction:   -0.000000

 total amount of memory used by VASP MPI-rank0    46517. kBytes
=======================================================================

   base      :      30000. kBytes
   nonlr-proj:       1161. kBytes
   fftplans  :       3408. kBytes
   grid      :      10637. kBytes
   one-center:         12. kBytes
   wavefun   :       1299. kBytes
 
  
  
 General timing and accounting informations for this job:
 ========================================================
  
                  Total CPU time used (sec):      112.998
                            User time (sec):      109.354
                          System time (sec):        3.644
                         Elapsed time (sec):      117.369
  
                   Maximum memory used (kb):    87654400.
                   Average memory used (kb):          N/A
  
                          Minor page faults:       297179
                          Major page faults:         1044
                 Voluntary context switches:           52
