<?xml version="1.0" encoding="ISO-8859-1"?>
<modeling>
 <generator>
  <i name="program" type="string">vasp </i>
  <i name="version" type="string">6.2.1  </i>
  <i name="subversion" type="string">16May21 (build Oct 27 2021 18:14:32) complex                          parallel </i>
  <i name="platform" type="string">LinuxIFC </i>
  <i name="date" type="string">2021 10 29 </i>
  <i name="time" type="string">09:25:16 </i>
 </generator>
 <incar>
  <i type="string" name="PREC">Accurate</i>
  <i type="string" name="ALGO">Normal</i>
  <i type="int" name="ISPIN">     2</i>
  <i type="int" name="NELM">   200</i>
  <i type="int" name="IBRION">     8</i>
  <i name="EDIFF">      0.00001000</i>
  <i name="EDIFFG">     -0.02000000</i>
  <i type="int" name="NSW">     1</i>
  <i type="int" name="ISIF">     3</i>
  <i name="ENCUT">    680.00000000</i>
  <i name="ENAUG">   1360.00000000</i>
  <v name="MAGMOM">      0.60000000      0.60000000</v>
  <i type="string" name="LREAL">Auto</i>
  <i type="int" name="ISMEAR">    -5</i>
  <i name="SIGMA">      0.05000000</i>
  <i name="KSPACING">      0.50000000</i>
  <i type="logical" name="LWAVE"> F  </i>
  <i type="logical" name="LCHARG"> T  </i>
  <i type="logical" name="LVTOT"> T  </i>
  <i type="int" name="LORBIT">    11</i>
  <i type="logical" name="LELF"> T  </i>
  <i type="logical" name="LASPH"> T  </i>
  <i type="logical" name="LAECHG"> T  </i>
  <i type="logical" name="LPEAD"> T  </i>
  <i type="logical" name="LEPSILON"> T  </i>
  <i type="logical" name="LMIXTAU"> T  </i>
 </incar>
 <primitive_cell>
  <structure name="primitive_cell" >
   <crystal>
    <varray name="basis" >
     <v>       3.34889800       0.00000000       1.93348700 </v>
     <v>       1.11629900       3.15737200       1.93348700 </v>
     <v>       0.00000000       0.00000000       3.86697500 </v>
    </varray>
    <i name="volume">     40.88829843 </i>
    <varray name="rec_basis" >
     <v>       0.29860569      -0.10557300       0.00000000 </v>
     <v>       0.00000000       0.31671909       0.00000000 </v>
     <v>      -0.14930281      -0.10557302       0.25860007 </v>
    </varray>
   </crystal>
   <varray name="positions" >
    <v>       0.25000000       0.25000000       0.25000000 </v>
    <v>       0.00000000       0.00000000       0.00000000 </v>
   </varray>
  </structure>
  <varray name="primitive_index" >
   <v type="int" >        1 </v>
   <v type="int" >        2 </v>
  </varray>
 </primitive_cell>
 <kpoints>
  <generation param="Gamma">
   <v type="int" name="divisions">       4        4        4 </v>
   <v name="usershift">      0.00000000       0.00000000       0.00000000 </v>
   <v name="genvec1">      0.25000000      -0.00000000       0.00000000 </v>
   <v name="genvec2">      0.00000000       0.25000000       0.00000000 </v>
   <v name="genvec3">      0.00000000       0.00000000       0.25000000 </v>
   <v name="shift">      0.00000000       0.00000000       0.00000000 </v>
  </generation>
  <varray name="kpointlist" >
   <v>       0.00000000       0.00000000       0.00000000 </v>
   <v>       0.25000000       0.00000000       0.00000000 </v>
   <v>       0.50000000       0.00000000       0.00000000 </v>
   <v>       0.25000000       0.25000000       0.00000000 </v>
   <v>       0.50000000       0.25000000       0.00000000 </v>
   <v>      -0.25000000       0.25000000       0.00000000 </v>
   <v>       0.50000000       0.50000000       0.00000000 </v>
   <v>      -0.25000000       0.50000000       0.25000000 </v>
  </varray>
  <varray name="weights" >
   <v>       0.01562500 </v>
   <v>       0.12500000 </v>
   <v>       0.06250000 </v>
   <v>       0.09375000 </v>
   <v>       0.37500000 </v>
   <v>       0.18750000 </v>
   <v>       0.04687500 </v>
   <v>       0.09375000 </v>
  </varray>
  <varray name="tetrahedronlist"  type="int" >
   <v type="int" >       24        1        2        2        4 </v>
   <v type="int" >       48        2        4        5        6 </v>
   <v type="int" >       48        2        3        5        6 </v>
   <v type="int" >       24        2        2        4        6 </v>
   <v type="int" >       48        3        5        5        6 </v>
   <v type="int" >       24        4        5        5        7 </v>
   <v type="int" >       24        4        5        5        6 </v>
   <v type="int" >       48        5        5        7        8 </v>
   <v type="int" >       96        5        5        6        8 </v>
  </varray>
  <i name="volumeweight">      0.00260417 </i>
 </kpoints>
 <parameters>
  <separator name="general" >
   <i type="string" name="SYSTEM">unknown system</i>
   <i type="logical" name="LCOMPAT"> F  </i>
  </separator>
  <separator name="electronic" >
   <i type="string" name="PREC">accura</i>
   <i name="ENMAX">    680.00000000</i>
   <i name="ENAUG">   1360.00000000</i>
   <i name="EDIFF">      0.00001000</i>
   <i type="int" name="IALGO">    38</i>
   <i type="int" name="IWAVPR">    11</i>
   <i type="int" name="NBANDS">    12</i>
   <i type="int" name="NBANDSLOW">    -1</i>
   <i type="int" name="NBANDSHIGH">    -1</i>
   <i name="NELECT">      8.00000000</i>
   <i type="int" name="TURBO">     0</i>
   <i type="int" name="IRESTART">     0</i>
   <i type="int" name="NREBOOT">     0</i>
   <i type="int" name="NMIN">     0</i>
   <i name="EREF">      0.00000000</i>
   <separator name="electronic smearing" >
    <i type="int" name="ISMEAR">    -5</i>
    <i name="SIGMA">      0.05000000</i>
    <i name="KSPACING">      0.50000000</i>
    <i type="logical" name="KGAMMA"> T  </i>
    <i type="logical" name="KBLOWUP"> T  </i>
   </separator>
   <separator name="electronic projectors" >
    <i type="logical" name="LREAL"> T  </i>
    <v name="ROPT">     -0.00025000</v>
    <i type="int" name="LMAXPAW">  -100</i>
    <i type="int" name="LMAXMIX">     2</i>
    <i type="logical" name="NLSPLINE"> F  </i>
   </separator>
   <separator name="electronic startup" >
    <i type="int" name="ISTART">     0</i>
    <i type="int" name="ICHARG">     2</i>
    <i type="int" name="INIWAV">     1</i>
   </separator>
   <separator name="electronic spin" >
    <i type="int" name="ISPIN">     2</i>
    <i type="logical" name="LNONCOLLINEAR"> F  </i>
    <v name="MAGMOM">      0.60000000      0.60000000</v>
    <i name="NUPDOWN">     -1.00000000</i>
    <i type="logical" name="LSORBIT"> F  </i>
    <v name="SAXIS">      0.00000000      0.00000000      1.00000000</v>
    <i type="logical" name="LSPIRAL"> F  </i>
    <v name="QSPIRAL">      0.00000000      0.00000000      0.00000000</v>
    <i type="logical" name="LZEROZ"> F  </i>
   </separator>
   <separator name="electronic exchange-correlation" >
    <i type="logical" name="LASPH"> T  </i>
    <i type="logical" name="LMETAGGA"> F  </i>
   </separator>
   <separator name="electronic convergence" >
    <i type="int" name="NELM">   200</i>
    <i type="int" name="NELMDL">    -5</i>
    <i type="int" name="NELMIN">     2</i>
    <i name="ENINI">    680.00000000</i>
    <separator name="electronic convergence detail" >
     <i type="logical" name="LDIAG"> T  </i>
     <i type="logical" name="LSUBROT"> F  </i>
     <i name="WEIMIN">      0.00100000</i>
     <i name="EBREAK">      0.00000021</i>
     <i name="DEPER">      0.30000000</i>
     <i type="int" name="NRMM">     4</i>
     <i name="TIME">      0.40000000</i>
    </separator>
   </separator>
   <separator name="electronic mixer" >
    <i name="AMIX">      0.40000000</i>
    <i name="BMIX">      1.00000000</i>
    <i name="AMIN">      0.10000000</i>
    <i name="AMIX_MAG">      1.60000000</i>
    <i name="BMIX_MAG">      1.00000000</i>
    <separator name="electronic mixer details" >
     <i type="int" name="IMIX">     4</i>
     <i type="logical" name="MIXFIRST"> F  </i>
     <i type="int" name="MAXMIX">   -45</i>
     <i name="WC">    100.00000000</i>
     <i type="int" name="INIMIX">     1</i>
     <i type="int" name="MIXPRE">     1</i>
     <i type="int" name="MREMOVE">     5</i>
    </separator>
   </separator>
   <separator name="electronic dipolcorrection" >
    <i type="logical" name="LDIPOL"> F  </i>
    <i type="logical" name="LMONO"> F  </i>
    <i type="int" name="IDIPOL">     0</i>
    <i name="EPSILON">      1.00000000</i>
    <v name="DIPOL">   -100.00000000   -100.00000000   -100.00000000</v>
    <i name="EFIELD">      0.00000000</i>
   </separator>
  </separator>
  <separator name="grids" >
   <i type="int" name="NGX">    36</i>
   <i type="int" name="NGY">    36</i>
   <i type="int" name="NGZ">    36</i>
   <i type="int" name="NGXF">    72</i>
   <i type="int" name="NGYF">    72</i>
   <i type="int" name="NGZF">    72</i>
   <i type="logical" name="ADDGRID"> F  </i>
  </separator>
  <separator name="ionic" >
   <i type="int" name="NSW">     1</i>
   <i type="int" name="IBRION">     8</i>
   <i type="int" name="MDALGO">     0</i>
   <i type="int" name="ISIF">     3</i>
   <i name="PSTRESS">      0.00000000</i>
   <i name="EDIFFG">     -0.02000000</i>
   <i type="int" name="NFREE">     0</i>
   <i name="POTIM">      0.50000000</i>
   <i name="SMASS">     -3.00000000</i>
   <i name="SCALEE">      1.00000000</i>
  </separator>
  <separator name="ionic md" >
   <i name="TEBEG">      0.00010000</i>
   <i name="TEEND">      0.00010000</i>
   <i type="int" name="NBLOCK">     1</i>
   <i type="int" name="KBLOCK">     1</i>
   <i type="int" name="NPACO">   256</i>
   <i name="APACO">     16.00000000</i>
  </separator>
  <separator name="symmetry" >
   <i type="int" name="ISYM">     2</i>
   <i name="SYMPREC">      0.00001000</i>
  </separator>
  <separator name="dos" >
   <i type="int" name="LORBIT">    11</i>
   <v name="RWIGS">     -1.00000000</v>
   <i type="int" name="NEDOS">   301</i>
   <i name="EMIN">     10.00000000</i>
   <i name="EMAX">    -10.00000000</i>
   <i name="EFERMI">      0.00000000</i>
  </separator>
  <separator name="writing" >
   <i type="int" name="NWRITE">     2</i>
   <i type="logical" name="LWAVE"> F  </i>
   <i type="logical" name="LDOWNSAMPLE"> F  </i>
   <i type="logical" name="LCHARG"> T  </i>
   <i type="logical" name="LPARD"> F  </i>
   <i type="logical" name="LVTOT"> T  </i>
   <i type="logical" name="LVHAR"> F  </i>
   <i type="logical" name="LELF"> T  </i>
   <i type="logical" name="LOPTICS"> F  </i>
   <v name="STM">      0.00000000      0.00000000      0.00000000      0.00000000      0.00000000      0.00000000      0.00000000</v>
  </separator>
  <separator name="performance" >
   <i type="int" name="NPAR">     4</i>
   <i type="int" name="NSIM">     4</i>
   <i type="int" name="NBLK">    -1</i>
   <i type="logical" name="LPLANE"> T  </i>
   <i type="logical" name="LSCALAPACK"> F  </i>
   <i type="logical" name="LSCAAWARE"> F  </i>
   <i type="logical" name="LSCALU"> F  </i>
   <i type="logical" name="LASYNC"> F  </i>
   <i type="logical" name="LORBITALREAL"> F  </i>
  </separator>
  <separator name="miscellaneous" >
   <i type="int" name="IDIOT">     3</i>
   <i type="int" name="PHON_NSTRUCT">    -1</i>
   <i type="logical" name="LMUSIC"> F  </i>
   <v name="POMASS">     28.08500000</v>
   <v name="DARWINR">      0.00000000</v>
   <v name="DARWINV">      1.00000000</v>
   <i type="logical" name="LCORR"> T  </i>
  </separator>
  <i type="logical" name="GGA_COMPAT"> T  </i>
  <i type="logical" name="LBERRY"> F  </i>
  <i type="int" name="ICORELEVEL">     0</i>
  <i type="logical" name="LDAU"> F  </i>
  <i type="int" name="I_CONSTRAINED_M">     0</i>
  <separator name="electronic exchange-correlation" >
   <i type="string" name="GGA">--</i>
   <i type="int" name="VOSKOWN">     0</i>
   <i type="logical" name="LHFCALC"> F  </i>
   <i type="string" name="PRECFOCK"></i>
   <i type="logical" name="LSYMGRAD"> F  </i>
   <i type="logical" name="LHFONE"> F  </i>
   <i type="logical" name="LRHFCALC"> F  </i>
   <i type="logical" name="LTHOMAS"> F  </i>
   <i type="logical" name="LMODELHF"> F  </i>
   <i type="logical" name="LFOCKACE"> F  </i>
   <i name="ENCUT4O">     -1.00000000</i>
   <i type="int" name="EXXOEP">     0</i>
   <i type="int" name="FOURORBIT">     0</i>
   <i name="AEXX">      0.00000000</i>
   <i name="HFALPHA">      0.00000000</i>
   <i name="MCALPHA">      0.00000000</i>
   <i name="ALDAX">      1.00000000</i>
   <i name="AGGAX">      1.00000000</i>
   <i name="ALDAC">      1.00000000</i>
   <i name="AGGAC">      1.00000000</i>
   <i type="int" name="NKREDX">     1</i>
   <i type="int" name="NKREDY">     1</i>
   <i type="int" name="NKREDZ">     1</i>
   <i type="logical" name="SHIFTRED"> F  </i>
   <i type="logical" name="ODDONLY"> F  </i>
   <i type="logical" name="EVENONLY"> F  </i>
   <i type="int" name="LMAXFOCK">     0</i>
   <i type="int" name="NMAXFOCKAE">     0</i>
   <i type="logical" name="LFOCKAEDFT"> F  </i>
   <i name="HFSCREEN">      0.00000000</i>
   <i name="HFSCREENC">      0.00000000</i>
   <i type="int" name="NBANDSGWLOW">     0</i>
  </separator>
  <separator name="vdW DFT" >
   <i type="logical" name="LUSE_VDW"> F  </i>
   <i name="Zab_VDW">     -0.84910000</i>
   <i name="PARAM1">      0.12340000</i>
   <i name="PARAM2">      1.00000000</i>
   <i name="PARAM3">      0.00000000</i>
  </separator>
  <separator name="model GW" >
   <i type="int" name="MODEL_GW">     0</i>
   <i name="MODEL_EPS0">     12.26648953</i>
   <i name="MODEL_ALPHA">      1.00000000</i>
  </separator>
  <separator name="linear response parameters" >
   <i type="logical" name="LEPSILON"> T  </i>
   <i type="logical" name="LRPA"> F  </i>
   <i type="logical" name="LNABLA"> F  </i>
   <i type="logical" name="LVEL"> F  </i>
   <i type="int" name="KINTER">     0</i>
   <i name="CSHIFT">      0.10000000</i>
   <i name="OMEGAMAX">     -1.00000000</i>
   <i name="DEG_THRESHOLD">      0.00200000</i>
   <i name="RTIME">     -0.10000000</i>
   <i name="WPLASMAI">      0.00000000</i>
   <v name="DFIELD">      0.00000000      0.00000000      0.00000000</v>
   <v name="WPLASMA">      0.00000000      0.00000000      0.00000000      0.00000000      0.00000000      0.00000000      0.00000000      0.00000000      0.00000000</v>
  </separator>
  <separator name="orbital magnetization" >
   <i type="logical" name="NUCIND"> F  </i>
   <v name="MAGPOS">      0.00000000      0.00000000      0.00000000</v>
   <i type="logical" name="LNICSALL"> T  </i>
   <i type="logical" name="ORBITALMAG"> F  </i>
   <i type="logical" name="LMAGBLOCH"> F  </i>
   <i type="logical" name="LCHIMAG"> F  </i>
   <i type="logical" name="LGAUGE"> T  </i>
   <i type="int" name="MAGATOM">     0</i>
   <v name="MAGDIPOL">      0.00000000      0.00000000      0.00000000</v>
   <v name="AVECCONST">      0.00000000      0.00000000      0.00000000</v>
  </separator>
  <separator name="response functions" >
   <i type="logical" name="LFINITE_TEMPERATURE"> F  </i>
   <i type="logical" name="LADDER"> F  </i>
   <i type="logical" name="LRPAFORCE"> F  </i>
   <i type="logical" name="LFXC"> F  </i>
   <i type="logical" name="LHARTREE"> T  </i>
   <i type="int" name="IBSE">     0</i>
   <v type="int" name="KPOINT">    -1     0     0     0</v>
   <i type="logical" name="LTCTC"> F  </i>
   <i type="logical" name="LTCTE"> F  </i>
   <i type="logical" name="LTETE"> F  </i>
   <i type="logical" name="LTRIPLET"> F  </i>
   <i type="logical" name="LFXCEPS"> F  </i>
   <i type="logical" name="LFXHEG"> F  </i>
   <i type="int" name="NATURALO">     2</i>
   <i type="logical" name="LHOLEGF"> F  </i>
   <i type="logical" name="L2ORDER"> F  </i>
   <i type="logical" name="LDMP1"> F  </i>
   <i type="logical" name="LMP2LT"> F  </i>
   <i type="logical" name="LSMP2LT"> F  </i>
   <i type="logical" name="LGWLF"> F  </i>
   <i name="ENCUTGW">     -2.00000000</i>
   <i name="ENCUTGWSOFT">     -2.00000000</i>
   <i name="ENCUTLF">     -1.00000000</i>
   <i type="logical" name="LESF_SPLINES"> F  </i>
   <i type="int" name="LMAXMP2">    -1</i>
   <i name="SCISSOR">      0.00000000</i>
   <i type="int" name="NOMEGA">     0</i>
   <i type="int" name="NOMEGAR">     0</i>
   <i type="int" name="NBANDSGW">    -1</i>
   <i type="int" name="NBANDSO">    -1</i>
   <i type="int" name="NBANDSV">    -1</i>
   <i type="int" name="NELM">   200</i>
   <i type="int" name="NELMHF">     1</i>
   <i type="int" name="DIM">     3</i>
   <i type="int" name="IESPILON">     4</i>
   <i type="int" name="ANTIRES">     0</i>
   <i name="OMEGAMAX">    -30.00000000</i>
   <i name="OMEGAMIN">    -30.00000000</i>
   <i name="OMEGATL">   -200.00000000</i>
   <i type="int" name="OMEGAGRID">     0</i>
   <i name="CSHIFT">     -0.10000000</i>
   <i type="logical" name="LSELFENERGY"> F  </i>
   <i type="logical" name="LSPECTRAL"> F  </i>
   <i type="logical" name="LSPECTRALGW"> F  </i>
   <i type="logical" name="LSINGLES"> F  </i>
   <i type="logical" name="LFERMIGW"> F  </i>
   <i type="logical" name="ODDONLYGW"> F  </i>
   <i type="logical" name="EVENONLYGW"> F  </i>
   <i type="int" name="NKREDLFX">     1</i>
   <i type="int" name="NKREDLFY">     1</i>
   <i type="int" name="NKREDLFZ">     1</i>
   <i type="int" name="MAXMEM">  2800</i>
   <i type="int" name="TELESCOPE">     0</i>
   <i type="int" name="NTAUPAR">    -1</i>
   <i type="int" name="NOMEGAPAR">    -1</i>
   <i name="DAMP_NEWTON">      0.80000001</i>
   <i name="LAMBDA">      1.00000000</i>
  </separator>
  <separator name="External order field" >
   <i name="OFIELD_KAPPA">      0.00000000</i>
   <v name="OFIELD_K">      0.00000000      0.00000000      0.00000000</v>
   <i name="OFIELD_Q6_NEAR">      0.00000000</i>
   <i name="OFIELD_Q6_FAR">      0.00000000</i>
   <i name="OFIELD_A">      0.00000000</i>
  </separator>
 </parameters>
 <atominfo>
  <atoms>       2 </atoms>
  <types>       1 </types>
  <array name="atoms" >
   <dimension dim="1">ion</dimension>
   <field type="string">element</field>
   <field type="int">atomtype</field>
   <set>
    <rc><c>Si</c><c>   1</c></rc>
    <rc><c>Si</c><c>   1</c></rc>
   </set>
  </array>
  <array name="atomtypes" >
   <dimension dim="1">type</dimension>
   <field type="int">atomspertype</field>
   <field type="string">element</field>
   <field>mass</field>
   <field>valence</field>
   <field type="string">pseudopotential</field>
   <set>
    <rc><c>   2</c><c>Si</c><c>     28.08500000</c><c>      4.00000000</c><c>  PAW_PBE Si 05Jan2001                  </c></rc>
   </set>
  </array>
 </atominfo>
 <structure name="initialpos" >
  <crystal>
   <varray name="basis" >
    <v>       3.34889800       0.00000000       1.93348700 </v>
    <v>       1.11629900       3.15737200       1.93348700 </v>
    <v>       0.00000000       0.00000000       3.86697500 </v>
   </varray>
   <i name="volume">     40.88829843 </i>
   <varray name="rec_basis" >
    <v>       0.29860569      -0.10557300       0.00000000 </v>
    <v>       0.00000000       0.31671909       0.00000000 </v>
    <v>      -0.14930281      -0.10557302       0.25860007 </v>
   </varray>
  </crystal>
  <varray name="positions" >
   <v>       0.25000000       0.25000000       0.25000000 </v>
   <v>       0.00000000       0.00000000       0.00000000 </v>
  </varray>
 </structure>
 <calculation>
  <scstep>
   <time name="dav">    0.36    0.37</time>
   <time name="total">    0.60    0.63</time>
   <energy>
    <i name="alphaZ">      3.29317992 </i>
    <i name="ewald">   -226.94489173 </i>
    <i name="hartreedc">    -11.32339116 </i>
    <i name="XCdc">    -18.60569953 </i>
    <i name="pawpsdc">    176.18363791 </i>
    <i name="pawaedc">   -140.99252705 </i>
    <i name="eentropy">      0.00000000 </i>
    <i name="bandstr">     20.73519146 </i>
    <i name="atom">    206.13322186 </i>
    <i name="e_fr_energy">      8.47872167 </i>
    <i name="e_wo_entrp">      8.47872167 </i>
    <i name="e_0_energy">      8.47872167 </i>
   </energy>
  </scstep>
  <scstep>
   <time name="dav">    0.49    0.49</time>
   <time name="total">    0.49    0.49</time>
   <energy>
    <i name="e_fr_energy">    -10.01494378 </i>
    <i name="e_wo_entrp">    -10.01494378 </i>
    <i name="e_0_energy">    -10.01494378 </i>
   </energy>
  </scstep>
  <scstep>
   <time name="dav">    0.63    0.64</time>
   <time name="total">    0.63    0.64</time>
   <energy>
    <i name="e_fr_energy">    -10.66474453 </i>
    <i name="e_wo_entrp">    -10.66474453 </i>
    <i name="e_0_energy">    -10.66474453 </i>
   </energy>
  </scstep>
  <scstep>
   <time name="dav">    0.49    0.49</time>
   <time name="total">    0.49    0.49</time>
   <energy>
    <i name="e_fr_energy">    -10.66973698 </i>
    <i name="e_wo_entrp">    -10.66973698 </i>
    <i name="e_0_energy">    -10.66973698 </i>
   </energy>
  </scstep>
  <scstep>
   <time name="dav">    0.49    0.49</time>
   <time name="total">    0.52    0.53</time>
   <energy>
    <i name="e_fr_energy">    -10.66978794 </i>
    <i name="e_wo_entrp">    -10.66978794 </i>
    <i name="e_0_energy">    -10.66978794 </i>
   </energy>
  </scstep>
  <scstep>
   <time name="dav">    0.56    0.56</time>
   <time name="total">    0.86    0.88</time>
   <energy>
    <i name="e_fr_energy">    -10.71276995 </i>
    <i name="e_wo_entrp">    -10.71276995 </i>
    <i name="e_0_energy">    -10.71276995 </i>
   </energy>
  </scstep>
  <scstep>
   <time name="dav">    0.50    0.51</time>
   <time name="total">    0.81    0.82</time>
   <energy>
    <i name="e_fr_energy">    -10.64689284 </i>
    <i name="e_wo_entrp">    -10.64689284 </i>
    <i name="e_0_energy">    -10.64689284 </i>
   </energy>
  </scstep>
  <scstep>
   <time name="dav">    0.44    0.44</time>
   <time name="total">    0.71    0.72</time>
   <energy>
    <i name="e_fr_energy">    -10.66354707 </i>
    <i name="e_wo_entrp">    -10.66354707 </i>
    <i name="e_0_energy">    -10.66354707 </i>
   </energy>
  </scstep>
  <scstep>
   <time name="dav">    0.47    0.47</time>
   <time name="total">    0.74    0.74</time>
   <energy>
    <i name="e_fr_energy">    -10.66555863 </i>
    <i name="e_wo_entrp">    -10.66555863 </i>
    <i name="e_0_energy">    -10.66555863 </i>
   </energy>
  </scstep>
  <scstep>
   <time name="dav">    0.41    0.41</time>
   <time name="total">    0.68    0.68</time>
   <energy>
    <i name="e_fr_energy">    -10.66620299 </i>
    <i name="e_wo_entrp">    -10.66620299 </i>
    <i name="e_0_energy">    -10.66620299 </i>
   </energy>
  </scstep>
  <scstep>
   <time name="dav">    0.44    0.44</time>
   <time name="total">    0.72    0.72</time>
   <energy>
    <i name="e_fr_energy">    -10.66627487 </i>
    <i name="e_wo_entrp">    -10.66627487 </i>
    <i name="e_0_energy">    -10.66627487 </i>
   </energy>
  </scstep>
  <scstep>
   <time name="dav">    0.43    0.43</time>
   <time name="total">    0.71    0.71</time>
   <energy>
    <i name="e_fr_energy">    -10.66629509 </i>
    <i name="e_wo_entrp">    -10.66629509 </i>
    <i name="e_0_energy">    -10.66629509 </i>
   </energy>
  </scstep>
  <scstep>
   <time name="dav">    0.37    0.37</time>
   <time name="total">    0.61    0.61</time>
   <energy>
    <i name="alphaZ">      3.29317992 </i>
    <i name="ewald">   -226.94489173 </i>
    <i name="hartreedc">    -15.49590929 </i>
    <i name="XCdc">    -18.02180052 </i>
    <i name="pawpsdc">    841.89352992 </i>
    <i name="pawaedc">   -806.92056731 </i>
    <i name="eentropy">      0.00000000 </i>
    <i name="bandstr">      5.39693728 </i>
    <i name="atom">    206.13322186 </i>
    <i name="e_fr_energy">    -10.66629988 </i>
    <i name="e_wo_entrp">    -10.66629988 </i>
    <i name="e_0_energy">    -10.66629988 </i>
   </energy>
  </scstep>
  <structure>
   <crystal>
    <varray name="basis" >
     <v>       3.34889800       0.00000000       1.93348700 </v>
     <v>       1.11629900       3.15737200       1.93348700 </v>
     <v>       0.00000000       0.00000000       3.86697500 </v>
    </varray>
    <i name="volume">     40.88829843 </i>
    <varray name="rec_basis" >
     <v>       0.29860569      -0.10557300       0.00000000 </v>
     <v>       0.00000000       0.31671909       0.00000000 </v>
     <v>      -0.14930281      -0.10557302       0.25860007 </v>
    </varray>
   </crystal>
   <varray name="positions" >
    <v>       0.25000000       0.25000000       0.25000000 </v>
    <v>       0.00000000       0.00000000       0.00000000 </v>
   </varray>
  </structure>
  <varray name="forces" >
   <v>       0.00000000       0.00000000       0.00000000 </v>
   <v>      -0.00000000      -0.00000000      -0.00000000 </v>
  </varray>
  <varray name="stress" >
   <v>       5.69717265      -0.00000060      -0.00000085 </v>
   <v>      -0.00000060       5.69717512      -0.00000060 </v>
   <v>      -0.00000085      -0.00000060       5.69717464 </v>
  </varray>
  <energy>
   <i name="e_fr_energy">    -10.66629988 </i>
   <i name="e_wo_entrp">    -10.66629988 </i>
   <i name="e_0_energy">    -10.66629988 </i>
  </energy>
  <scstep>
   <time name="total">    0.79    0.82</time>
   <energy>
    <i name="e_fr_energy">     -0.43491197 </i>
    <i name="e_wo_entrp">     -0.43491197 </i>
    <i name="e_0_energy">     -0.43491197 </i>
   </energy>
  </scstep>
  <scstep>
   <time name="total">    0.80    0.86</time>
   <energy>
    <i name="e_fr_energy">     -0.44545999 </i>
    <i name="e_wo_entrp">     -0.44545999 </i>
    <i name="e_0_energy">     -0.44545999 </i>
   </energy>
  </scstep>
  <scstep>
   <time name="total">    0.78    0.78</time>
   <energy>
    <i name="e_fr_energy">     -0.44553764 </i>
    <i name="e_wo_entrp">     -0.44553764 </i>
    <i name="e_0_energy">     -0.44553764 </i>
   </energy>
  </scstep>
  <scstep>
   <time name="total">    0.75    0.75</time>
   <energy>
    <i name="e_fr_energy">     -0.44553828 </i>
    <i name="e_wo_entrp">     -0.44553828 </i>
    <i name="e_0_energy">     -0.44553828 </i>
   </energy>
  </scstep>
  <scstep>
   <time name="total">    0.79    0.79</time>
   <energy>
    <i name="e_fr_energy">     -0.99412578 </i>
    <i name="e_wo_entrp">     -0.99412578 </i>
    <i name="e_0_energy">     -0.99412578 </i>
   </energy>
  </scstep>
  <scstep>
   <time name="total">    0.76    0.76</time>
   <energy>
    <i name="e_fr_energy">     -1.01550611 </i>
    <i name="e_wo_entrp">     -1.01550611 </i>
    <i name="e_0_energy">     -1.01550611 </i>
   </energy>
  </scstep>
  <scstep>
   <time name="total">    0.78    0.78</time>
   <energy>
    <i name="e_fr_energy">     -1.01563713 </i>
    <i name="e_wo_entrp">     -1.01563713 </i>
    <i name="e_0_energy">     -1.01563713 </i>
   </energy>
  </scstep>
  <scstep>
   <time name="total">    0.76    0.76</time>
   <energy>
    <i name="e_fr_energy">     -1.01563812 </i>
    <i name="e_wo_entrp">     -1.01563812 </i>
    <i name="e_0_energy">     -1.01563812 </i>
   </energy>
  </scstep>
  <scstep>
   <time name="total">    0.78    0.79</time>
   <energy>
    <i name="e_fr_energy">     -2.22711758 </i>
    <i name="e_wo_entrp">     -2.22711758 </i>
    <i name="e_0_energy">     -2.22711758 </i>
   </energy>
  </scstep>
  <scstep>
   <time name="total">    0.79    0.79</time>
   <energy>
    <i name="e_fr_energy">     -2.26704696 </i>
    <i name="e_wo_entrp">     -2.26704696 </i>
    <i name="e_0_energy">     -2.26704696 </i>
   </energy>
  </scstep>
  <scstep>
   <time name="total">    0.87    0.88</time>
   <energy>
    <i name="e_fr_energy">     -2.26722642 </i>
    <i name="e_wo_entrp">     -2.26722642 </i>
    <i name="e_0_energy">     -2.26722642 </i>
   </energy>
  </scstep>
  <scstep>
   <time name="total">    0.79    0.80</time>
   <energy>
    <i name="e_fr_energy">     -2.26722801 </i>
    <i name="e_wo_entrp">     -2.26722801 </i>
    <i name="e_0_energy">     -2.26722801 </i>
   </energy>
  </scstep>
  <varray name="dielectric_ipa" >
   <v>      12.00015217      -0.00000127      -0.00000179 </v>
   <v>      -0.00000127      12.00015738      -0.00000127 </v>
   <v>      -0.00000179      -0.00000127      12.00015636 </v>
  </varray>
  <kpoints>
   <generation param="Gamma">
    <v type="int" name="divisions">       4        4        4 </v>
    <v name="usershift">      0.00000000       0.00000000       0.00000000 </v>
    <v name="genvec1">      0.25000000      -0.00000000       0.00000000 </v>
    <v name="genvec2">      0.00000000       0.25000000       0.00000000 </v>
    <v name="genvec3">      0.00000000       0.00000000       0.25000000 </v>
    <v name="shift">      0.00000000       0.00000000       0.00000000 </v>
   </generation>
   <varray name="kpointlist" >
    <v>       0.00000000       0.00000000       0.00000000 </v>
    <v>       0.25000000       0.00000000       0.00000000 </v>
    <v>       0.00000000       0.25000000       0.00000000 </v>
    <v>      -0.00000000       0.00000000       0.25000000 </v>
    <v>       0.50000000       0.00000000       0.00000000 </v>
    <v>       0.00000000       0.50000000       0.00000000 </v>
    <v>      -0.00000000       0.00000000       0.50000000 </v>
    <v>       0.25000000       0.25000000       0.00000000 </v>
    <v>      -0.00000000       0.25000000       0.25000000 </v>
    <v>       0.50000000       0.25000000       0.00000000 </v>
    <v>      -0.00000000       0.50000000       0.25000000 </v>
    <v>       0.25000000       0.00000000       0.50000000 </v>
    <v>       0.25000000       0.25000000      -0.25000000 </v>
    <v>       0.50000000       0.25000000       0.50000000 </v>
    <v>       0.25000000       0.50000000       0.00000000 </v>
    <v>       0.25000000      -0.25000000      -0.25000000 </v>
    <v>      -0.25000000       0.25000000       0.00000000 </v>
    <v>       0.00000000      -0.25000000       0.25000000 </v>
    <v>       0.25000000       0.00000000      -0.25000000 </v>
    <v>       0.25000000       0.25000000       0.50000000 </v>
    <v>       0.50000000       0.50000000       0.00000000 </v>
    <v>      -0.00000000       0.50000000       0.50000000 </v>
    <v>      -0.25000000       0.50000000       0.25000000 </v>
    <v>       0.25000000      -0.25000000       0.50000000 </v>
   </varray>
   <varray name="weights" >
    <v>       0.01562500 </v>
    <v>       0.03125000 </v>
    <v>       0.03125000 </v>
    <v>       0.06250000 </v>
    <v>       0.01562500 </v>
    <v>       0.01562500 </v>
    <v>       0.03125000 </v>
    <v>       0.03125000 </v>
    <v>       0.06250000 </v>
    <v>       0.03125000 </v>
    <v>       0.06250000 </v>
    <v>       0.06250000 </v>
    <v>       0.06250000 </v>
    <v>       0.06250000 </v>
    <v>       0.03125000 </v>
    <v>       0.06250000 </v>
    <v>       0.03125000 </v>
    <v>       0.06250000 </v>
    <v>       0.06250000 </v>
    <v>       0.03125000 </v>
    <v>       0.01562500 </v>
    <v>       0.03125000 </v>
    <v>       0.06250000 </v>
    <v>       0.03125000 </v>
   </varray>
   <varray name="tetrahedronlist"  type="int" >
    <v type="int" >        4        1        3        4        8 </v>
    <v type="int" >        4        1        2        4        8 </v>
    <v type="int" >        4        1        2        4        9 </v>
    <v type="int" >        4        1        3        4        9 </v>
    <v type="int" >        4        1        4        4        9 </v>
    <v type="int" >        4        2        8       10       19 </v>
    <v type="int" >        4        2        5       10       19 </v>
    <v type="int" >        4        2        5       16       19 </v>
    <v type="int" >        4        2        4        8       19 </v>
    <v type="int" >        4        2        4        9       19 </v>
    <v type="int" >        4        2        9       16       19 </v>
    <v type="int" >        4        5       10       16       17 </v>
    <v type="int" >        4        2        5       16       17 </v>
    <v type="int" >        4        5       10       16       19 </v>
    <v type="int" >        4        5       16       16       19 </v>
    <v type="int" >        4        2        3        9       17 </v>
    <v type="int" >        4        1        2        3        9 </v>
    <v type="int" >        4        2        9       16       17 </v>
    <v type="int" >        4        3        6       15       18 </v>
    <v type="int" >        4        3        8       15       18 </v>
    <v type="int" >        4        3        4        8       18 </v>
    <v type="int" >        4        3        6       11       18 </v>
    <v type="int" >        4        3        9       11       18 </v>
    <v type="int" >        4        3        4        9       18 </v>
    <v type="int" >        4        8       13       15       21 </v>
    <v type="int" >        4        8       10       13       21 </v>
    <v type="int" >        4        8       10       13       19 </v>
    <v type="int" >        4        8       13       15       18 </v>
    <v type="int" >        4        4        8       13       18 </v>
    <v type="int" >        4        4        8       13       19 </v>
    <v type="int" >        4       10       15       21       23 </v>
    <v type="int" >        4       10       15       17       23 </v>
    <v type="int" >        4       10       16       17       23 </v>
    <v type="int" >        4       10       13       21       23 </v>
    <v type="int" >        4       10       13       19       23 </v>
    <v type="int" >        4       10       16       19       23 </v>
    <v type="int" >        4        6       11       15       17 </v>
    <v type="int" >        4        3        6       11       17 </v>
    <v type="int" >        4        3        9       11       17 </v>
    <v type="int" >        4       11       15       17       23 </v>
    <v type="int" >        4       11       16       17       23 </v>
    <v type="int" >        4        9       11       16       17 </v>
    <v type="int" >        4        6       11       15       18 </v>
    <v type="int" >        4        6       11       11       18 </v>
    <v type="int" >        4       13       15       21       23 </v>
    <v type="int" >        4       11       15       18       23 </v>
    <v type="int" >        4       13       15       18       23 </v>
    <v type="int" >        4       13       13       21       23 </v>
    <v type="int" >        4        4        4        9       20 </v>
    <v type="int" >        4        4        9       12       20 </v>
    <v type="int" >        4        4        9       14       20 </v>
    <v type="int" >        4        4        7       14       20 </v>
    <v type="int" >        4        4        7       12       20 </v>
    <v type="int" >        4        4        9       14       19 </v>
    <v type="int" >        4        9       14       16       19 </v>
    <v type="int" >        4        9       14       16       22 </v>
    <v type="int" >        4        9       12       14       20 </v>
    <v type="int" >        4        9       12       14       22 </v>
    <v type="int" >        4       16       16       19       24 </v>
    <v type="int" >        4       12       16       19       24 </v>
    <v type="int" >        4       14       16       19       24 </v>
    <v type="int" >        4       14       16       22       24 </v>
    <v type="int" >        4       12       16       22       24 </v>
    <v type="int" >        4        4        7       14       19 </v>
    <v type="int" >        4       12       14       19       24 </v>
    <v type="int" >        4        7       12       14       19 </v>
    <v type="int" >        4        9       11       12       18 </v>
    <v type="int" >        4        4        9       12       18 </v>
    <v type="int" >        4        9       11       12       22 </v>
    <v type="int" >        4        4        7       13       18 </v>
    <v type="int" >        4        4        7       13       19 </v>
    <v type="int" >        4        4        7       12       18 </v>
    <v type="int" >        4       12       13       19       23 </v>
    <v type="int" >        4       12       16       19       23 </v>
    <v type="int" >        4        7       12       13       19 </v>
    <v type="int" >        4       11       16       22       23 </v>
    <v type="int" >        4        9       11       16       22 </v>
    <v type="int" >        4       12       16       22       23 </v>
    <v type="int" >        4       11       11       18       24 </v>
    <v type="int" >        4       11       12       18       24 </v>
    <v type="int" >        4       11       14       18       24 </v>
    <v type="int" >        4       11       14       22       24 </v>
    <v type="int" >        4       11       12       22       24 </v>
    <v type="int" >        4       11       14       18       23 </v>
    <v type="int" >        4       13       14       18       23 </v>
    <v type="int" >        4        7       13       14       18 </v>
    <v type="int" >        4       12       14       18       24 </v>
    <v type="int" >        4        7       12       14       18 </v>
    <v type="int" >        4       13       13       20       23 </v>
    <v type="int" >        4       12       13       20       23 </v>
    <v type="int" >        4       13       14       20       23 </v>
    <v type="int" >        4        7       13       14       20 </v>
    <v type="int" >        4        7       12       13       20 </v>
    <v type="int" >        4       11       14       22       23 </v>
    <v type="int" >        4       12       14       20       23 </v>
    <v type="int" >        4       12       14       22       23 </v>
   </varray>
   <i name="volumeweight">      0.00260417 </i>
  </kpoints>
  <scstep>
   <time name="total">    1.40    1.40</time>
   <energy>
    <i name="e_fr_energy">     -1.21988766 </i>
    <i name="e_wo_entrp">     -1.21988766 </i>
    <i name="e_0_energy">     -1.21988766 </i>
   </energy>
  </scstep>
  <scstep>
   <time name="total">    1.39    1.40</time>
   <energy>
    <i name="e_fr_energy">     -1.24008513 </i>
    <i name="e_wo_entrp">     -1.24008513 </i>
    <i name="e_0_energy">     -1.24008513 </i>
   </energy>
  </scstep>
  <scstep>
   <time name="total">    1.82    1.82</time>
   <energy>
    <i name="e_fr_energy">     -1.20500818 </i>
    <i name="e_wo_entrp">     -1.20500818 </i>
    <i name="e_0_energy">     -1.20500818 </i>
   </energy>
  </scstep>
  <scstep>
   <time name="total">    2.07    2.08</time>
   <energy>
    <i name="e_fr_energy">     -1.25662817 </i>
    <i name="e_wo_entrp">     -1.25662817 </i>
    <i name="e_0_energy">     -1.25662817 </i>
   </energy>
  </scstep>
  <scstep>
   <time name="total">    1.89    1.89</time>
   <energy>
    <i name="e_fr_energy">     -1.27793285 </i>
    <i name="e_wo_entrp">     -1.27793285 </i>
    <i name="e_0_energy">     -1.27793285 </i>
   </energy>
  </scstep>
  <scstep>
   <time name="total">    2.18    2.18</time>
   <energy>
    <i name="e_fr_energy">     -1.27915138 </i>
    <i name="e_wo_entrp">     -1.27915138 </i>
    <i name="e_0_energy">     -1.27915138 </i>
   </energy>
  </scstep>
  <scstep>
   <time name="total">    2.01    2.02</time>
   <energy>
    <i name="e_fr_energy">     -1.28028917 </i>
    <i name="e_wo_entrp">     -1.28028917 </i>
    <i name="e_0_energy">     -1.28028917 </i>
   </energy>
  </scstep>
  <scstep>
   <time name="total">    2.25    2.26</time>
   <energy>
    <i name="e_fr_energy">     -1.28030664 </i>
    <i name="e_wo_entrp">     -1.28030664 </i>
    <i name="e_0_energy">     -1.28030664 </i>
   </energy>
  </scstep>
  <scstep>
   <time name="total">    1.92    1.92</time>
   <energy>
    <i name="e_fr_energy">     -1.28031727 </i>
    <i name="e_wo_entrp">     -1.28031727 </i>
    <i name="e_0_energy">     -1.28031727 </i>
   </energy>
  </scstep>
  <scstep>
   <time name="total">    1.76    1.79</time>
   <energy>
    <i name="e_fr_energy">     -1.28032207 </i>
    <i name="e_wo_entrp">     -1.28032207 </i>
    <i name="e_0_energy">     -1.28032207 </i>
   </energy>
  </scstep>
  <kpoints>
   <generation param="Gamma">
    <v type="int" name="divisions">       4        4        4 </v>
    <v name="usershift">      0.00000000       0.00000000       0.00000000 </v>
    <v name="genvec1">      0.25000000      -0.00000000       0.00000000 </v>
    <v name="genvec2">      0.00000000       0.25000000       0.00000000 </v>
    <v name="genvec3">      0.00000000       0.00000000       0.25000000 </v>
    <v name="shift">      0.00000000       0.00000000       0.00000000 </v>
   </generation>
   <varray name="kpointlist" >
    <v>       0.00000000       0.00000000       0.00000000 </v>
    <v>       0.25000000       0.00000000       0.00000000 </v>
    <v>       0.00000000       0.25000000       0.00000000 </v>
    <v>       0.50000000       0.00000000       0.00000000 </v>
    <v>       0.00000000       0.50000000       0.00000000 </v>
    <v>       0.25000000       0.25000000       0.00000000 </v>
    <v>       0.50000000       0.25000000       0.00000000 </v>
    <v>      -0.00000000       0.50000000       0.25000000 </v>
    <v>       0.25000000       0.00000000       0.50000000 </v>
    <v>      -0.25000000       0.25000000       0.00000000 </v>
    <v>       0.25000000       0.00000000      -0.25000000 </v>
    <v>       0.50000000       0.50000000       0.00000000 </v>
    <v>      -0.25000000       0.50000000       0.25000000 </v>
   </varray>
   <varray name="weights" >
    <v>       0.01562500 </v>
    <v>       0.09375000 </v>
    <v>       0.03125000 </v>
    <v>       0.04687500 </v>
    <v>       0.01562500 </v>
    <v>       0.09375000 </v>
    <v>       0.09375000 </v>
    <v>       0.09375000 </v>
    <v>       0.18750000 </v>
    <v>       0.09375000 </v>
    <v>       0.09375000 </v>
    <v>       0.04687500 </v>
    <v>       0.09375000 </v>
   </varray>
   <varray name="tetrahedronlist"  type="int" >
    <v type="int" >       12        1        2        3        6 </v>
    <v type="int" >       12        1        2        2        6 </v>
    <v type="int" >       12        2        6        7       11 </v>
    <v type="int" >       12        2        4        7       11 </v>
    <v type="int" >       12        2        4        9       11 </v>
    <v type="int" >       12        2        2        6       11 </v>
    <v type="int" >       12        2        6        9       11 </v>
    <v type="int" >       12        4        7        9       10 </v>
    <v type="int" >       12        2        4        9       10 </v>
    <v type="int" >       12        4        7        9       11 </v>
    <v type="int" >       12        4        9        9       11 </v>
    <v type="int" >       12        2        3        6       10 </v>
    <v type="int" >       12        2        6        9       10 </v>
    <v type="int" >       12        3        5        8       10 </v>
    <v type="int" >       12        3        6        8       10 </v>
    <v type="int" >       12        6        8        9       12 </v>
    <v type="int" >       12        6        7        9       12 </v>
    <v type="int" >       12        6        7        9       11 </v>
    <v type="int" >       12        6        8        9       10 </v>
    <v type="int" >       12        7        8       12       13 </v>
    <v type="int" >       12        7        8       10       13 </v>
    <v type="int" >       12        7        9       10       13 </v>
    <v type="int" >       12        7        9       12       13 </v>
    <v type="int" >       24        7        9       11       13 </v>
    <v type="int" >       12        5        8        8       10 </v>
    <v type="int" >       12        8        8       10       13 </v>
    <v type="int" >       12        8        9       10       13 </v>
    <v type="int" >       12        8        9       12       13 </v>
    <v type="int" >       12        9        9       12       13 </v>
    <v type="int" >       24        9        9       11       13 </v>
   </varray>
   <i name="volumeweight">      0.00260417 </i>
  </kpoints>
  <scstep>
   <time name="total">    1.45    1.65</time>
   <energy>
    <i name="e_fr_energy">     -1.20935155 </i>
    <i name="e_wo_entrp">     -1.20935155 </i>
    <i name="e_0_energy">     -1.20935155 </i>
   </energy>
  </scstep>
  <scstep>
   <time name="total">    1.54    1.93</time>
   <energy>
    <i name="e_fr_energy">     -1.23354933 </i>
    <i name="e_wo_entrp">     -1.23354933 </i>
    <i name="e_0_energy">     -1.23354933 </i>
   </energy>
  </scstep>
  <scstep>
   <time name="total">    1.59    1.67</time>
   <energy>
    <i name="e_fr_energy">     -1.19919552 </i>
    <i name="e_wo_entrp">     -1.19919552 </i>
    <i name="e_0_energy">     -1.19919552 </i>
   </energy>
  </scstep>
  <scstep>
   <time name="total">    1.60    1.64</time>
   <energy>
    <i name="e_fr_energy">     -1.25115173 </i>
    <i name="e_wo_entrp">     -1.25115173 </i>
    <i name="e_0_energy">     -1.25115173 </i>
   </energy>
  </scstep>
  <scstep>
   <time name="total">    1.63    1.76</time>
   <energy>
    <i name="e_fr_energy">     -1.27233017 </i>
    <i name="e_wo_entrp">     -1.27233017 </i>
    <i name="e_0_energy">     -1.27233017 </i>
   </energy>
  </scstep>
  <scstep>
   <time name="total">    2.08    2.29</time>
   <energy>
    <i name="e_fr_energy">     -1.27352528 </i>
    <i name="e_wo_entrp">     -1.27352528 </i>
    <i name="e_0_energy">     -1.27352528 </i>
   </energy>
  </scstep>
  <scstep>
   <time name="total">    1.99    2.13</time>
   <energy>
    <i name="e_fr_energy">     -1.27467965 </i>
    <i name="e_wo_entrp">     -1.27467965 </i>
    <i name="e_0_energy">     -1.27467965 </i>
   </energy>
  </scstep>
  <scstep>
   <time name="total">    1.69    1.75</time>
   <energy>
    <i name="e_fr_energy">     -1.27469137 </i>
    <i name="e_wo_entrp">     -1.27469137 </i>
    <i name="e_0_energy">     -1.27469137 </i>
   </energy>
  </scstep>
  <scstep>
   <time name="total">    2.10    2.70</time>
   <energy>
    <i name="e_fr_energy">     -1.27470458 </i>
    <i name="e_wo_entrp">     -1.27470458 </i>
    <i name="e_0_energy">     -1.27470458 </i>
   </energy>
  </scstep>
  <scstep>
   <time name="total">    1.62    1.73</time>
   <energy>
    <i name="e_fr_energy">     -1.27471038 </i>
    <i name="e_wo_entrp">     -1.27471038 </i>
    <i name="e_0_energy">     -1.27471038 </i>
   </energy>
  </scstep>
  <kpoints>
   <generation param="Gamma">
    <v type="int" name="divisions">       4        4        4 </v>
    <v name="usershift">      0.00000000       0.00000000       0.00000000 </v>
    <v name="genvec1">      0.25000000      -0.00000000       0.00000000 </v>
    <v name="genvec2">      0.00000000       0.25000000       0.00000000 </v>
    <v name="genvec3">      0.00000000       0.00000000       0.25000000 </v>
    <v name="shift">      0.00000000       0.00000000       0.00000000 </v>
   </generation>
   <varray name="kpointlist" >
    <v>       0.00000000       0.00000000       0.00000000 </v>
    <v>       0.25000000       0.00000000       0.00000000 </v>
    <v>      -0.00000000       0.00000000       0.25000000 </v>
    <v>       0.50000000       0.00000000       0.00000000 </v>
    <v>      -0.00000000       0.00000000       0.50000000 </v>
    <v>       0.25000000       0.25000000       0.00000000 </v>
    <v>      -0.00000000       0.25000000       0.25000000 </v>
    <v>       0.50000000       0.25000000       0.00000000 </v>
    <v>      -0.00000000       0.50000000       0.25000000 </v>
    <v>       0.25000000       0.00000000       0.50000000 </v>
    <v>       0.25000000       0.25000000      -0.25000000 </v>
    <v>      -0.25000000       0.25000000       0.00000000 </v>
    <v>       0.00000000      -0.25000000       0.25000000 </v>
    <v>       0.25000000       0.25000000       0.50000000 </v>
    <v>       0.50000000       0.50000000       0.00000000 </v>
    <v>      -0.00000000       0.50000000       0.50000000 </v>
    <v>      -0.25000000       0.50000000       0.25000000 </v>
    <v>       0.25000000      -0.25000000       0.50000000 </v>
   </varray>
   <varray name="weights" >
    <v>       0.01562500 </v>
    <v>       0.06250000 </v>
    <v>       0.06250000 </v>
    <v>       0.03125000 </v>
    <v>       0.03125000 </v>
    <v>       0.03125000 </v>
    <v>       0.06250000 </v>
    <v>       0.06250000 </v>
    <v>       0.12500000 </v>
    <v>       0.12500000 </v>
    <v>       0.06250000 </v>
    <v>       0.03125000 </v>
    <v>       0.12500000 </v>
    <v>       0.03125000 </v>
    <v>       0.01562500 </v>
    <v>       0.03125000 </v>
    <v>       0.06250000 </v>
    <v>       0.03125000 </v>
   </varray>
   <varray name="tetrahedronlist"  type="int" >
    <v type="int" >        8        1        2        3        6 </v>
    <v type="int" >        8        1        2        3        7 </v>
    <v type="int" >        4        1        3        3        7 </v>
    <v type="int" >        8        2        6        8       13 </v>
    <v type="int" >        8        2        4        8       13 </v>
    <v type="int" >        8        2        4        9       13 </v>
    <v type="int" >        8        2        3        6       13 </v>
    <v type="int" >        8        2        3        7       13 </v>
    <v type="int" >        8        2        7        9       13 </v>
    <v type="int" >        8        4        8        9       12 </v>
    <v type="int" >        8        2        4        9       12 </v>
    <v type="int" >        8        4        8        9       13 </v>
    <v type="int" >        8        4        9        9       13 </v>
    <v type="int" >        4        2        2        7       12 </v>
    <v type="int" >        4        1        2        2        7 </v>
    <v type="int" >        8        2        7        9       12 </v>
    <v type="int" >        8        6        8       11       15 </v>
    <v type="int" >        8        6        8       11       13 </v>
    <v type="int" >        8        3        6       11       13 </v>
    <v type="int" >        4        8        8       15       17 </v>
    <v type="int" >        4        8        8       12       17 </v>
    <v type="int" >        8        8        9       12       17 </v>
    <v type="int" >        8        8       11       15       17 </v>
    <v type="int" >        8        8       11       13       17 </v>
    <v type="int" >        8        8        9       13       17 </v>
    <v type="int" >        4        9        9       12       17 </v>
    <v type="int" >        4        7        9        9       12 </v>
    <v type="int" >        4       11       11       15       17 </v>
    <v type="int" >        4        3        3        7       14 </v>
    <v type="int" >        8        3        7       10       14 </v>
    <v type="int" >        8        3        5       10       14 </v>
    <v type="int" >        8        3        7       10       13 </v>
    <v type="int" >        8        7        9       10       13 </v>
    <v type="int" >        8        7        9       10       16 </v>
    <v type="int" >        4        7       10       10       14 </v>
    <v type="int" >        4        7       10       10       16 </v>
    <v type="int" >        8        9        9       13       18 </v>
    <v type="int" >       16        9       10       13       18 </v>
    <v type="int" >       16        9       10       16       18 </v>
    <v type="int" >        8        3        5       10       13 </v>
    <v type="int" >        8       10       10       13       18 </v>
    <v type="int" >        8        5       10       10       13 </v>
    <v type="int" >        8        3        5       11       13 </v>
    <v type="int" >        8       10       11       13       17 </v>
    <v type="int" >        8        9       10       13       17 </v>
    <v type="int" >        8        5       10       11       13 </v>
    <v type="int" >        4        9        9       16       17 </v>
    <v type="int" >        4        7        9        9       16 </v>
    <v type="int" >        8        9       10       16       17 </v>
    <v type="int" >        4       11       11       14       17 </v>
    <v type="int" >        8       10       11       14       17 </v>
    <v type="int" >        8        5       10       11       14 </v>
    <v type="int" >        4       10       10       14       17 </v>
    <v type="int" >        4       10       10       16       17 </v>
   </varray>
   <i name="volumeweight">      0.00260417 </i>
  </kpoints>
  <scstep>
   <time name="total">    1.87    2.17</time>
   <energy>
    <i name="e_fr_energy">     -1.22913517 </i>
    <i name="e_wo_entrp">     -1.22913517 </i>
    <i name="e_0_energy">     -1.22913517 </i>
   </energy>
  </scstep>
  <scstep>
   <time name="total">    1.43    1.47</time>
   <energy>
    <i name="e_fr_energy">     -1.25408972 </i>
    <i name="e_wo_entrp">     -1.25408972 </i>
    <i name="e_0_energy">     -1.25408972 </i>
   </energy>
  </scstep>
  <scstep>
   <time name="total">    1.58    1.59</time>
   <energy>
    <i name="e_fr_energy">     -1.21887120 </i>
    <i name="e_wo_entrp">     -1.21887120 </i>
    <i name="e_0_energy">     -1.21887120 </i>
   </energy>
  </scstep>
  <scstep>
   <time name="total">    1.95    1.98</time>
   <energy>
    <i name="e_fr_energy">     -1.27002165 </i>
    <i name="e_wo_entrp">     -1.27002165 </i>
    <i name="e_0_energy">     -1.27002165 </i>
   </energy>
  </scstep>
  <scstep>
   <time name="total">    1.82    1.85</time>
   <energy>
    <i name="e_fr_energy">     -1.29140644 </i>
    <i name="e_wo_entrp">     -1.29140644 </i>
    <i name="e_0_energy">     -1.29140644 </i>
   </energy>
  </scstep>
  <scstep>
   <time name="total">    2.28    2.44</time>
   <energy>
    <i name="e_fr_energy">     -1.29264530 </i>
    <i name="e_wo_entrp">     -1.29264530 </i>
    <i name="e_0_energy">     -1.29264530 </i>
   </energy>
  </scstep>
  <scstep>
   <time name="total">    1.94    1.99</time>
   <energy>
    <i name="e_fr_energy">     -1.29376628 </i>
    <i name="e_wo_entrp">     -1.29376628 </i>
    <i name="e_0_energy">     -1.29376628 </i>
   </energy>
  </scstep>
  <scstep>
   <time name="total">    2.06    2.14</time>
   <energy>
    <i name="e_fr_energy">     -1.29377350 </i>
    <i name="e_wo_entrp">     -1.29377350 </i>
    <i name="e_0_energy">     -1.29377350 </i>
   </energy>
  </scstep>
  <kpoints>
   <generation param="Gamma">
    <v type="int" name="divisions">       4        4        4 </v>
    <v name="usershift">      0.00000000       0.00000000       0.00000000 </v>
    <v name="genvec1">      0.25000000      -0.00000000       0.00000000 </v>
    <v name="genvec2">      0.00000000       0.25000000       0.00000000 </v>
    <v name="genvec3">      0.00000000       0.00000000       0.25000000 </v>
    <v name="shift">      0.00000000       0.00000000       0.00000000 </v>
   </generation>
   <varray name="kpointlist" >
    <v>       0.00000000       0.00000000       0.00000000 </v>
    <v>       0.25000000       0.00000000       0.00000000 </v>
    <v>       0.50000000       0.00000000       0.00000000 </v>
    <v>       0.25000000       0.25000000       0.00000000 </v>
    <v>       0.50000000       0.25000000       0.00000000 </v>
    <v>      -0.25000000       0.25000000       0.00000000 </v>
    <v>       0.50000000       0.50000000       0.00000000 </v>
    <v>      -0.25000000       0.50000000       0.25000000 </v>
   </varray>
   <varray name="weights" >
    <v>       0.01562500 </v>
    <v>       0.12500000 </v>
    <v>       0.06250000 </v>
    <v>       0.09375000 </v>
    <v>       0.37500000 </v>
    <v>       0.18750000 </v>
    <v>       0.04687500 </v>
    <v>       0.09375000 </v>
   </varray>
   <varray name="tetrahedronlist"  type="int" >
    <v type="int" >       24        1        2        2        4 </v>
    <v type="int" >       48        2        4        5        6 </v>
    <v type="int" >       48        2        3        5        6 </v>
    <v type="int" >       24        2        2        4        6 </v>
    <v type="int" >       48        3        5        5        6 </v>
    <v type="int" >       24        4        5        5        7 </v>
    <v type="int" >       24        4        5        5        6 </v>
    <v type="int" >       48        5        5        7        8 </v>
    <v type="int" >       96        5        5        6        8 </v>
   </varray>
   <i name="volumeweight">      0.00260417 </i>
  </kpoints>
  <varray name="dielectric_dft" >
   <v>      11.41539467      -0.00000121      -0.00000170 </v>
   <v>      -0.00000121      11.41539963      -0.00000121 </v>
   <v>      -0.00000170      -0.00000121      11.41539866 </v>
  </varray>
  <varray name="epsilon" >
   <v>      11.41539467      -0.00000121      -0.00000170 </v>
   <v>      -0.00000121      11.41539963      -0.00000121 </v>
   <v>      -0.00000170      -0.00000121      11.41539866 </v>
  </varray>
  <kpoints>
   <generation param="Gamma">
    <v type="int" name="divisions">       4        4        4 </v>
    <v name="usershift">      0.00000000       0.00000000       0.00000000 </v>
    <v name="genvec1">      0.25000000      -0.00000000       0.00000000 </v>
    <v name="genvec2">      0.00000000       0.25000000       0.00000000 </v>
    <v name="genvec3">      0.00000000       0.00000000       0.25000000 </v>
    <v name="shift">      0.00000000       0.00000000       0.00000000 </v>
   </generation>
   <varray name="kpointlist" >
    <v>       0.00000000       0.00000000       0.00000000 </v>
    <v>       0.25000000       0.00000000       0.00000000 </v>
    <v>       0.00000000       0.25000000       0.00000000 </v>
    <v>      -0.00000000       0.00000000       0.25000000 </v>
    <v>       0.50000000       0.00000000       0.00000000 </v>
    <v>       0.00000000       0.50000000       0.00000000 </v>
    <v>      -0.00000000       0.00000000       0.50000000 </v>
    <v>       0.25000000       0.25000000       0.00000000 </v>
    <v>      -0.00000000       0.25000000       0.25000000 </v>
    <v>       0.50000000       0.25000000       0.00000000 </v>
    <v>      -0.00000000       0.50000000       0.25000000 </v>
    <v>       0.25000000       0.00000000       0.50000000 </v>
    <v>       0.25000000       0.25000000      -0.25000000 </v>
    <v>       0.50000000       0.25000000       0.50000000 </v>
    <v>       0.25000000       0.50000000       0.00000000 </v>
    <v>       0.25000000      -0.25000000      -0.25000000 </v>
    <v>      -0.25000000       0.25000000       0.00000000 </v>
    <v>       0.00000000      -0.25000000       0.25000000 </v>
    <v>       0.25000000       0.00000000      -0.25000000 </v>
    <v>       0.25000000       0.25000000       0.50000000 </v>
    <v>       0.50000000       0.50000000       0.00000000 </v>
    <v>      -0.00000000       0.50000000       0.50000000 </v>
    <v>      -0.25000000       0.50000000       0.25000000 </v>
    <v>       0.25000000      -0.25000000       0.50000000 </v>
   </varray>
   <varray name="weights" >
    <v>       0.01562500 </v>
    <v>       0.03125000 </v>
    <v>       0.03125000 </v>
    <v>       0.06250000 </v>
    <v>       0.01562500 </v>
    <v>       0.01562500 </v>
    <v>       0.03125000 </v>
    <v>       0.03125000 </v>
    <v>       0.06250000 </v>
    <v>       0.03125000 </v>
    <v>       0.06250000 </v>
    <v>       0.06250000 </v>
    <v>       0.06250000 </v>
    <v>       0.06250000 </v>
    <v>       0.03125000 </v>
    <v>       0.06250000 </v>
    <v>       0.03125000 </v>
    <v>       0.06250000 </v>
    <v>       0.06250000 </v>
    <v>       0.03125000 </v>
    <v>       0.01562500 </v>
    <v>       0.03125000 </v>
    <v>       0.06250000 </v>
    <v>       0.03125000 </v>
   </varray>
   <varray name="tetrahedronlist"  type="int" >
    <v type="int" >        4        1        3        4        8 </v>
    <v type="int" >        4        1        2        4        8 </v>
    <v type="int" >        4        1        2        4        9 </v>
    <v type="int" >        4        1        3        4        9 </v>
    <v type="int" >        4        1        4        4        9 </v>
    <v type="int" >        4        2        8       10       19 </v>
    <v type="int" >        4        2        5       10       19 </v>
    <v type="int" >        4        2        5       16       19 </v>
    <v type="int" >        4        2        4        8       19 </v>
    <v type="int" >        4        2        4        9       19 </v>
    <v type="int" >        4        2        9       16       19 </v>
    <v type="int" >        4        5       10       16       17 </v>
    <v type="int" >        4        2        5       16       17 </v>
    <v type="int" >        4        5       10       16       19 </v>
    <v type="int" >        4        5       16       16       19 </v>
    <v type="int" >        4        2        3        9       17 </v>
    <v type="int" >        4        1        2        3        9 </v>
    <v type="int" >        4        2        9       16       17 </v>
    <v type="int" >        4        3        6       15       18 </v>
    <v type="int" >        4        3        8       15       18 </v>
    <v type="int" >        4        3        4        8       18 </v>
    <v type="int" >        4        3        6       11       18 </v>
    <v type="int" >        4        3        9       11       18 </v>
    <v type="int" >        4        3        4        9       18 </v>
    <v type="int" >        4        8       13       15       21 </v>
    <v type="int" >        4        8       10       13       21 </v>
    <v type="int" >        4        8       10       13       19 </v>
    <v type="int" >        4        8       13       15       18 </v>
    <v type="int" >        4        4        8       13       18 </v>
    <v type="int" >        4        4        8       13       19 </v>
    <v type="int" >        4       10       15       21       23 </v>
    <v type="int" >        4       10       15       17       23 </v>
    <v type="int" >        4       10       16       17       23 </v>
    <v type="int" >        4       10       13       21       23 </v>
    <v type="int" >        4       10       13       19       23 </v>
    <v type="int" >        4       10       16       19       23 </v>
    <v type="int" >        4        6       11       15       17 </v>
    <v type="int" >        4        3        6       11       17 </v>
    <v type="int" >        4        3        9       11       17 </v>
    <v type="int" >        4       11       15       17       23 </v>
    <v type="int" >        4       11       16       17       23 </v>
    <v type="int" >        4        9       11       16       17 </v>
    <v type="int" >        4        6       11       15       18 </v>
    <v type="int" >        4        6       11       11       18 </v>
    <v type="int" >        4       13       15       21       23 </v>
    <v type="int" >        4       11       15       18       23 </v>
    <v type="int" >        4       13       15       18       23 </v>
    <v type="int" >        4       13       13       21       23 </v>
    <v type="int" >        4        4        4        9       20 </v>
    <v type="int" >        4        4        9       12       20 </v>
    <v type="int" >        4        4        9       14       20 </v>
    <v type="int" >        4        4        7       14       20 </v>
    <v type="int" >        4        4        7       12       20 </v>
    <v type="int" >        4        4        9       14       19 </v>
    <v type="int" >        4        9       14       16       19 </v>
    <v type="int" >        4        9       14       16       22 </v>
    <v type="int" >        4        9       12       14       20 </v>
    <v type="int" >        4        9       12       14       22 </v>
    <v type="int" >        4       16       16       19       24 </v>
    <v type="int" >        4       12       16       19       24 </v>
    <v type="int" >        4       14       16       19       24 </v>
    <v type="int" >        4       14       16       22       24 </v>
    <v type="int" >        4       12       16       22       24 </v>
    <v type="int" >        4        4        7       14       19 </v>
    <v type="int" >        4       12       14       19       24 </v>
    <v type="int" >        4        7       12       14       19 </v>
    <v type="int" >        4        9       11       12       18 </v>
    <v type="int" >        4        4        9       12       18 </v>
    <v type="int" >        4        9       11       12       22 </v>
    <v type="int" >        4        4        7       13       18 </v>
    <v type="int" >        4        4        7       13       19 </v>
    <v type="int" >        4        4        7       12       18 </v>
    <v type="int" >        4       12       13       19       23 </v>
    <v type="int" >        4       12       16       19       23 </v>
    <v type="int" >        4        7       12       13       19 </v>
    <v type="int" >        4       11       16       22       23 </v>
    <v type="int" >        4        9       11       16       22 </v>
    <v type="int" >        4       12       16       22       23 </v>
    <v type="int" >        4       11       11       18       24 </v>
    <v type="int" >        4       11       12       18       24 </v>
    <v type="int" >        4       11       14       18       24 </v>
    <v type="int" >        4       11       14       22       24 </v>
    <v type="int" >        4       11       12       22       24 </v>
    <v type="int" >        4       11       14       18       23 </v>
    <v type="int" >        4       13       14       18       23 </v>
    <v type="int" >        4        7       13       14       18 </v>
    <v type="int" >        4       12       14       18       24 </v>
    <v type="int" >        4        7       12       14       18 </v>
    <v type="int" >        4       13       13       20       23 </v>
    <v type="int" >        4       12       13       20       23 </v>
    <v type="int" >        4       13       14       20       23 </v>
    <v type="int" >        4        7       13       14       20 </v>
    <v type="int" >        4        7       12       13       20 </v>
    <v type="int" >        4       11       14       22       23 </v>
    <v type="int" >        4       12       14       20       23 </v>
    <v type="int" >        4       12       14       22       23 </v>
   </varray>
   <i name="volumeweight">      0.00260417 </i>
  </kpoints>
  <scstep>
   <time name="total">    2.98    3.01</time>
   <energy>
    <i name="e_fr_energy">    -50.49234605 </i>
    <i name="e_wo_entrp">    -50.49234605 </i>
    <i name="e_0_energy">    -50.49234605 </i>
   </energy>
  </scstep>
  <scstep>
   <time name="total">    2.49    2.51</time>
   <energy>
    <i name="e_fr_energy">    -43.33952466 </i>
    <i name="e_wo_entrp">    -43.33952466 </i>
    <i name="e_0_energy">    -43.33952466 </i>
   </energy>
  </scstep>
  <scstep>
   <time name="total">    2.50    2.51</time>
   <energy>
    <i name="e_fr_energy">    -43.33442204 </i>
    <i name="e_wo_entrp">    -43.33442204 </i>
    <i name="e_0_energy">    -43.33442204 </i>
   </energy>
  </scstep>
  <kpoints>
   <generation param="Gamma">
    <v type="int" name="divisions">       4        4        4 </v>
    <v name="usershift">      0.00000000       0.00000000       0.00000000 </v>
    <v name="genvec1">      0.25000000      -0.00000000       0.00000000 </v>
    <v name="genvec2">      0.00000000       0.25000000       0.00000000 </v>
    <v name="genvec3">      0.00000000       0.00000000       0.25000000 </v>
    <v name="shift">      0.00000000       0.00000000       0.00000000 </v>
   </generation>
   <varray name="kpointlist" >
    <v>       0.00000000       0.00000000       0.00000000 </v>
    <v>       0.25000000       0.00000000       0.00000000 </v>
    <v>       0.50000000       0.00000000       0.00000000 </v>
    <v>       0.25000000       0.25000000       0.00000000 </v>
    <v>       0.50000000       0.25000000       0.00000000 </v>
    <v>      -0.25000000       0.25000000       0.00000000 </v>
    <v>       0.50000000       0.50000000       0.00000000 </v>
    <v>      -0.25000000       0.50000000       0.25000000 </v>
   </varray>
   <varray name="weights" >
    <v>       0.01562500 </v>
    <v>       0.12500000 </v>
    <v>       0.06250000 </v>
    <v>       0.09375000 </v>
    <v>       0.37500000 </v>
    <v>       0.18750000 </v>
    <v>       0.04687500 </v>
    <v>       0.09375000 </v>
   </varray>
   <varray name="tetrahedronlist"  type="int" >
    <v type="int" >       24        1        2        2        4 </v>
    <v type="int" >       48        2        4        5        6 </v>
    <v type="int" >       48        2        3        5        6 </v>
    <v type="int" >       24        2        2        4        6 </v>
    <v type="int" >       48        3        5        5        6 </v>
    <v type="int" >       24        4        5        5        7 </v>
    <v type="int" >       24        4        5        5        6 </v>
    <v type="int" >       48        5        5        7        8 </v>
    <v type="int" >       96        5        5        6        8 </v>
   </varray>
   <i name="volumeweight">      0.00260417 </i>
  </kpoints>
  <array name="born_charges" >
   <dimension dim="1">ion</dimension>
   <set>
    <v>       0.00000000       0.00000000       0.00000000 </v>
    <v>      -0.00000000      -0.00000000      -0.00000000 </v>
    <v>       0.00000000       0.00000000       0.00000000 </v>
   </set>
   <set>
    <v>      -0.00000000       0.00000000      -0.00000000 </v>
    <v>       0.00000000       0.00000000      -0.00000000 </v>
    <v>       0.00000000       0.00000000      -0.00000000 </v>
   </set>
  </array>
  <dynmat>
   <i name="unit" type="string">THz^2 </i>
   <varray name="hessian" >
    <v>    -119.69087593       0.00001264       0.00001787     119.69087593      -0.00001264      -0.00001787 </v>
    <v>       0.00001264    -119.69092796       0.00001264      -0.00001264     119.69092796      -0.00001264 </v>
    <v>       0.00001787       0.00001264    -119.69091780      -0.00001787      -0.00001264     119.69091780 </v>
    <v>     119.69087593      -0.00001264      -0.00001787    -119.69087593       0.00001264       0.00001787 </v>
    <v>      -0.00001264     119.69092796      -0.00001264       0.00001264    -119.69092796       0.00001264 </v>
    <v>      -0.00001787      -0.00001264     119.69091780       0.00001787       0.00001264    -119.69091780 </v>
   </varray>
   <v name="eigenvalues"> -2.39381873E+002 -2.39381840E+002 -2.39381730E+002 -6.42987696E-014 -5.82581236E-015  1.19824985E-014</v>
   <varray name="eigenvectors" >
    <v>   7.61218035E-003 -5.89224218E-001  3.90841240E-001 -7.61218035E-003  5.89224218E-001 -3.90841240E-001</v>
    <v>  -3.13790713E-001  3.47449428E-001  5.29919129E-001  3.13790713E-001 -3.47449428E-001 -5.29919129E-001</v>
    <v>  -6.33622477E-001 -1.79147188E-001 -2.57737933E-001  6.33622477E-001  1.79147188E-001  2.57737933E-001</v>
    <v>   6.29581807E-003  7.16731181E-002  7.03436797E-001  6.29581807E-003  7.16731181E-002  7.03436797E-001</v>
    <v>   2.77396869E-001  6.46818517E-001 -6.83870113E-002  2.77396869E-001  6.46818517E-001 -6.83870113E-002</v>
    <v>   6.50393219E-001 -2.76566033E-001  2.23582170E-002  6.50393219E-001 -2.76566033E-001  2.23582170E-002</v>
   </varray>
  </dynmat>
  <varray name="epsilon_ion" >
   <v>       0.00000000      -0.00000000       0.00000000 </v>
   <v>      -0.00000000       0.00000000      -0.00000000 </v>
   <v>       0.00000000      -0.00000000       0.00000000 </v>
  </varray>
  <varray name="dielectric_ion" >
   <v>       0.00000000      -0.00000000       0.00000000 </v>
   <v>      -0.00000000       0.00000000      -0.00000000 </v>
   <v>       0.00000000      -0.00000000       0.00000000 </v>
  </varray>
  <dielectricfunction>
   <imag>
    <array>
     <dimension dim="1">gridpoints</dimension>
     <field>energy</field>
     <field>xx</field>
     <field>yy</field>
     <field>zz</field>
     <field>xy</field>
     <field>yz</field>
     <field>zx</field>
     <set>
      <r>     0.0000     0.0000     0.0000     0.0000     0.0000     0.0000     0.0000 </r>
      <r>     0.0584     0.0000     0.0000     0.0000    -0.0000    -0.0000     0.0000 </r>
      <r>     0.1167     0.0000     0.0000     0.0000    -0.0000    -0.0000     0.0000 </r>
      <r>     0.1751     0.0000     0.0000     0.0000    -0.0000    -0.0000     0.0000 </r>
      <r>     0.2334     0.0000     0.0000     0.0000    -0.0000    -0.0000     0.0000 </r>
      <r>     0.2918     0.0000     0.0000     0.0000    -0.0000    -0.0000     0.0000 </r>
      <r>     0.3501     0.0000     0.0000     0.0000    -0.0000    -0.0000     0.0000 </r>
      <r>     0.4085     0.0000     0.0000     0.0000    -0.0000    -0.0000     0.0000 </r>
      <r>     0.4669     0.0000     0.0000     0.0000    -0.0000    -0.0000     0.0000 </r>
      <r>     0.5252     0.0000     0.0000     0.0000    -0.0000    -0.0000     0.0000 </r>
      <r>     0.5836     0.0000     0.0000     0.0000    -0.0000    -0.0000     0.0000 </r>
      <r>     0.6419     0.0000     0.0000     0.0000    -0.0000    -0.0000     0.0000 </r>
      <r>     0.7003     0.0000     0.0000     0.0000    -0.0000    -0.0000     0.0000 </r>
      <r>     0.7586     0.0000     0.0000     0.0000    -0.0000    -0.0000     0.0000 </r>
      <r>     0.8170     0.0000     0.0000     0.0000    -0.0000    -0.0000     0.0000 </r>
      <r>     0.8754     0.0000     0.0000     0.0000    -0.0000    -0.0000     0.0000 </r>
      <r>     0.9337     0.0000     0.0000     0.0000    -0.0000    -0.0000     0.0000 </r>
      <r>     0.9921     0.0000     0.0000     0.0000    -0.0000    -0.0000     0.0000 </r>
      <r>     1.0504     0.0000     0.0000     0.0000    -0.0000    -0.0000     0.0000 </r>
      <r>     1.1088     0.0000     0.0000     0.0000    -0.0000    -0.0000     0.0000 </r>
      <r>     1.1671     0.0000     0.0000     0.0000    -0.0000    -0.0000     0.0000 </r>
      <r>     1.2255     0.0000     0.0000     0.0000    -0.0000    -0.0000     0.0000 </r>
      <r>     1.2839     0.0000     0.0000     0.0000    -0.0000    -0.0000     0.0000 </r>
      <r>     1.3422     0.0000     0.0000     0.0000    -0.0000    -0.0000     0.0000 </r>
      <r>     1.4006     0.0000     0.0000     0.0000    -0.0000    -0.0000     0.0000 </r>
      <r>     1.4589     0.0000     0.0000     0.0000    -0.0000    -0.0000     0.0000 </r>
      <r>     1.5173     0.0000     0.0000     0.0000    -0.0000    -0.0000     0.0000 </r>
      <r>     1.5756     0.0000     0.0000     0.0000    -0.0000    -0.0000     0.0000 </r>
      <r>     1.6340     0.0000     0.0000     0.0000    -0.0000    -0.0000     0.0000 </r>
      <r>     1.6924     0.0000     0.0000     0.0000    -0.0000    -0.0000     0.0000 </r>
      <r>     1.7507     0.0000     0.0000     0.0000    -0.0000    -0.0000     0.0000 </r>
      <r>     1.8091     0.0000     0.0000     0.0000    -0.0000    -0.0000     0.0000 </r>
      <r>     1.8674     0.0000     0.0000     0.0000    -0.0000    -0.0000     0.0000 </r>
      <r>     1.9258     0.0000     0.0000     0.0000    -0.0000    -0.0000     0.0000 </r>
      <r>     1.9841     0.0000     0.0000     0.0000    -0.0000    -0.0000     0.0000 </r>
      <r>     2.0425     0.0000     0.0000     0.0000    -0.0000    -0.0000     0.0000 </r>
      <r>     2.1009     0.0000     0.0000     0.0000    -0.0000    -0.0000     0.0000 </r>
      <r>     2.1592     0.0000     0.0000     0.0000    -0.0000    -0.0000     0.0000 </r>
      <r>     2.2176     0.0000     0.0000     0.0000    -0.0000    -0.0000     0.0000 </r>
      <r>     2.2759     0.0000     0.0000     0.0000    -0.0000    -0.0000     0.0000 </r>
      <r>     2.3343     0.0000     0.0000     0.0000    -0.0000    -0.0000     0.0000 </r>
      <r>     2.3926     0.0000     0.0000     0.0000    -0.0000    -0.0000     0.0000 </r>
      <r>     2.4510     0.0000     0.0000     0.0000    -0.0000    -0.0000     0.0000 </r>
      <r>     2.5094     0.0000     0.0000     0.0000    -0.0000    -0.0000     0.0000 </r>
      <r>     2.5677     0.0000     0.0000     0.0000    -0.0000    -0.0000     0.0000 </r>
      <r>     2.6261     0.0000     0.0000     0.0000    -0.0000    -0.0000     0.0000 </r>
      <r>     2.6844     0.0000     0.0000     0.0000    -0.0000    -0.0000     0.0000 </r>
      <r>     2.7428     0.0000     0.0000     0.0000    -0.0000    -0.0000     0.0000 </r>
      <r>     2.8011     0.0000     0.0000     0.0000    -0.0000    -0.0000     0.0000 </r>
      <r>     2.8595     0.0000     0.0000     0.0000    -0.0000    -0.0000     0.0000 </r>
      <r>     2.9179     0.0000     0.0000     0.0000    -0.0000    -0.0000     0.0000 </r>
      <r>     2.9762     0.0000     0.0000     0.0000    -0.0000    -0.0000     0.0000 </r>
      <r>     3.0346     0.0000     0.0000     0.0000    -0.0000    -0.0000     0.0000 </r>
      <r>     3.0929     0.0000     0.0000     0.0000    -0.0000    -0.0000     0.0000 </r>
      <r>     3.1513     0.0000     0.0000     0.0000    -0.0000    -0.0000     0.0000 </r>
      <r>     3.2096     0.0000     0.0000     0.0000    -0.0000    -0.0000     0.0000 </r>
      <r>     3.2680     0.0000     0.0000     0.0000    -0.0000    -0.0000     0.0000 </r>
      <r>     3.3264     0.0000     0.0000     0.0000    -0.0000    -0.0000     0.0000 </r>
      <r>     3.3847     0.0000     0.0000     0.0000    -0.0000    -0.0000     0.0000 </r>
      <r>     3.4431     0.0000     0.0000     0.0000    -0.0000    -0.0000     0.0000 </r>
      <r>     3.5014     0.0000     0.0000     0.0000    -0.0000    -0.0000     0.0000 </r>
      <r>     3.5598     0.0000     0.0000     0.0000    -0.0000    -0.0000     0.0000 </r>
      <r>     3.6181     0.0000     0.0000     0.0000    -0.0000    -0.0000     0.0000 </r>
      <r>     3.6765     0.0000     0.0000     0.0000    -0.0000    -0.0000     0.0000 </r>
      <r>     3.7349     0.0000     0.0000     0.0000    -0.0000    -0.0000     0.0000 </r>
      <r>     3.7932     0.0000     0.0000     0.0000    -0.0000    -0.0000     0.0000 </r>
      <r>     3.8516     0.0000     0.0000     0.0000    -0.0000    -0.0000     0.0000 </r>
      <r>     3.9099     0.0000     0.0000     0.0000    -0.0000    -0.0000     0.0000 </r>
      <r>     3.9683     0.0000     0.0000     0.0000    -0.0000    -0.0000     0.0000 </r>
      <r>     4.0266     0.0000     0.0000     0.0000    -0.0000    -0.0000     0.0000 </r>
      <r>     4.0850     0.0000     0.0000     0.0000    -0.0000    -0.0000     0.0000 </r>
      <r>     4.1434     0.0000     0.0000     0.0000    -0.0000    -0.0000     0.0000 </r>
      <r>     4.2017     0.0000     0.0000     0.0000    -0.0000    -0.0000     0.0000 </r>
      <r>     4.2601     0.0000     0.0000     0.0000    -0.0000    -0.0000     0.0000 </r>
      <r>     4.3184     0.0000     0.0000     0.0000    -0.0000    -0.0000     0.0000 </r>
      <r>     4.3768     0.0000     0.0000     0.0000    -0.0000    -0.0000     0.0000 </r>
      <r>     4.4351     0.0000     0.0000     0.0000    -0.0000    -0.0000     0.0000 </r>
      <r>     4.4935     0.0000     0.0000     0.0000    -0.0000    -0.0000     0.0000 </r>
      <r>     4.5519     0.0000     0.0000     0.0000    -0.0000    -0.0000     0.0000 </r>
      <r>     4.6102     0.0000     0.0000     0.0000    -0.0000    -0.0000     0.0000 </r>
      <r>     4.6686     0.0000     0.0000     0.0000    -0.0000    -0.0000     0.0000 </r>
      <r>     4.7269     0.0000     0.0000     0.0000    -0.0000    -0.0000     0.0000 </r>
[...]
        <r>  0.0000  0.0133  0.0071  0.0189  0.0000  0.0000  0.0000  0.0000  0.0000 </r>
       </set>
      </set>
      <set comment="kpoint 2">
       <set comment="band 1">
        <r>  0.2089  0.0009  0.0000  0.0070  0.0000  0.0000  0.0000  0.0000  0.0000 </r>
        <r>  0.2089  0.0009  0.0000  0.0070  0.0000  0.0000  0.0000  0.0000  0.0000 </r>
       </set>
       <set comment="band 2">
        <r>  0.0967  0.0130  0.0000  0.1040  0.0000  0.0000  0.0000  0.0000  0.0000 </r>
        <r>  0.0967  0.0130  0.0000  0.1040  0.0000  0.0000  0.0000  0.0000  0.0000 </r>
       </set>
       <set comment="band 3">
        <r>  0.0000  0.0110  0.1986  0.0014  0.0000  0.0000  0.0000  0.0000  0.0000 </r>
        <r>  0.0000  0.0110  0.1986  0.0014  0.0000  0.0000  0.0000  0.0000  0.0000 </r>
       </set>
       <set comment="band 4">
        <r>  0.0000  0.1765  0.0124  0.0221  0.0000  0.0000  0.0000  0.0000  0.0000 </r>
        <r>  0.0000  0.1765  0.0124  0.0221  0.0000  0.0000  0.0000  0.0000  0.0000 </r>
       </set>
       <set comment="band 5">
        <r>  0.1559  0.0054  0.0000  0.0430  0.0000  0.0000  0.0000  0.0000  0.0000 </r>
        <r>  0.1559  0.0054  0.0000  0.0430  0.0000  0.0000  0.0000  0.0000  0.0000 </r>
       </set>
       <set comment="band 6">
        <r>  0.0000  0.0875  0.0399  0.0109  0.0000  0.0000  0.0000  0.0000  0.0000 </r>
        <r>  0.0000  0.0875  0.0399  0.0109  0.0000  0.0000  0.0000  0.0000  0.0000 </r>
       </set>
       <set comment="band 7">
        <r>  0.0000  0.0355  0.0985  0.0044  0.0000  0.0000  0.0000  0.0000  0.0000 </r>
        <r>  0.0000  0.0355  0.0985  0.0044  0.0000  0.0000  0.0000  0.0000  0.0000 </r>
       </set>
       <set comment="band 8">
        <r>  0.1108  0.0168  0.0000  0.1342  0.0000  0.0000  0.0000  0.0000  0.0000 </r>
        <r>  0.1108  0.0168  0.0000  0.1342  0.0000  0.0000  0.0000  0.0000  0.0000 </r>
       </set>
       <set comment="band 9">
        <r>  0.0000  0.0060  0.0093  0.0008  0.0000  0.0000  0.0000  0.0000  0.0000 </r>
        <r>  0.0000  0.0060  0.0093  0.0008  0.0000  0.0000  0.0000  0.0000  0.0000 </r>
       </set>
       <set comment="band 10">
        <r>  0.0000  0.0082  0.0068  0.0010  0.0000  0.0000  0.0000  0.0000  0.0000 </r>
        <r>  0.0000  0.0082  0.0068  0.0010  0.0000  0.0000  0.0000  0.0000  0.0000 </r>
       </set>
       <set comment="band 11">
        <r>  0.0481  0.0023  0.0000  0.0186  0.0000  0.0000  0.0000  0.0000  0.0000 </r>
        <r>  0.0481  0.0023  0.0000  0.0186  0.0000  0.0000  0.0000  0.0000  0.0000 </r>
       </set>
       <set comment="band 12">
        <r>  0.0366  0.0081  0.0000  0.0647  0.0000  0.0000  0.0000  0.0000  0.0000 </r>
        <r>  0.0366  0.0081  0.0000  0.0647  0.0000  0.0000  0.0000  0.0000  0.0000 </r>
       </set>
      </set>
      <set comment="kpoint 3">
       <set comment="band 1">
        <r>  0.2233  0.0015  0.0000  0.0118  0.0000  0.0000  0.0000  0.0000  0.0000 </r>
        <r>  0.2233  0.0015  0.0000  0.0118  0.0000  0.0000  0.0000  0.0000  0.0000 </r>
       </set>
       <set comment="band 2">
        <r>  0.0993  0.0102  0.0000  0.0818  0.0000  0.0000  0.0000  0.0000  0.0000 </r>
        <r>  0.0993  0.0102  0.0000  0.0818  0.0000  0.0000  0.0000  0.0000  0.0000 </r>
       </set>
       <set comment="band 3">
        <r>  0.0000  0.0111  0.2026  0.0014  0.0000  0.0000  0.0000  0.0000  0.0000 </r>
        <r>  0.0000  0.0111  0.2026  0.0014  0.0000  0.0000  0.0000  0.0000  0.0000 </r>
       </set>
       <set comment="band 4">
        <r>  0.0000  0.1801  0.0125  0.0225  0.0000  0.0000  0.0000  0.0000  0.0000 </r>
        <r>  0.0000  0.1801  0.0125  0.0225  0.0000  0.0000  0.0000  0.0000  0.0000 </r>
       </set>
       <set comment="band 5">
        <r>  0.1849  0.0023  0.0000  0.0183  0.0000  0.0000  0.0000  0.0000  0.0000 </r>
        <r>  0.1849  0.0023  0.0000  0.0183  0.0000  0.0000  0.0000  0.0000  0.0000 </r>
       </set>
       <set comment="band 6">
        <r>  0.0000  0.0494  0.0391  0.0062  0.0000  0.0000  0.0000  0.0000  0.0000 </r>
        <r>  0.0000  0.0494  0.0391  0.0062  0.0000  0.0000  0.0000  0.0000  0.0000 </r>
       </set>
       <set comment="band 7">
        <r>  0.0000  0.0348  0.0556  0.0043  0.0000  0.0000  0.0000  0.0000  0.0000 </r>
        <r>  0.0000  0.0348  0.0556  0.0043  0.0000  0.0000  0.0000  0.0000  0.0000 </r>
       </set>
       <set comment="band 8">
        <r>  0.0055  0.0060  0.0000  0.0482  0.0000  0.0000  0.0000  0.0000  0.0000 </r>
        <r>  0.0055  0.0060  0.0000  0.0482  0.0000  0.0000  0.0000  0.0000  0.0000 </r>
       </set>
       <set comment="band 9">
        <r>  0.0000  0.0002  0.0000  0.0000  0.0000  0.0000  0.0000  0.0000  0.0000 </r>
        <r>  0.0000  0.0002  0.0000  0.0000  0.0000  0.0000  0.0000  0.0000  0.0000 </r>
       </set>
       <set comment="band 10">
        <r>  0.0000  0.0000  0.0002  0.0000  0.0000  0.0000  0.0000  0.0000  0.0000 </r>
        <r>  0.0000  0.0000  0.0002  0.0000  0.0000  0.0000  0.0000  0.0000  0.0000 </r>
       </set>
       <set comment="band 11">
        <r>  0.0377  0.0146  0.0001  0.1348  0.0000  0.0000  0.0000  0.0000  0.0000 </r>
        <r>  0.0377  0.0146  0.0001  0.1349  0.0000  0.0000  0.0000  0.0000  0.0000 </r>
       </set>
       <set comment="band 12">
        <r>  0.0000  0.0433  0.0663  0.0054  0.0000  0.0000  0.0000  0.0000  0.0000 </r>
        <r>  0.0000  0.0433  0.0663  0.0054  0.0000  0.0000  0.0000  0.0000  0.0000 </r>
       </set>
      </set>
      <set comment="kpoint 4">
       <set comment="band 1">
        <r>  0.2065  0.0038  0.0000  0.0076  0.0000  0.0000  0.0000  0.0000  0.0000 </r>
        <r>  0.2065  0.0038  0.0000  0.0076  0.0000  0.0000  0.0000  0.0000  0.0000 </r>
       </set>
       <set comment="band 2">
        <r>  0.1566  0.0323  0.0000  0.0646  0.0000  0.0000  0.0000  0.0000  0.0000 </r>
        <r>  0.1566  0.0323  0.0000  0.0646  0.0000  0.0000  0.0000  0.0000  0.0000 </r>
       </set>
       <set comment="band 3">
        <r>  0.0000  0.1306  0.0000  0.0653  0.0000  0.0000  0.0000  0.0000  0.0000 </r>
        <r>  0.0000  0.1306  0.0000  0.0653  0.0000  0.0000  0.0000  0.0000  0.0000 </r>
       </set>
       <set comment="band 4">
        <r>  0.0000  0.0000  0.1959  0.0000  0.0000  0.0000  0.0000  0.0000  0.0000 </r>
        <r>  0.0000  0.0000  0.1959  0.0000  0.0000  0.0000  0.0000  0.0000  0.0000 </r>
       </set>
       <set comment="band 5">
        <r>  0.0421  0.0257  0.0000  0.0515  0.0000  0.0000  0.0000  0.0000  0.0000 </r>
        <r>  0.0421  0.0257  0.0000  0.0515  0.0000  0.0000  0.0000  0.0000  0.0000 </r>
       </set>
       <set comment="band 6">
        <r>  0.0513  0.0135  0.0000  0.0270  0.0000  0.0000  0.0000  0.0000  0.0000 </r>
        <r>  0.0513  0.0135  0.0000  0.0270  0.0000  0.0000  0.0000  0.0000  0.0000 </r>
       </set>
       <set comment="band 7">
        <r>  0.0000  0.1111  0.0000  0.0556  0.0000  0.0000  0.0000  0.0000  0.0000 </r>
        <r>  0.0000  0.1111  0.0000  0.0556  0.0000  0.0000  0.0000  0.0000  0.0000 </r>
       </set>
       <set comment="band 8">
        <r>  0.0000  0.0000  0.1667  0.0000  0.0000  0.0000  0.0000  0.0000  0.0000 </r>
        <r>  0.0000  0.0000  0.1667  0.0000  0.0000  0.0000  0.0000  0.0000  0.0000 </r>
       </set>
       <set comment="band 9">
        <r>  0.1485  0.0319  0.0000  0.0638  0.0000  0.0000  0.0000  0.0000  0.0000 </r>
        <r>  0.1485  0.0319  0.0000  0.0638  0.0000  0.0000  0.0000  0.0000  0.0000 </r>
       </set>
       <set comment="band 10">
        <r>  0.0000  0.0000  0.0000  0.0000  0.0000  0.0000  0.0000  0.0000  0.0000 </r>
        <r>  0.0000  0.0000  0.0000  0.0000  0.0000  0.0000  0.0000  0.0000  0.0000 </r>
       </set>
       <set comment="band 11">
        <r>  0.0343  0.0343  0.0000  0.0686  0.0000  0.0000  0.0000  0.0000  0.0000 </r>
        <r>  0.0343  0.0343  0.0000  0.0686  0.0000  0.0000  0.0000  0.0000  0.0000 </r>
       </set>
       <set comment="band 12">
        <r>  0.0000  0.0050  0.0212  0.0025  0.0000  0.0000  0.0000  0.0000  0.0000 </r>
        <r>  0.0000  0.0050  0.0212  0.0025  0.0000  0.0000  0.0000  0.0000  0.0000 </r>
       </set>
      </set>
      <set comment="kpoint 5">
       <set comment="band 1">
        <r>  0.2089  0.0045  0.0000  0.0195  0.0000  0.0000  0.0000  0.0000  0.0000 </r>
        <r>  0.2089  0.0045  0.0000  0.0195  0.0000  0.0000  0.0000  0.0000  0.0000 </r>
       </set>
       <set comment="band 2">
        <r>  0.1566  0.0095  0.0000  0.0631  0.0000  0.0000  0.0000  0.0000  0.0000 </r>
        <r>  0.1566  0.0095  0.0000  0.0631  0.0000  0.0000  0.0000  0.0000  0.0000 </r>
       </set>
       <set comment="band 3">
        <r>  0.0243  0.1167  0.0000  0.0349  0.0000  0.0000  0.0000  0.0000  0.0000 </r>
        <r>  0.0243  0.1167  0.0000  0.0349  0.0000  0.0000  0.0000  0.0000  0.0000 </r>
       </set>
       <set comment="band 4">
        <r>  0.0000  0.0000  0.1988  0.0000  0.0000  0.0000  0.0000  0.0000  0.0000 </r>
        <r>  0.0000  0.0000  0.1988  0.0000  0.0000  0.0000  0.0000  0.0000  0.0000 </r>
       </set>
       <set comment="band 5">
        <r>  0.0502  0.0322  0.0000  0.0195  0.0000  0.0000  0.0000  0.0000  0.0000 </r>
        <r>  0.0502  0.0322  0.0000  0.0195  0.0000  0.0000  0.0000  0.0000  0.0000 </r>
       </set>
       <set comment="band 6">
        <r>  0.0214  0.0487  0.0000  0.0331  0.0000  0.0000  0.0000  0.0000  0.0000 </r>
        <r>  0.0214  0.0487  0.0000  0.0331  0.0000  0.0000  0.0000  0.0000  0.0000 </r>
       </set>
       <set comment="band 7">
        <r>  0.0631  0.1214  0.0000  0.0062  0.0000  0.0000  0.0000  0.0000  0.0000 </r>
        <r>  0.0631  0.1214  0.0000  0.0062  0.0000  0.0000  0.0000  0.0000  0.0000 </r>
       </set>
       <set comment="band 8">
        <r>  0.0000  0.0000  0.1157  0.0000  0.0000  0.0000  0.0000  0.0000  0.0000 </r>
        <r>  0.0000  0.0000  0.1157  0.0000  0.0000  0.0000  0.0000  0.0000  0.0000 </r>
       </set>
       <set comment="band 9">
        <r>  0.0081  0.0144  0.0000  0.1265  0.0000  0.0000  0.0000  0.0000  0.0000 </r>
        <r>  0.0081  0.0144  0.0000  0.1265  0.0000  0.0000  0.0000  0.0000  0.0000 </r>
       </set>
       <set comment="band 10">
        <r>  0.0000  0.0000  0.0466  0.0000  0.0000  0.0000  0.0000  0.0000  0.0000 </r>
        <r>  0.0000  0.0000  0.0466  0.0000  0.0000  0.0000  0.0000  0.0000  0.0000 </r>
       </set>
       <set comment="band 11">
        <r>  0.0000  0.0000  0.0586  0.0000  0.0000  0.0000  0.0000  0.0000  0.0000 </r>
        <r>  0.0000  0.0000  0.0586  0.0000  0.0000  0.0000  0.0000  0.0000  0.0000 </r>
       </set>
       <set comment="band 12">
        <r>  0.0359  0.0072  0.0000  0.1370  0.0000  0.0000  0.0000  0.0000  0.0000 </r>
        <r>  0.0359  0.0072  0.0000  0.1370  0.0000  0.0000  0.0000  0.0000  0.0000 </r>
       </set>
      </set>
      <set comment="kpoint 6">
       <set comment="band 1">
        <r>  0.2080  0.0117  0.0000  0.0069  0.0000  0.0000  0.0000  0.0000  0.0000 </r>
        <r>  0.2080  0.0117  0.0000  0.0069  0.0000  0.0000  0.0000  0.0000  0.0000 </r>
       </set>
       <set comment="band 2">
        <r>  0.1550  0.0415  0.0000  0.0398  0.0000  0.0000  0.0000  0.0000  0.0000 </r>
        <r>  0.1550  0.0415  0.0000  0.0398  0.0000  0.0000  0.0000  0.0000  0.0000 </r>
       </set>
       <set comment="band 3">
        <r>  0.0129  0.0749  0.0000  0.0776  0.0000  0.0000  0.0000  0.0000  0.0000 </r>
        <r>  0.0129  0.0749  0.0000  0.0776  0.0000  0.0000  0.0000  0.0000  0.0000 </r>
       </set>
       <set comment="band 4">
        <r>  0.0000  0.0000  0.2089  0.0000  0.0000  0.0000  0.0000  0.0000  0.0000 </r>
        <r>  0.0000  0.0000  0.2089  0.0000  0.0000  0.0000  0.0000  0.0000  0.0000 </r>
       </set>
       <set comment="band 5">
        <r>  0.0658  0.0224  0.0000  0.0422  0.0000  0.0000  0.0000  0.0000  0.0000 </r>
        <r>  0.0658  0.0224  0.0000  0.0422  0.0000  0.0000  0.0000  0.0000  0.0000 </r>
       </set>
       <set comment="band 6">
        <r>  0.0000  0.0000  0.1487  0.0000  0.0000  0.0000  0.0000  0.0000  0.0000 </r>
        <r>  0.0000  0.0000  0.1487  0.0000  0.0000  0.0000  0.0000  0.0000  0.0000 </r>
       </set>
       <set comment="band 7">
        <r>  0.0304  0.0358  0.0000  0.0702  0.0000  0.0000  0.0000  0.0000  0.0000 </r>
        <r>  0.0304  0.0358  0.0000  0.0702  0.0000  0.0000  0.0000  0.0000  0.0000 </r>
       </set>
       <set comment="band 8">
        <r>  0.0735  0.0716  0.0000  0.0473  0.0000  0.0000  0.0000  0.0000  0.0000 </r>
        <r>  0.0735  0.0716  0.0000  0.0473  0.0000  0.0000  0.0000  0.0000  0.0000 </r>
       </set>
       <set comment="band 9">
        <r>  0.0000  0.0000  0.0076  0.0000  0.0000  0.0000  0.0000  0.0000  0.0000 </r>
        <r>  0.0000  0.0000  0.0076  0.0000  0.0000  0.0000  0.0000  0.0000  0.0000 </r>
       </set>
       <set comment="band 10">
        <r>  0.0041  0.0823  0.0000  0.0592  0.0000  0.0000  0.0000  0.0000  0.0000 </r>
        <r>  0.0041  0.0823  0.0000  0.0592  0.0000  0.0000  0.0000  0.0000  0.0000 </r>
       </set>
       <set comment="band 11">
        <r>  0.0417  0.0206  0.0000  0.0164  0.0000  0.0000  0.0000  0.0000  0.0000 </r>
        <r>  0.0417  0.0206  0.0000  0.0164  0.0000  0.0000  0.0000  0.0000  0.0000 </r>
       </set>
       <set comment="band 12">
        <r>  0.0139  0.0606  0.0000  0.0391  0.0000  0.0000  0.0000  0.0000  0.0000 </r>
        <r>  0.0138  0.0606  0.0000  0.0391  0.0000  0.0000  0.0000  0.0000  0.0000 </r>
       </set>
      </set>
      <set comment="kpoint 7">
       <set comment="band 1">
        <r>  0.1929  0.0146  0.0000  0.0293  0.0000  0.0000  0.0000  0.0000  0.0000 </r>
        <r>  0.1929  0.0146  0.0000  0.0293  0.0000  0.0000  0.0000  0.0000  0.0000 </r>
       </set>
       <set comment="band 2">
        <r>  0.1929  0.0146  0.0000  0.0293  0.0000  0.0000  0.0000  0.0000  0.0000 </r>
        <r>  0.1929  0.0146  0.0000  0.0293  0.0000  0.0000  0.0000  0.0000  0.0000 </r>
       </set>
       <set comment="band 3">
        <r>  0.0000  0.1298  0.0000  0.0649  0.0000  0.0000  0.0000  0.0000  0.0000 </r>
        <r>  0.0000  0.1298  0.0000  0.0649  0.0000  0.0000  0.0000  0.0000  0.0000 </r>
       </set>
       <set comment="band 4">
        <r>  0.0000  0.0000  0.1946  0.0000  0.0000  0.0000  0.0000  0.0000  0.0000 </r>
        <r>  0.0000  0.0000  0.1946  0.0000  0.0000  0.0000  0.0000  0.0000  0.0000 </r>
       </set>
       <set comment="band 5">
        <r>  0.0512  0.0120  0.0000  0.0240  0.0000  0.0000  0.0000  0.0000  0.0000 </r>
        <r>  0.0512  0.0120  0.0000  0.0240  0.0000  0.0000  0.0000  0.0000  0.0000 </r>
       </set>
       <set comment="band 6">
        <r>  0.0512  0.0120  0.0000  0.0240  0.0000  0.0000  0.0000  0.0000  0.0000 </r>
        <r>  0.0512  0.0120  0.0000  0.0240  0.0000  0.0000  0.0000  0.0000  0.0000 </r>
       </set>
       <set comment="band 7">
        <r>  0.0000  0.0000  0.2395  0.0000  0.0000  0.0000  0.0000  0.0000  0.0000 </r>
        <r>  0.0000  0.0000  0.2395  0.0000  0.0000  0.0000  0.0000  0.0000  0.0000 </r>
       </set>
       <set comment="band 8">
        <r>  0.0000  0.1596  0.0000  0.0798  0.0000  0.0000  0.0000  0.0000  0.0000 </r>
        <r>  0.0000  0.1596  0.0000  0.0798  0.0000  0.0000  0.0000  0.0000  0.0000 </r>
       </set>
       <set comment="band 9">
        <r>  0.0000  0.0000  0.0112  0.0000  0.0000  0.0000  0.0000  0.0000  0.0000 </r>
        <r>  0.0000  0.0000  0.0112  0.0000  0.0000  0.0000  0.0000  0.0000  0.0000 </r>
       </set>
       <set comment="band 10">
        <r>  0.0000  0.0075  0.0000  0.0037  0.0000  0.0000  0.0000  0.0000  0.0000 </r>
        <r>  0.0000  0.0075  0.0000  0.0037  0.0000  0.0000  0.0000  0.0000  0.0000 </r>
       </set>
       <set comment="band 11">
        <r>  0.0000  0.0000  0.0000  0.0000  0.0000  0.0000  0.0000  0.0000  0.0000 </r>
        <r>  0.0000  0.0000  0.0000  0.0000  0.0000  0.0000  0.0000  0.0000  0.0000 </r>
       </set>
       <set comment="band 12">
        <r>  0.0000  0.0000  0.0000  0.0000  0.0000  0.0000  0.0000  0.0000  0.0000 </r>
        <r>  0.0000  0.0000  0.0000  0.0000  0.0000  0.0000  0.0000  0.0000  0.0000 </r>
       </set>
      </set>
      <set comment="kpoint 8">
       <set comment="band 1">
        <r>  0.2040  0.0136  0.0102  0.0170  0.0000  0.0000  0.0000  0.0000  0.0000 </r>
        <r>  0.2040  0.0136  0.0102  0.0170  0.0000  0.0000  0.0000  0.0000  0.0000 </r>
       </set>
       <set comment="band 2">
        <r>  0.2040  0.0136  0.0102  0.0170  0.0000  0.0000  0.0000  0.0000  0.0000 </r>
        <r>  0.2040  0.0136  0.0102  0.0170  0.0000  0.0000  0.0000  0.0000  0.0000 </r>
       </set>
       <set comment="band 3">
        <r>  0.0000  0.0133  0.0612  0.0850  0.0000  0.0000  0.0000  0.0000  0.0000 </r>
        <r>  0.0000  0.0133  0.0612  0.0850  0.0000  0.0000  0.0000  0.0000  0.0000 </r>
       </set>
       <set comment="band 4">
        <r>  0.0000  0.0930  0.0529  0.0135  0.0000  0.0000  0.0000  0.0000  0.0000 </r>
        <r>  0.0000  0.0930  0.0529  0.0135  0.0000  0.0000  0.0000  0.0000  0.0000 </r>
       </set>
       <set comment="band 5">
        <r>  0.0000  0.0298  0.0427  0.0131  0.0000  0.0000  0.0000  0.0000  0.0000 </r>
        <r>  0.0000  0.0298  0.0427  0.0131  0.0000  0.0000  0.0000  0.0000  0.0000 </r>
       </set>
       <set comment="band 6">
        <r>  0.0000  0.0272  0.0429  0.0154  0.0000  0.0000  0.0000  0.0000  0.0000 </r>
        <r>  0.0000  0.0272  0.0429  0.0154  0.0000  0.0000  0.0000  0.0000  0.0000 </r>
       </set>
       <set comment="band 7">
        <r>  0.0615  0.0350  0.0262  0.0437  0.0000  0.0000  0.0000  0.0000  0.0000 </r>
        <r>  0.0615  0.0350  0.0262  0.0437  0.0000  0.0000  0.0000  0.0000  0.0000 </r>
       </set>
       <set comment="band 8">
        <r>  0.0615  0.0350  0.0262  0.0437  0.0000  0.0000  0.0000  0.0000  0.0000 </r>
        <r>  0.0615  0.0350  0.0262  0.0437  0.0000  0.0000  0.0000  0.0000  0.0000 </r>
       </set>
       <set comment="band 9">
        <r>  0.0000  0.0760  0.0397  0.0192  0.0000  0.0000  0.0000  0.0000  0.0000 </r>
        <r>  0.0000  0.0760  0.0397  0.0192  0.0000  0.0000  0.0000  0.0000  0.0000 </r>
       </set>
       <set comment="band 10">
        <r>  0.0000  0.0139  0.0470  0.0740  0.0000  0.0000  0.0000  0.0000  0.0000 </r>
        <r>  0.0000  0.0139  0.0470  0.0740  0.0000  0.0000  0.0000  0.0000  0.0000 </r>
       </set>
       <set comment="band 11">
        <r>  0.0254  0.0344  0.0258  0.0431  0.0000  0.0000  0.0000  0.0000  0.0000 </r>
        <r>  0.0254  0.0344  0.0258  0.0431  0.0000  0.0000  0.0000  0.0000  0.0000 </r>
       </set>
       <set comment="band 12">
        <r>  0.0254  0.0344  0.0258  0.0431  0.0000  0.0000  0.0000  0.0000  0.0000 </r>
        <r>  0.0254  0.0344  0.0258  0.0431  0.0000  0.0000  0.0000  0.0000  0.0000 </r>
       </set>
      </set>
     </set>
    </set>
   </array>
  </projected>
 </calculation>
 <structure name="finalpos" >
  <crystal>
   <varray name="basis" >
    <v>       3.34889800       0.00000000       1.93348700 </v>
    <v>       1.11629900       3.15737200       1.93348700 </v>
    <v>       0.00000000       0.00000000       3.86697500 </v>
   </varray>
   <i name="volume">     40.88829843 </i>
   <varray name="rec_basis" >
    <v>       0.29860569      -0.10557300       0.00000000 </v>
    <v>       0.00000000       0.31671909       0.00000000 </v>
    <v>      -0.14930281      -0.10557302       0.25860007 </v>
   </varray>
  </crystal>
  <varray name="positions" >
   <v>       0.25000000       0.25000000       0.25000000 </v>
   <v>       0.00000000       0.00000000       0.00000000 </v>
  </varray>
 </structure>
</modeling>
