------------------------------------------------------------
          Invoking FHI-aims ...

          When using FHI-aims, please cite the following reference:

            Volker Blum, Ralf Gehrke, Felix Hanke, Paula Havu,
            Ville Havu, Xinguo Ren, Karsten Reuter, and Matthias Scheffler,
            'Ab Initio Molecular Simulations with Numeric Atom-Centered Orbitals',
            Computer Physics Communications 180, 2175-2196 (2009)

          In addition, many other developments in FHI-aims are likely important for
          your particular application. If so, please cite them. A partial list of references
          is written at the end of this file. Thank you for giving credit to the authors
          of these developments.

          For general information about FHI-aims please find us at

            https://fhi-aims.org

          Online tutorials can be found at

            https://fhi-aims-club.gitlab.io/tutorials/tutorials-overview/

          For any questions about FHI-aims, please visit our slack channel at

            https://fhi-aims.slack.com

          and our main development and support site at

            https://aims-git.rz-berlin.mpg.de .

          The latter site, in particular, has a wiki to collect information, as well
          as an issue tracker to log discussions, suggest improvements, and report issues
          or bugs. https://aims-git.rz-berlin.mpg.de is also the main development site
          of the project and all new and updated code versions can be obtained there.
          Please send an email to aims-coordinators@fhi-berlin.mpg.de and we will add
          you to these sites. They are for you and everyone is welcome there.

------------------------------------------------------------



  Date     :  20230915, Time     :  161600.371
  Time zero on CPU 1             :   0.237489000000000E+00  s.
  Internal wall clock time zero  :           464026560.371  s.

  FHI-aims created a unique identifier for this run for later identification
  aims_uuid : 2CFE867D-C601-4525-A889-A4E70CE7A4DA

  Build configuration of the current instance of FHI-aims
  -------------------------------------------------------
  FHI-aims version      : 230813
  Commit number         : a3d3bb462
  CMake host system     : Linux-5.15.0-78-generic
  CMake version         : 3.22.1
  Fortran compiler      : /opt/intel/oneapi/mpi/2021.10.0/bin/mpiifort (Intel) version 2021.10.0.20230609
  Fortran compiler flags: -O3 -ip -fp-model precise
  C compiler            : /opt/intel/oneapi/compiler/2023.2.1/linux/bin/intel64/icc (Intel) version 2021.10.0.20230609
  C compiler flags      : -O3 -ip -fp-model precise -std=gnu99 -diag-disable=10441
  C++ compiler          : /usr/bin/c++ (GNU) version 11.4.0
  C++ compiler flags    :
  HIP compiler          :
  HIP compiler flags    :
  HIP GPU arch          :
  Using MPI
  Using ScaLAPACK
  Using LibXC
  Using i-PI
  Using RLSY
  Linking against: /opt/intel/oneapi/mkl/latest/lib/intel64/libmkl_intel_lp64.so
                   /opt/intel/oneapi/mkl/latest/lib/intel64/libmkl_sequential.so
                   /opt/intel/oneapi/mkl/latest/lib/intel64/libmkl_core.so
                   /opt/intel/oneapi/mkl/latest/lib/intel64/libmkl_blacs_intelmpi_lp64.so
                   /opt/intel/oneapi/mkl/latest/lib/intel64/libmkl_scalapack_lp64.so

  Using        4 parallel tasks.
  Task        0 on host andrey-Latitude-5411 reporting.
  Task        1 on host andrey-Latitude-5411 reporting.
  Task        2 on host andrey-Latitude-5411 reporting.
  Task        3 on host andrey-Latitude-5411 reporting.

  Obtaining array dimensions for all initial allocations:

  -----------------------------------------------------------------------
  Parsing control.in (first pass over file, find array dimensions only).
  The contents of control.in will be repeated verbatim below
  unless switched off by setting 'verbatim_writeout .false.' .
  in the first line of control.in .
  -----------------------------------------------------------------------

  #===============================================================================
  # Created using the Atomic Simulation Environment (ASE)

  # Fri Sep 15 16:15:59 2023

  #===============================================================================
  xc                                 pbe
  relativistic                       atomic_zora scalar
  relax_geometry                     trm 1.000000e-03
  relax_unit_cell                    none
  k_grid                             2 2 2
  #===============================================================================

  ################################################################################
  #
  #  FHI-aims code project
  #  VB, Fritz-Haber Institut, 2009
  #
  #  Suggested "light" defaults for Si atom (to be pasted into control.in file)
  #  Be sure to double-check any results obtained with these settings for post-processing,
  #  e.g., with the "tight" defaults and larger basis sets.
  #
  #  2020/09/08 Added f function to "light" after reinspection of Delta test outcomes.
  #             This was done for all of Al-Cl and is a tricky decision since it makes
  #             "light" calculations measurably more expensive for these elements.
  #             Nevertheless, outcomes for P, S, Cl (and to some extent, Si) appear
  #             to justify this choice.
  #
  ################################################################################
    species        Si
  #     global species definitions
      nucleus             14
      mass                28.0855
  #
      l_hartree           4
  #
      cut_pot             3.5          1.5  1.0
      basis_dep_cutoff    1e-4
  #
      radial_base         42 5.0
      radial_multiplier   1
      angular_grids       specified
        division   0.5866   50
        division   0.9616  110
        division   1.2249  194
        division   1.3795  302
  #      division   1.4810  434
  #      division   1.5529  590
  #      division   1.6284  770
  #      division   1.7077  974
  #      division   2.4068 1202
  #      outer_grid   974
        outer_grid 302
  ################################################################################
  #
  #  Definition of "minimal" basis
  #
  ################################################################################
  #     valence basis states
      valence      3  s   2.
      valence      3  p   2.
  #     ion occupancy
      ion_occ      3  s   1.
      ion_occ      3  p   1.
  ################################################################################
  #
  #  Suggested additional basis functions. For production calculations,
  #  uncomment them one after another (the most important basis functions are
  #  listed first).
  #
  #  Constructed for dimers: 1.75 A, 2.0 A, 2.25 A, 2.75 A, 3.75 A
  #
  ################################################################################
  #  "First tier" - improvements: -571.96 meV to -37.03 meV
       hydro 3 d 4.2
       hydro 2 p 1.4
       hydro 4 f 6.2
       ionic 3 s auto
  #  "Second tier" - improvements: -16.76 meV to -3.03 meV
  #     hydro 3 d 9
  #     hydro 5 g 9.4
  #     hydro 4 p 4
  #     hydro 1 s 0.65
  #  "Third tier" - improvements: -3.89 meV to -0.60 meV
  #     ionic 3 d auto
  #     hydro 3 s 2.6
  #     hydro 4 f 8.4
  #     hydro 3 d 3.4
  #     hydro 3 p 7.8
  #  "Fourth tier" - improvements: -0.33 meV to -0.11 meV
  #     hydro 2 p 1.6
  #     hydro 5 g 10.8
  #     hydro 5 f 11.2
  #     hydro 3 d 1
  #     hydro 4 s 4.5
  #  Further basis functions that fell out of the optimization - noise
  #  level... < -0.08 meV
  #     hydro 4 d 6.6
  #     hydro 5 g 16.4
  #     hydro 4 d 9

  -----------------------------------------------------------------------
  Completed first pass over input file control.in .
  -----------------------------------------------------------------------


  -----------------------------------------------------------------------
  Parsing geometry.in (first pass over file, find array dimensions only).
  The contents of geometry.in will be repeated verbatim below
  unless switched off by setting 'verbatim_writeout .false.' .
  in the first line of geometry.in .
  -----------------------------------------------------------------------

  #===============================================================================
  # Created using the Atomic Simulation Environment (ASE)

  # Fri Sep 15 16:15:59 2023

  #=======================================================
  lattice_vector 0.0000000000000000 2.7149999999999999 2.7149999999999999
  lattice_vector 2.7149999999999999 0.0000000000000000 2.7149999999999999
  lattice_vector 2.7149999999999999 2.7149999999999999 0.0000000000000000
  atom_frac -0.0460405156537753 0.0460405156537753 0.0460405156537753 Si
  atom_frac 0.2500000000000000 0.2500000000000000 0.2500000000000000 Si

  -----------------------------------------------------------------------
  Completed first pass over input file geometry.in .
  -----------------------------------------------------------------------


  Basic array size parameters:
  | Number of species                 :        1
  | Number of atoms                   :        2
  | Number of lattice vectors         :        3
  | Max. basis fn. angular momentum   :        3
  | Max. atomic/ionic basis occupied n:        3
  | Max. number of basis fn. types    :        3
  | Max. radial fns per species/type  :        5
  | Max. logarithmic grid size        :     1346
  | Max. radial integration grid size :       42
  | Max. angular integration grid size:      302
  | Max. angular grid division number :        8
  | Radial grid for Hartree potential :     1346
  | Number of spin channels           :        1

------------------------------------------------------------
          Reading file control.in.
------------------------------------------------------------
  XC: Using PBE gradient-corrected functionals.
  Scalar relativistic treatment of kinetic energy: on-site free-atom approximation to ZORA.
  Geometry relaxation: Modified BFGS - TRM (trust radius method) for lattice optimization.
  Convergence accuracy for geometry relaxation: Maximum force <   0.100000E-02 eV/A.
  Unit cell relaxation: No relaxation of the unit cell will be performed.
  Found k-point grid:         2         2         2

  Reading configuration options for species Si                  .
  | Found nuclear charge :  14.0000
  | Found atomic mass :    28.0855000000000      amu
  | Found l_max for Hartree potential  :   4
  | Found cutoff potl. onset [A], width [A], scale factor :    3.50000    1.50000    1.00000
  | Threshold for basis-dependent cutoff potential is   0.100000E-03
  | Found data for basic radial integration grid :    42 points, outermost radius =    5.000 A
  | Found multiplier for basic radial grid :   1
  | Found angular grid specification: user-specified.
  | Specified grid contains     5 separate shells.
  | Check grid settings after all constraints further below.
  | Found free-atom valence shell :  3 s   2.000
  | Found free-atom valence shell :  3 p   2.000
  | Found free-ion valence shell :  3 s   1.000
  | Found free-ion valence shell :  3 p   1.000
  | Found hydrogenic basis function :  3 d   4.200
  | Found hydrogenic basis function :  2 p   1.400
  | Found hydrogenic basis function :  4 f   6.200
  | Found ionic basis function :  3 s , default cutoff radius.
  Species Si                  : Missing cutoff potential type.
  Defaulting to exp(1/x)/(1-x)^2 type cutoff potential.
  Species Si: No 'logarithmic' tag. Using default grid for free atom:
  | Default logarithmic grid data [bohr] : 0.1000E-03 0.1000E+03 0.1012E+01
  | Will include ionic basis functions of  2.0-fold positive Si                   ion.
  Species Si: On-site basis accuracy parameter (for Gram-Schmidt orthonormalisation) not specified.
  Using default value basis_acc =  0.1000000E-03.
  Species Si                  : Using default innermost maximum threshold i_radial=  2 for radial functions.
  Species Si                  : Default cutoff onset for free atom density etc. : 0.35000000E+01 AA.
  Species Si                  : Basic radial grid will be enhanced according to radial_multiplier =   1, to contain    42 grid points.

  Finished reading input file 'control.in'.

------------------------------------------------------------


------------------------------------------------------------
          Reading geometry description geometry.in.
------------------------------------------------------------
  | The smallest distance between any two atoms is         2.21634130 AA.
  | The first atom of this pair is atom number                      1 .
  | The second atom of this pair is atom number                     2 .
  | Wigner-Seitz cell of the first atom image           1     0     0 .
  | (The Wigner-Seitz cell of the second atom is 0 0 0  by definition.)

  Symmetry information by spglib:
  | Precision set to  0.1E-04
  | Number of Operations  : 8
  | Space group           : 74
  | International         : Imma
  | Schoenflies           : D2h^28
  Input structure read successfully.
  The structure contains        2 atoms,  and a total of         28.000 electrons.

  Input geometry:
  | Unit cell:
  |        0.00000000        2.71500000        2.71500000
  |        2.71500000        0.00000000        2.71500000
  |        2.71500000        2.71500000        0.00000000
  | Atomic structure:
  |       Atom                x [A]            y [A]            z [A]
  |    1: Species Si            0.25000000        0.00000000        0.00000000
  |    2: Species Si            1.35750000        1.35750000        1.35750000

  Lattice parameters for 3D lattice (in Angstroms) :     3.839590    3.839590    3.839590
  Angle(s) between unit vectors (in degrees)       :    60.000000   60.000000   60.000000


  Quantities derived from the lattice vectors (in Angstrom^-1):
  | Reciprocal lattice vector 1: -1.157124  1.157124  1.157124
  | Reciprocal lattice vector 2:  1.157124 -1.157124  1.157124
  | Reciprocal lattice vector 3:  1.157124  1.157124 -1.157124
  | Unit cell volume                               :   0.400258E+02  Angstrom^3

  Fractional coordinates:
                         L1                L2                L3
       atom_frac        -0.04604052        0.04604052        0.04604052  Si
       atom_frac         0.25000000        0.25000000        0.25000000  Si


  Finished reading input file 'geometry.in'.



  Consistency checks for stacksize environment parameter are next.

  | Maximum stacksize for task 0: unlimited
  | Maximum stacksize for task 1: unlimited
  | Maximum stacksize for task 2: unlimited
  | Maximum stacksize for task 3: unlimited
  | Current stacksize for task 0: unlimited
  | Current stacksize for task 1: unlimited
  | Current stacksize for task 2: unlimited
  | Current stacksize for task 3: unlimited

  Consistency checks for the contents of control.in are next.

  MPI_IN_PLACE appears to work with this MPI implementation.
  | Keeping use_mpi_in_place .true. (see manual).
  Target number of points in a grid batch is not set. Defaulting to  100
  Method for grid partitioning is not set. Defaulting to parallel hash+maxmin partitioning.
  Batch size limit is not set. Defaulting to    200
  By default, will store active basis functions for each batch.
  If in need of memory, prune_basis_once .false. can be used to disable this option.
  communication_type for Hartree potential was not specified.
  Defaulting to calc_hartree .
  Defaulting to Pulay charge density mixer.
  Pulay mixer: Number of relevant iterations not set.
  Defaulting to    8 iterations.
  Pulay mixer: Number of initial linear mixing iterations not set.
  Defaulting to    0 iterations.
  Work space size for distributed Hartree potential not set.
  Defaulting to   0.200000E+03 MB.
  Mixing parameter for charge density mixing has not been set.
  Using default: charge_mix_param =     0.0500.
  The mixing parameter will be adjusted in iteration number     2 of the first full s.c.f. cycle only.
  Algorithm-dependent basis array size parameters:
  | n_max_pulay                         :        8
  Maximum number of self-consistency iterations not provided.
  Presetting  1000 iterations.
  Presetting      1001 iterations before the initial mixing cycle
  is restarted anyway using the sc_init_iter criterion / keyword.
  Presetting a factor      1.000 between actual scf density residual
  and density convergence criterion sc_accuracy_rho below which sc_init_iter
  takes no effect.
 * No s.c.f. convergence criteria (sc_accuracy_*) were provided in control.in.
 * The run will proceed with a reasonable default guess, but please check whether.
 * the s.c.f. cycles seem to take too much or too little time.
  No maximum number of relaxation steps, defaulting to     1000
  Default initial Hessian is Lindh matrix (thres = 15.00) plus  0.200000E+01 eV/A^2 times unity.
  No maximum energy tolerance for TRM/BFGS moves, defaulting to   0.150000E-02
  Maximum energy tolerance by which TRM/BFGS trajectory may increase over multiple steps:   0.300000E-02
  No harmonic length scale. Defaulting to   0.250000E-01 A.
  No trust radius initializer. Defaulting to   0.200000E+00 A.
  Forces evaluation will include force correction term due to incomplete self-consistency (default).
 * Notice: The s.c.f. convergence criterion sc_accuracy_rho was not provided.
 * We used to stop in this case, and ask the user to provide reasonable
 * scf convergence criteria. However, this led some users to employ criteria
 * that led to extremely long run times, e.g., for simple relaxation.
 * We now preset a default value for sc_accuracy_rho if it is not set.
 * You may still wish to check if this setting is too tight or too loose for your needs.
 * Based on n_atoms and forces and force-correction status, FHI-aims chose sc_accuracy_rho =  0.800000E-05 .
  Force calculation: scf convergence accuracy of forces not set.
  Defaulting to 'sc_accuracy_forces not_checked'.
  Handling of forces: Unphysical translation and rotation will be removed from forces.
  No accuracy limit for integral partition fn. given. Defaulting to  0.1000E-14.
  No threshold value for u(r) in integrations given. Defaulting to  0.1000E-05.
  No occupation type (smearing scheme) given. Defaulting to Gaussian broadening, width =  0.1000E-01 eV.
  The width will be adjusted in iteration number     2 of the first full s.c.f. cycle only.
  S.C.F. convergence parameters will be adjusted in iteration number     2 of the first full s.c.f. cycle only.
  No accuracy for occupation numbers given. Defaulting to  0.1000E-12.
  No threshold value for occupation numbers given. Defaulting to  0.0000E+00.
  No accuracy for fermi level given. Defaulting to  0.1000E-19.
  Maximum # of iterations to find E_F not set. Defaulting to  200.
  Preferred method for the eigenvalue solver ('KS_method') not specified in 'control.in'.
  Defaulting to serial version, LAPACK (via ELSI), since more k-points than CPUs available.
  Will not use alltoall communication since running on < 1024 CPUs.
  Threshold for basis singularities not set.
  Default threshold for basis singularities:  0.1000E-04
  partition_type (choice of integration weights) for integrals was not specified.
  | Using a version of the partition function of Stratmann and coworkers ('stratmann_sparse').
  | At each grid point, the set of atoms used to build the partition table is smoothly restricted to
  | only those atoms whose free-atom density would be non-zero at that grid point.
  Partitioning for Hartree potential was not defined. Using partition_type for integrals.
  | Adjusted default value of keyword multip_moments_threshold to:       0.10000000E-11
  | This value may affect high angular momentum components of the Hartree potential in periodic systems.
  Spin handling was not defined in control.in. Defaulting to unpolarized case.
  Angular momentum expansion for Kerker preconditioner not set explicitly.
  | Using default value of   0
  No explicit requirement for turning off preconditioner.
  | By default, it will be turned off when the charge convergence reaches
  | sc_accuracy_rho  =   0.800000E-05
  No special mixing parameter while Kerker preconditioner is on.
  Using default: charge_mix_param =     0.0500.
  No q(lm)/r^(l+1) cutoff set for long-range Hartree potential.
  | Using default value of  0.100000E-09 .
  | Verify using the multipole_threshold keyword.
  Defaulting to new monopole extrapolation.
  Density update method: automatic selection selected.
  Using density matrix based charge density update.
  Using density matrix based charge density update.
  Using packed matrix style: index .
  Geometry relaxation: A file "geometry.in.next_step" is written out by default after each step.
  | This file contains the geometry of the current relaxation step as well as
  | the current Hessian matrix needed to restart the relaxation algorithm.
  | If you do not want part or all of this information, use the keywords
  | "write_restart_geometry" or "hessian_to_restart_geometry" to switch the output off.
  Defaulting to use time-reversal symmetry for k-point grid.
  Charge integration errors on the 3D integration grid will be compensated
  by explicit normalization and distribution of residual charges.
  Use the "compensate_multipole_errors" flag to change this behaviour.
  Set 'collect_eigenvectors' to be '.true.' for all serial calculations. This is mandatory.
  Set 'collect_eigenvectors' to be '.true.' for KS_method lapack_fast and serial.

  Consistency checks for the contents of geometry.in are next.


  Range separation radius for Ewald summation (hartree_convergence_parameter):      3.88818726 bohr.
  Number of empty states per atom not set in control.in - providing a guess from actual geometry.
  | Total number of empty states used during s.c.f. cycle:        6
  If you use a very high smearing, use empty_states (per atom!) in control.in to increase this value.

  Structure-dependent array size parameters:
  | Maximum number of distinct radial functions  :        9
  | Maximum number of basis functions            :       50
  | Number of Kohn-Sham states (occupied + empty):       20
------------------------------------------------------------
  After read_input_data [GB]:     24.36

  Performing system and environment tests:
  | Environment variable OMP_NUM_THREADS correctly set to 1.
  | Checking for ScaLAPACK...
  | Testing pdtran()...
  | All pdtran() tests passed.
  After prepare_system [GB]:     24.33

------------------------------------------------------------
          Preparing all fixed parts of the calculation.
------------------------------------------------------------
  Determining machine precision:
    2.225073858507201E-308
  Setting up grids for atomic and cluster calculations.

  Creating wave function, potential, and density for free atoms.
  Runtime choices for atomic solver:
  | atomic solver xc        : PBE
  | compute density gradient: 1
  | compute kinetic density : F

  Species: Si

  List of occupied orbitals and eigenvalues:
    n    l              occ      energy [Ha]    energy [eV]
    1    0           2.0000       -65.767597     -1789.6274
    2    0           2.0000        -5.115610      -139.2028
    3    0           2.0000        -0.388877       -10.5819
    2    1           6.0000        -3.500197       -95.2452
    3    1           2.0000        -0.140803        -3.8315


  Adding cutoff potential to free-atom effective potential.
  Creating fixed part of basis set: Ionic, confined, hydrogenic.

  Si                   ion:

  List of free ionic orbitals and eigenvalues:
    n    l      energy [Ha]    energy [eV]
    1    0       -66.641157     -1813.3982
    2    0        -5.964274      -162.2962
    3    0        -1.073878       -29.2217
    2    1        -4.350005      -118.3697
    3    1        -0.776571       -21.1316


  List of ionic basis orbitals and eigenvalues:
    n    l      energy [Ha]    energy [eV]    outer radius [A]
    3    0        -1.073857       -29.2211       4.214062


  Si                   hydrogenic:

  List of hydrogenic basis orbitals:
    n    l      effective z      eigenvalue [eV]  inner max. [A]     outer max. [A]     outer radius [A]
    3    2         4.200000       -26.6624           1.139231           1.139231           4.534782
    2    1         1.400000        -6.4613           1.472672           1.472672           4.590560
    4    3         6.200000       -32.6778           1.368518           1.368518           4.534782

  Creating atomic-like basis functions for current effective potential.

  Species Si                  :

  List of atomic basis orbitals and eigenvalues:
    n    l      energy [Ha]    energy [eV]    outer radius [A]
    1    0       -65.767597     -1789.6274       0.789468
    2    0        -5.115610      -139.2028       2.815114
    3    0        -0.388877       -10.5819       4.534782
    2    1        -3.500197       -95.2452       3.259919
    3    1        -0.140803        -3.8315       4.590560

  Assembling full basis from fixed parts.
  | Species Si :   atomic orbital   1 s accepted.
  | Species Si :   atomic orbital   2 s accepted.
  | Species Si :    ionic orbital   3 s accepted.
  | Species Si :   atomic orbital   3 s accepted.
  | Species Si :   atomic orbital   2 p accepted.
  | Species Si :   atomic orbital   3 p accepted.
  | Species Si :    hydro orbital   2 p accepted.
  | Species Si :    hydro orbital   3 d accepted.
  | Species Si :    hydro orbital   4 f accepted.

  Basis size parameters after reduction:
  | Total number of radial functions:        9
  | Total number of basis functions :       50

  Per-task memory consumption for arrays in subroutine allocate_ext:
  |           3.102808MB.
  Testing on-site integration grid accuracy.
  |  Species  Function  <phi|h_atom|phi> (log., in eV)  <phi|h_atom|phi> (rad., in eV)
           1        1              -1789.6273740966              -1789.6266345813
           1        2               -139.2028173376               -139.2028132357
           1        3                -10.2237226190                -10.2235219160
           1        4                  5.6355365073                  5.5558633521 ***
           1        5                -95.2452114632                -95.2452114537
           1        6                 -3.8413965043                 -3.8571292824
           1        7                  6.4035522332                  6.2277973139 ***
           1        8                  6.3860095444                  6.3839142324
           1        9                 19.3722793793                 19.3677446767
 * Note: Onsite integrals marked "***" above are less accurate than
 * onsite_accuracy_threshold =    0.03000 eV. Usually, this is harmless.
 * When in doubt, tighten the "radial" and/or "radial_multiplier" flags to check.

  Preparing densities etc. for the partition functions (integrals / Hartree potential).

  Preparations completed.
  max(cpu_time)          :      0.111 s.
  Wall clock time (cpu1) :      0.110 s.
------------------------------------------------------------
  After prepare_scf [GB]:     24.28

  Initializing index lists of integration centers etc. from given atomic structure:
  Mapping all atomic coordinates to central unit cell.

  Initializing the k-points
  Using symmetry for reducing the k-points
  | k-points reduced from:        8 to        8
  | Number of k-points                             :         8
  The eigenvectors in the calculations are REAL.
  | K-points in task   0:         2
  | K-points in task   1:         2
  | K-points in task   2:         2
  | K-points in task   3:         2
  | Number of basis functions in the Hamiltonian integrals :      1984
  | Number of basis functions in a single unit cell        :        50
  | Number of centers in hartree potential         :       716
  | Number of centers in hartree multipole         :       318
  | Number of centers in electron density summation:       202
  | Number of centers in basis integrals           :       216
  | Number of centers in integrals                 :       101
  | Number of centers in hamiltonian               :       202
  | Consuming         14 KiB for k_phase.
  | Number of super-cells (origin) [n_cells]                     :        2197
  | Number of super-cells (after PM_index) [n_cells]             :         116
  | Number of super-cells in hamiltonian [n_cells_in_hamiltonian]:         116
  | Size of matrix packed + index [n_hamiltonian_matrix_size] :       89485
  After initialize_bc_dependent_lists [GB]:     24.28

------------------------------------------------------------
          Begin self-consistency loop: Initialization.

          Date     :  20230915, Time     :  161600.520
------------------------------------------------------------

  Initializing relaxation algorithms.
  Finished initialization of distributed Hessian storage.
  | Global dimension:         6
  | BLACS block size:         2
  | Number of workers:        3

  Available memory per node after initialize_hartree_non_periodic_ewald [GB]:     24.28
  | Estimated reciprocal-space cutoff momentum G_max:         2.40094914 bohr^-1 .
  | Reciprocal lattice points for long-range Hartree potential:      58
  Available memory per node after initialize_recip_hartree_potential [GB]:     24.28
  Available memory per node after initialize_scalapack [GB]:     24.28
  Available memory per node after aims_elsi_init_scf [GB]:     24.28
  Available memory per node after initialize_fixed_grids [GB]:     24.28
  Partitioning the integration grid into batches with parallel hashing+maxmin method.
  | Number of batches:      142
  | Maximal batch size:     112
  | Minimal batch size:      54
  | Average batch size:      78.930
  | Standard deviation of batch sizes:      12.368

  Integration load balanced across     4 MPI tasks.
  Work distribution over tasks is as follows:
  Task     0 has       2757 integration points.
  Task     1 has       2805 integration points.
  Task     2 has       2805 integration points.
  Task     3 has       2841 integration points.
  Available memory per node after partition_grid [GB]:     24.28
  Initializing partition tables, free-atom densities, potentials, etc. across the integration grid (initialize_grid_storage).
  | initialize_grid_storage: Actual outermost partition radius vs. multipole_radius_free
  | (-- VB: in principle, multipole_radius_free should be larger, hence this output)
  | Species        1: Confinement radius =              4.999999999999999 AA, multipole_radius_free =              5.000694715736543 AA.
  | Species        1: outer_partition_radius set to              5.000694715736543 AA .
  | The sparse table of interatomic distances needs        238.23 kbyte instead of       373.25 kbyte of memory.
  | Net number of integration points:    11208
  | of which are non-zero points    :     9792
  | Numerical average free-atom electrostatic potential    :    -13.13229320 eV
  Available memory per node after initialize_grid_storage_p1 [GB]:     24.26
  Renormalizing the initial density to the exact electron count on the 3D integration grid.
  | Initial density: Formal number of electrons (from input files) :      28.0000000000
  | Integrated number of electrons on 3D grid     :      28.0018988401
  | Charge integration error                      :       0.0018988401
  | Normalization factor for density and gradient :       0.9999321889
  Renormalizing the free-atom superposition density to the exact electron count on the 3D integration grid.
  | Formal number of electrons (from input files) :      28.0000000000
  | Integrated number of electrons on 3D grid     :      28.0018988401
  | Charge integration error                      :       0.0018988401
  | Normalization factor for density and gradient :       0.9999321889
  Obtaining max. number of non-zero basis functions in each batch (get_n_compute_maxes).
  | Maximal number of non-zero basis functions:      689 in task     0
  | Maximal number of non-zero basis functions:      722 in task     1
  | Maximal number of non-zero basis functions:      703 in task     2
  | Maximal number of non-zero basis functions:      693 in task     3
  Available memory per node after get_n_compute_maxes_p1 [GB]:     24.26
  Allocating        0.015 MB for KS_eigenvector
  Available memory per node after allocate_matrices [GB]:     24.26
  Available memory per node after init_comm_sparse_local_matrix_scalapack [GB]:     24.26
  Integrating Hamiltonian matrix: batch-based integration.
  Time summed over all CPUs for integration: real work        0.640 s, elapsed        0.652 s
  Available memory per node after integrate hamiltonian matrix [GB]:     24.25
  Integrating overlap matrix.
  Time summed over all CPUs for integration: real work        0.442 s, elapsed        0.452 s
  Available memory per node after integrate ovlp matrix [GB]:     24.24
  Available memory per node after ASI_callbacks invoke [GB]:     24.24
  Decreasing sparse matrix size:
  | Tolerance:  0.1000E-12
  Hamiltonian matrix
  | Array has    80814 nonzero elements out of    89485 elements
  | Sparsity factor is 0.097
  Overlap matrix
  | Array has    77566 nonzero elements out of    89485 elements
  | Sparsity factor is 0.133
  New size of hamiltonian matrix:       81129
  Available memory per node after save_overlap_scalapack [GB]:     24.24

  Updating Kohn-Sham eigenvalues and eigenvectors using ELSI and the (modified) LAPACK eigensolver.
  Singularity check in k-point 4, task 0 (analysis for other k-points/tasks may follow below):
  Overlap matrix is not singular
  | Lowest and highest eigenvalues :  0.3320E-03,  0.4523E+01
  Finished singularity check of overlap matrix
  | Time :     0.000 s
  Starting LAPACK eigensolver
  Finished Cholesky decomposition
  | Time :     0.000 s
  Finished transformation to standard eigenproblem
  | Time :     0.000 s
  Finished solving standard eigenproblem
  | Time :     0.000 s
  Finished back-transformation of eigenvectors
  | Time :     0.000 s

  Obtaining occupation numbers and electronic chemical potential using ELSI.
  | Note that, for insulating systems, the printed 'chemical potential' value is not uniquely defined.
  | It can be anywhere in the energy gap, as long as it correctly separates occupied and unoccupied states.
  | In systems with a gap, the physically relevant chemical potential is the VBM or HOMO.

  | Chemical potential (Fermi level):    -5.61647815 eV
  Available memory per node after advance_KS_solution [GB]:     24.24
  Writing Kohn-Sham eigenvalues.
  K-point:       1 at    0.000000    0.000000    0.000000 (in units of recip. lattice)

  State    Occupation    Eigenvalue [Ha]    Eigenvalue [eV]
      1       2.00000         -65.791110        -1790.26718
      2       2.00000         -65.791110        -1790.26718
      3       2.00000          -5.143952         -139.97405
      4       2.00000          -5.143565         -139.96352
      5       2.00000          -3.530415          -96.06747
      6       2.00000          -3.528796          -96.02344
      7       2.00000          -3.528216          -96.00764
      8       2.00000          -3.527612          -95.99120
      9       2.00000          -3.527059          -95.97615
     10       2.00000          -3.526975          -95.97387
     11       2.00000          -0.664713          -18.08776
     12       2.00000          -0.272918           -7.42647
     13       2.00000          -0.219605           -5.97576
     14       0.00000          -0.178256           -4.85060
     15       0.00000          -0.150254           -4.08862
     16       0.00000          -0.132003           -3.59199
     17       0.00000          -0.104832           -2.85263
     18       0.00000          -0.098840           -2.68957
     19       0.00000           0.067685            1.84179
     20       0.00000           0.084536            2.30033

  What follows are estimated values for band gap, HOMO, LUMO, etc.
  | They are estimated on a discrete k-point grid and not necessarily exact.
  | For converged numbers, create a DOS and/or band structure plot on a denser k-grid.

  Highest occupied state (VBM) at     -5.75785908 eV (relative to internal zero)
  | Occupation number:      2.00000000
  | K-point:       4 at    0.000000    0.500000    0.500000 (in units of recip. lattice)

  Lowest unoccupied state (CBM) at    -5.25552494 eV (relative to internal zero)
  | Occupation number:      0.00000000
  | K-point:       7 at    0.500000    0.500000    0.000000 (in units of recip. lattice)

  ESTIMATED overall HOMO-LUMO gap:      0.50233414 eV between HOMO at k-point 4 and LUMO at k-point 7
  | This appears to be an indirect band gap.
  | Smallest direct gap :      1.12516009 eV for k_point 1 at    0.000000    0.000000    0.000000 (in units of recip. lattice)
  The gap value is above 0.2 eV. Unless you are using a very sparse k-point grid,
  this system is most likely an insulator or a semiconductor.
  Calculating total energy contributions from superposition of free atom densities.

  Total energy components:
  | Sum of eigenvalues            :        -329.27452291 Ha       -8960.01564889 eV
  | XC energy correction          :         -41.73247423 Ha       -1135.59840235 eV
  | XC potential correction       :          53.89578683 Ha        1466.57897831 eV
  | Free-atom electrostatic energy:        -263.53136289 Ha       -7171.05324339 eV
  | Hartree energy correction     :           0.00000000 Ha           0.00000000 eV
  | Entropy correction            :          -0.00000000 Ha          -0.00000000 eV
  | ---------------------------
  | Total energy                  :        -580.64257320 Ha      -15800.08831631 eV
  | Total energy, T -> 0          :        -580.64257320 Ha      -15800.08831631 eV  <-- do not rely on this value for anything but (periodic) metals
  | Electronic free energy        :        -580.64257320 Ha      -15800.08831631 eV

  Derived energy quantities:
  | Kinetic energy                :         582.42949298 Ha       15848.71287770 eV
  | Electrostatic energy          :       -1121.33959195 Ha      -30513.20279167 eV
  | Energy correction for multipole
  | error in Hartree potential    :           0.00000000 Ha           0.00000000 eV
  | Sum of eigenvalues per atom                           :       -4480.00782444 eV
  | Total energy (T->0) per atom                          :       -7900.04415816 eV  <-- do not rely on this value for anything but (periodic) metals
  | Electronic free energy per atom                       :       -7900.04415816 eV
  Initialize hartree_potential_storage
  Max. number of atoms included in rho_multipole:            2

  End scf initialization - timings             :  max(cpu_time)    wall_clock(cpu1)
  | Time for scf. initialization                :        0.380 s           0.380 s
  | Boundary condition initialization           :        0.022 s           0.022 s
  | Relaxation initialization                   :        0.001 s           0.001 s
  | Integration                                 :        0.279 s           0.279 s
  | Solution of K.-S. eqns.                     :        0.002 s           0.002 s
  | Grid partitioning                           :        0.016 s           0.016 s
  | Preloading free-atom quantities on grid     :        0.072 s           0.072 s
  | Free-atom superposition energy              :        0.008 s           0.008 s
  | Total energy evaluation                     :        0.000 s           0.000 s

  Partial memory accounting:
  | Current value for overall tracked memory usage:
  |   Minimum:        1.598 MB (on task 3)
  |   Maximum:        1.598 MB (on task 0)
  |   Average:        1.598 MB
  | Peak value for overall tracked memory usage:
  |   Minimum:        7.161 MB (on task 0 after allocating wave)
  |   Maximum:        7.602 MB (on task 1 after allocating wave)
  |   Average:        7.331 MB
  | Largest tracked array allocation so far:
  |   Minimum:        3.622 MB (hamiltonian_shell on task 0)
  |   Maximum:        3.977 MB (hamiltonian_shell on task 1)
  |   Average:        3.758 MB
  Note:  These values currently only include a subset of arrays which are explicitly tracked.
  The "true" memory usage will be greater.
------------------------------------------------------------
  Available memory after initialize_scf [GB]:     24.24
  Available memory after allocating mixing [GB]:     24.24
  Evaluating new KS density using the density matrix
  Evaluating density matrix
  Time summed over all CPUs for getting density from density matrix: real work        1.349 s, elapsed        1.373 s
  Integration grid: deviation in total charge (<rho> - N_e) =   3.552714E-15

  Time for density update prior                :  max(cpu_time)    wall_clock(cpu1)
  | self-consistency iterative process          :        0.344 s           0.345 s
  Available memory before start of SCF loop [GB]:     24.22

------------------------------------------------------------
          Begin self-consistency iteration #    1

  Date     :  20230915, Time     :  161601.245
------------------------------------------------------------
  Pulay mixing of updated and previous charge densities.
  Available memory per node after mixing [GB]:     24.22
  Renormalizing the density to the exact electron count on the 3D integration grid.
  | Formal number of electrons (from input files) :      28.0000000000
  | Integrated number of electrons on 3D grid     :      27.9997589791
  | Charge integration error                      :      -0.0002410209
  | Normalization factor for density and gradient :       1.0000086080

  Evaluating partitioned Hartree potential by multipole expansion.
  | Original multipole sum: apparent total charge =  -0.345452E-13
  | Sum of charges compensated after spline to logarithmic grids =  -0.435379E-05
  | Analytical far-field extrapolation by fixed multipoles:
  | Hartree multipole sum: apparent total charge =   0.000000E+00
  Summing up the Hartree potential.
  Time summed over all CPUs for potential: real work        0.036 s, elapsed        0.037 s
  | RMS charge density error from multipole expansion :   0.698119E-03
  | Average real-space part of the electrostatic potential :      0.01987278 eV

  Integrating Hamiltonian matrix: batch-based integration.
  Time summed over all CPUs for integration: real work        0.617 s, elapsed        0.628 s

  Updating Kohn-Sham eigenvalues and eigenvectors using ELSI and the (modified) LAPACK eigensolver.
  Starting LAPACK eigensolver
  Finished Cholesky decomposition
  | Time :     0.000 s
  Finished transformation to standard eigenproblem
  | Time :     0.000 s
  Finished solving standard eigenproblem
  | Time :     0.001 s
  Finished back-transformation of eigenvectors
  | Time :     0.000 s

  Obtaining occupation numbers and electronic chemical potential using ELSI.
  | Note that, for insulating systems, the printed 'chemical potential' value is not uniquely defined.
  | It can be anywhere in the energy gap, as long as it correctly separates occupied and unoccupied states.
  | In systems with a gap, the physically relevant chemical potential is the VBM or HOMO.

  | Chemical potential (Fermi level):    -5.59589223 eV
  Writing Kohn-Sham eigenvalues.
  K-point:       1 at    0.000000    0.000000    0.000000 (in units of recip. lattice)

  State    Occupation    Eigenvalue [Ha]    Eigenvalue [eV]
      1       2.00000         -65.787933        -1790.18074
      2       2.00000         -65.787933        -1790.18074
      3       2.00000          -5.141555         -139.90883
      4       2.00000          -5.141168         -139.89830
      5       2.00000          -3.527803          -95.99642
      6       2.00000          -3.526186          -95.95240
      7       2.00000          -3.525730          -95.93999
      8       2.00000          -3.525125          -95.92353
      9       2.00000          -3.524767          -95.91379
     10       2.00000          -3.524683          -95.91150
     11       2.00000          -0.663651          -18.05888
     12       2.00000          -0.270971           -7.37351
     13       2.00000          -0.218414           -5.94335
     14       0.00000          -0.177644           -4.83393
     15       0.00000          -0.149400           -4.06537
     16       0.00000          -0.131040           -3.56577
     17       0.00000          -0.103456           -2.81518
     18       0.00000          -0.098168           -2.67130
     19       0.00000           0.068449            1.86260
     20       0.00000           0.085000            2.31298

  What follows are estimated values for band gap, HOMO, LUMO, etc.
  | They are estimated on a discrete k-point grid and not necessarily exact.
  | For converged numbers, create a DOS and/or band structure plot on a denser k-grid.

  Highest occupied state (VBM) at     -5.73539854 eV (relative to internal zero)
  | Occupation number:      2.00000000
  | K-point:       4 at    0.000000    0.500000    0.500000 (in units of recip. lattice)

  Lowest unoccupied state (CBM) at    -5.24301236 eV (relative to internal zero)
  | Occupation number:      0.00000000
  | K-point:       7 at    0.500000    0.500000    0.000000 (in units of recip. lattice)

  ESTIMATED overall HOMO-LUMO gap:      0.49238618 eV between HOMO at k-point 4 and LUMO at k-point 7
  | This appears to be an indirect band gap.
  | Smallest direct gap :      1.10941832 eV for k_point 1 at    0.000000    0.000000    0.000000 (in units of recip. lattice)
  The gap value is above 0.2 eV. Unless you are using a very sparse k-point grid,
  this system is most likely an insulator or a semiconductor.

  Total energy components:
  | Sum of eigenvalues            :        -329.21380135 Ha       -8958.36333135 eV
  | XC energy correction          :         -41.73649670 Ha       -1135.70785948 eV
  | XC potential correction       :          53.90100614 Ha        1466.72100307 eV
  | Free-atom electrostatic energy:        -263.53136289 Ha       -7171.05324339 eV
  | Hartree energy correction     :          -0.06079490 Ha          -1.65431341 eV
  | Entropy correction            :          -0.00000000 Ha          -0.00000000 eV
  | ---------------------------
  | Total energy                  :        -580.64144971 Ha      -15800.05774456 eV
  | Total energy, T -> 0          :        -580.64144971 Ha      -15800.05774456 eV  <-- do not rely on this value for anything but (periodic) metals
  | Electronic free energy        :        -580.64144971 Ha      -15800.05774456 eV

  Derived energy quantities:
  | Kinetic energy                :         582.44805154 Ha       15849.21788161 eV
  | Electrostatic energy          :       -1121.35300454 Ha      -30513.56776669 eV
  | Energy correction for multipole
  | error in Hartree potential    :           0.00095282 Ha           0.02592754 eV
  | Sum of eigenvalues per atom                           :       -4479.18166568 eV
  | Total energy (T->0) per atom                          :       -7900.02887228 eV  <-- do not rely on this value for anything but (periodic) metals
  | Electronic free energy per atom                       :       -7900.02887228 eV
  Evaluating new KS density using the density matrix
  Evaluating density matrix
  Time summed over all CPUs for getting density from density matrix: real work        1.339 s, elapsed        1.364 s
  Integration grid: deviation in total charge (<rho> - N_e) =   3.907985E-14

  Self-consistency convergence accuracy:
  | Change of charge density      :  0.1429E+00
  | Change of unmixed KS density  :  0.3262E+02
  | Change of sum of eigenvalues  :  0.1652E+01 eV
  | Change of total energy        :  0.3057E-01 eV


------------------------------------------------------------
  End self-consistency iteration #     1       :  max(cpu_time)    wall_clock(cpu1)
  | Time for this iteration                     :        0.593 s           0.593 s
  | Charge density update                       :        0.342 s           0.342 s
  | Density mixing & preconditioning            :        0.051 s           0.051 s
  | Hartree multipole update                    :        0.001 s           0.000 s
  | Hartree multipole summation                 :        0.039 s           0.039 s
  | Integration                                 :        0.159 s           0.159 s
  | Solution of K.-S. eqns.                     :        0.002 s           0.001 s
  | Total energy evaluation                     :        0.000 s           0.000 s

  Partial memory accounting:
  | Current value for overall tracked memory usage:
  |   Minimum:        3.134 MB (on task 0)
  |   Maximum:        3.180 MB (on task 3)
  |   Average:        3.159 MB
  | Peak value for overall tracked memory usage:
  |   Minimum:       10.288 MB (on task 0 after allocating gradient_basis_wave)
  |   Maximum:       10.839 MB (on task 1 after allocating gradient_basis_wave)
  |   Average:       10.515 MB
  | Largest tracked array allocation so far:
  |   Minimum:        3.622 MB (hamiltonian_shell on task 0)
  |   Maximum:        3.977 MB (hamiltonian_shell on task 1)
  |   Average:        3.758 MB
  Note:  These values currently only include a subset of arrays which are explicitly tracked.
  The "true" memory usage will be greater.
------------------------------------------------------------

------------------------------------------------------------
          Begin self-consistency iteration #    2

  Date     :  20230915, Time     :  161601.838
------------------------------------------------------------
  Pulay mixing of updated and previous charge densities.
  Available memory per node after mixing [GB]:     24.21
  Renormalizing the density to the exact electron count on the 3D integration grid.
  | Formal number of electrons (from input files) :      28.0000000000
  | Integrated number of electrons on 3D grid     :      27.9957488191
  | Charge integration error                      :      -0.0042511809
  | Normalization factor for density and gradient :       1.0001518509

  Evaluating partitioned Hartree potential by multipole expansion.
  | Original multipole sum: apparent total charge =   0.252020E-14
  | Sum of charges compensated after spline to logarithmic grids =  -0.809715E-04
  | Analytical far-field extrapolation by fixed multipoles:
  | Hartree multipole sum: apparent total charge =   0.000000E+00
  Summing up the Hartree potential.
  Time summed over all CPUs for potential: real work        0.043 s, elapsed        0.044 s
  | RMS charge density error from multipole expansion :   0.129822E-01
  | Average real-space part of the electrostatic potential :      0.36517740 eV

  Integrating Hamiltonian matrix: batch-based integration.
  Time summed over all CPUs for integration: real work        0.619 s, elapsed        0.629 s

  Updating Kohn-Sham eigenvalues and eigenvectors using ELSI and the (modified) LAPACK eigensolver.
  Starting LAPACK eigensolver
  Finished Cholesky decomposition
  | Time :     0.000 s
  Finished transformation to standard eigenproblem
  | Time :     0.000 s
  Finished solving standard eigenproblem
  | Time :     0.000 s
  Finished back-transformation of eigenvectors
  | Time :     0.000 s

  Obtaining occupation numbers and electronic chemical potential using ELSI.
  | Note that, for insulating systems, the printed 'chemical potential' value is not uniquely defined.
  | It can be anywhere in the energy gap, as long as it correctly separates occupied and unoccupied states.
  | In systems with a gap, the physically relevant chemical potential is the VBM or HOMO.

  | Chemical potential (Fermi level):    -5.17685768 eV
  What follows are estimated values for band gap, HOMO, LUMO, etc.
  | They are estimated on a discrete k-point grid and not necessarily exact.
  | For converged numbers, create a DOS and/or band structure plot on a denser k-grid.

  Highest occupied state (VBM) at     -5.29021674 eV (relative to internal zero)
  | Occupation number:      2.00000000
  | K-point:       4 at    0.000000    0.500000    0.500000 (in units of recip. lattice)

  Lowest unoccupied state (CBM) at    -4.95073282 eV (relative to internal zero)
  | Occupation number:      0.00000000
  | K-point:       7 at    0.500000    0.500000    0.000000 (in units of recip. lattice)

  ESTIMATED overall HOMO-LUMO gap:      0.33948392 eV between HOMO at k-point 4 and LUMO at k-point 7
  | This appears to be an indirect band gap.
  | Smallest direct gap :      0.81811703 eV for k_point 1 at    0.000000    0.000000    0.000000 (in units of recip. lattice)
  The gap value is above 0.2 eV. Unless you are using a very sparse k-point grid,
  this system is most likely an insulator or a semiconductor.

  Checking to see if s.c.f. parameters should be adjusted.
  The system likely has a gap. Increased the default Pulay mixing parameter (charge_mix_param). Value:   0.200000 .
  Kept the default occupation width. Value:   0.010000 eV.

  Total energy components:
  | Sum of eigenvalues            :        -328.15433834 Ha       -8929.53387604 eV
  | XC energy correction          :         -41.82581746 Ha       -1138.13840081 eV
  | XC potential correction       :          54.01515771 Ha        1469.82722531 eV
  | Free-atom electrostatic energy:        -263.53136289 Ha       -7171.05324339 eV
  | Hartree energy correction     :          -1.13691215 Ha         -30.93695368 eV
  | Entropy correction            :          -0.00000000 Ha          -0.00000000 eV
  | ---------------------------
  | Total energy                  :        -580.63327313 Ha      -15799.83524860 eV
  | Total energy, T -> 0          :        -580.63327313 Ha      -15799.83524860 eV  <-- do not rely on this value for anything but (periodic) metals
  | Electronic free energy        :        -580.63327313 Ha      -15799.83524860 eV

  Derived energy quantities:
  | Kinetic energy                :         582.73148499 Ha       15856.93049834 eV
  | Electrostatic energy          :       -1121.53894066 Ha      -30518.62734614 eV
  | Energy correction for multipole
  | error in Hartree potential    :           0.01763212 Ha           0.47979439 eV
  | Sum of eigenvalues per atom                           :       -4464.76693802 eV
  | Total energy (T->0) per atom                          :       -7899.91762430 eV  <-- do not rely on this value for anything but (periodic) metals
  | Electronic free energy per atom                       :       -7899.91762430 eV
  Evaluating new KS density using the density matrix
  Evaluating density matrix
  Time summed over all CPUs for getting density from density matrix: real work        1.355 s, elapsed        1.381 s
  Integration grid: deviation in total charge (<rho> - N_e) =   0.000000E+00

  Self-consistency convergence accuracy:
  | Change of charge density      :  0.1354E+00
  | Change of unmixed KS density  :  0.1333E-02
  | Change of sum of eigenvalues  :  0.2883E+02 eV
  | Change of total energy        :  0.2225E+00 eV


------------------------------------------------------------
  End self-consistency iteration #     2       :  max(cpu_time)    wall_clock(cpu1)
  | Time for this iteration                     :        0.605 s           0.604 s
  | Charge density update                       :        0.346 s           0.346 s
  | Density mixing & preconditioning            :        0.052 s           0.052 s
  | Hartree multipole update                    :        0.001 s           0.000 s
  | Hartree multipole summation                 :        0.046 s           0.046 s
  | Integration                                 :        0.159 s           0.159 s
  | Solution of K.-S. eqns.                     :        0.002 s           0.001 s
  | Total energy evaluation                     :        0.000 s           0.000 s

  Partial memory accounting:
  | Current value for overall tracked memory usage:
  |   Minimum:        3.134 MB (on task 0)
  |   Maximum:        3.181 MB (on task 3)
  |   Average:        3.159 MB
  | Peak value for overall tracked memory usage:
  |   Minimum:       10.289 MB (on task 0 after allocating gradient_basis_wave)
  |   Maximum:       10.840 MB (on task 1 after allocating gradient_basis_wave)
  |   Average:       10.515 MB
  | Largest tracked array allocation so far:
  |   Minimum:        3.622 MB (hamiltonian_shell on task 0)
  |   Maximum:        3.977 MB (hamiltonian_shell on task 1)
  |   Average:        3.758 MB
  Note:  These values currently only include a subset of arrays which are explicitly tracked.
  The "true" memory usage will be greater.
------------------------------------------------------------

------------------------------------------------------------
          Begin self-consistency iteration #    3

  Date     :  20230915, Time     :  161602.443
------------------------------------------------------------
  Pulay mixing of updated and previous charge densities.
  Available memory per node after mixing [GB]:     24.21
  Renormalizing the density to the exact electron count on the 3D integration grid.
  | Formal number of electrons (from input files) :      28.0000000000
  | Integrated number of electrons on 3D grid     :      27.9996854279
  | Charge integration error                      :      -0.0003145721
  | Normalization factor for density and gradient :       1.0000112348

  Evaluating partitioned Hartree potential by multipole expansion.
  | Original multipole sum: apparent total charge =  -0.176013E-13
  | Sum of charges compensated after spline to logarithmic grids =  -0.843429E-04
  | Analytical far-field extrapolation by fixed multipoles:
  | Hartree multipole sum: apparent total charge =   0.000000E+00
  Summing up the Hartree potential.
  Time summed over all CPUs for potential: real work        0.042 s, elapsed        0.043 s
  | RMS charge density error from multipole expansion :   0.133585E-01
  | Average real-space part of the electrostatic potential :      0.32897959 eV

  Integrating Hamiltonian matrix: batch-based integration.
  Time summed over all CPUs for integration: real work        0.611 s, elapsed        0.626 s

  Updating Kohn-Sham eigenvalues and eigenvectors using ELSI and the (modified) LAPACK eigensolver.
  Starting LAPACK eigensolver
  Finished Cholesky decomposition
  | Time :     0.000 s
  Finished transformation to standard eigenproblem
  | Time :     0.000 s
  Finished solving standard eigenproblem
  | Time :     0.001 s
  Finished back-transformation of eigenvectors
  | Time :     0.000 s

  Obtaining occupation numbers and electronic chemical potential using ELSI.
  | Note that, for insulating systems, the printed 'chemical potential' value is not uniquely defined.
  | It can be anywhere in the energy gap, as long as it correctly separates occupied and unoccupied states.
  | In systems with a gap, the physically relevant chemical potential is the VBM or HOMO.

  | Chemical potential (Fermi level):    -5.18338023 eV
  What follows are estimated values for band gap, HOMO, LUMO, etc.
  | They are estimated on a discrete k-point grid and not necessarily exact.
  | For converged numbers, create a DOS and/or band structure plot on a denser k-grid.

  Highest occupied state (VBM) at     -5.35857582 eV (relative to internal zero)
  | Occupation number:      2.00000000
  | K-point:       4 at    0.000000    0.500000    0.500000 (in units of recip. lattice)

  Lowest unoccupied state (CBM) at    -4.96611078 eV (relative to internal zero)
  | Occupation number:      0.00000000
  | K-point:       7 at    0.500000    0.500000    0.000000 (in units of recip. lattice)

  ESTIMATED overall HOMO-LUMO gap:      0.39246504 eV between HOMO at k-point 4 and LUMO at k-point 7
  | This appears to be an indirect band gap.
  | Smallest direct gap :      0.89301026 eV for k_point 1 at    0.000000    0.000000    0.000000 (in units of recip. lattice)
  The gap value is above 0.2 eV. Unless you are using a very sparse k-point grid,
  this system is most likely an insulator or a semiconductor.

  Total energy components:
  | Sum of eigenvalues            :        -328.34346408 Ha       -8934.68024903 eV
  | XC energy correction          :         -41.80914980 Ha       -1137.68485073 eV
  | XC potential correction       :          53.99359347 Ha        1469.24043247 eV
  | Free-atom electrostatic energy:        -263.53136289 Ha       -7171.05324339 eV
  | Hartree energy correction     :          -0.94252326 Ha         -25.64736296 eV
  | Entropy correction            :          -0.00000000 Ha          -0.00000000 eV
  | ---------------------------
  | Total energy                  :        -580.63290656 Ha      -15799.82527364 eV
  | Total energy, T -> 0          :        -580.63290656 Ha      -15799.82527364 eV  <-- do not rely on this value for anything but (periodic) metals
  | Electronic free energy        :        -580.63290656 Ha      -15799.82527364 eV

  Derived energy quantities:
  | Kinetic energy                :         582.52766950 Ha       15851.38439672 eV
  | Electrostatic energy          :       -1121.35142626 Ha      -30513.52481963 eV
  | Energy correction for multipole
  | error in Hartree potential    :           0.01826943 Ha           0.49713652 eV
  | Sum of eigenvalues per atom                           :       -4467.34012452 eV
  | Total energy (T->0) per atom                          :       -7899.91263682 eV  <-- do not rely on this value for anything but (periodic) metals
  | Electronic free energy per atom                       :       -7899.91263682 eV
  Evaluating new KS density using the density matrix
  Evaluating density matrix
  Time summed over all CPUs for getting density from density matrix: real work        1.369 s, elapsed        1.393 s
  Integration grid: deviation in total charge (<rho> - N_e) =  -1.421085E-14

  Self-consistency convergence accuracy:
  | Change of charge density      :  0.2195E-01
  | Change of unmixed KS density  :  0.2360E-01
  | Change of sum of eigenvalues  : -0.5146E+01 eV
  | Change of total energy        :  0.9975E-02 eV


------------------------------------------------------------
  End self-consistency iteration #     3       :  max(cpu_time)    wall_clock(cpu1)
  | Time for this iteration                     :        0.607 s           0.607 s
  | Charge density update                       :        0.349 s           0.349 s
  | Density mixing & preconditioning            :        0.053 s           0.052 s
  | Hartree multipole update                    :        0.001 s           0.001 s
  | Hartree multipole summation                 :        0.045 s           0.045 s
  | Integration                                 :        0.158 s           0.158 s
  | Solution of K.-S. eqns.                     :        0.002 s           0.001 s
  | Total energy evaluation                     :        0.000 s           0.001 s

  Partial memory accounting:
  | Current value for overall tracked memory usage:
  |   Minimum:        3.134 MB (on task 0)
  |   Maximum:        3.181 MB (on task 3)
  |   Average:        3.159 MB
  | Peak value for overall tracked memory usage:
  |   Minimum:       10.289 MB (on task 0 after allocating gradient_basis_wave)
  |   Maximum:       10.840 MB (on task 1 after allocating gradient_basis_wave)
  |   Average:       10.516 MB
  | Largest tracked array allocation so far:
  |   Minimum:        3.622 MB (hamiltonian_shell on task 0)
  |   Maximum:        3.977 MB (hamiltonian_shell on task 1)
  |   Average:        3.758 MB
  Note:  These values currently only include a subset of arrays which are explicitly tracked.
  The "true" memory usage will be greater.
------------------------------------------------------------

------------------------------------------------------------
          Begin self-consistency iteration #    4

  Date     :  20230915, Time     :  161603.050
------------------------------------------------------------
  Pulay mixing of updated and previous charge densities.
  Available memory per node after mixing [GB]:     24.21
  Renormalizing the density to the exact electron count on the 3D integration grid.
  | Formal number of electrons (from input files) :      28.0000000000
  | Integrated number of electrons on 3D grid     :      27.9993076986
  | Charge integration error                      :      -0.0006923014
  | Normalization factor for density and gradient :       1.0000247257

  Evaluating partitioned Hartree potential by multipole expansion.
  | Original multipole sum: apparent total charge =  -0.291109E-13
  | Sum of charges compensated after spline to logarithmic grids =  -0.935236E-04
  | Analytical far-field extrapolation by fixed multipoles:
  | Hartree multipole sum: apparent total charge =   0.000000E+00
  Summing up the Hartree potential.
  Time summed over all CPUs for potential: real work        0.042 s, elapsed        0.044 s
  | RMS charge density error from multipole expansion :   0.147192E-01
  | Average real-space part of the electrostatic potential :      0.33414785 eV

  Integrating Hamiltonian matrix: batch-based integration.
  Time summed over all CPUs for integration: real work        0.612 s, elapsed        0.624 s

  Updating Kohn-Sham eigenvalues and eigenvectors using ELSI and the (modified) LAPACK eigensolver.
  Starting LAPACK eigensolver
  Finished Cholesky decomposition
  | Time :     0.000 s
  Finished transformation to standard eigenproblem
  | Time :     0.000 s
  Finished solving standard eigenproblem
  | Time :     0.001 s
  Finished back-transformation of eigenvectors
  | Time :     0.000 s

  Obtaining occupation numbers and electronic chemical potential using ELSI.
  | Note that, for insulating systems, the printed 'chemical potential' value is not uniquely defined.
  | It can be anywhere in the energy gap, as long as it correctly separates occupied and unoccupied states.
  | In systems with a gap, the physically relevant chemical potential is the VBM or HOMO.

  | Chemical potential (Fermi level):    -5.15166292 eV
  What follows are estimated values for band gap, HOMO, LUMO, etc.
  | They are estimated on a discrete k-point grid and not necessarily exact.
  | For converged numbers, create a DOS and/or band structure plot on a denser k-grid.

  Highest occupied state (VBM) at     -5.33532418 eV (relative to internal zero)
  | Occupation number:      2.00000000
  | K-point:       1 at    0.000000    0.000000    0.000000 (in units of recip. lattice)

  Lowest unoccupied state (CBM) at    -4.94198463 eV (relative to internal zero)
  | Occupation number:      0.00000000
  | K-point:       7 at    0.500000    0.500000    0.000000 (in units of recip. lattice)

  ESTIMATED overall HOMO-LUMO gap:      0.39333954 eV between HOMO at k-point 1 and LUMO at k-point 7
  | This appears to be an indirect band gap.
  | Smallest direct gap :      0.91043648 eV for k_point 1 at    0.000000    0.000000    0.000000 (in units of recip. lattice)
  The gap value is above 0.2 eV. Unless you are using a very sparse k-point grid,
  this system is most likely an insulator or a semiconductor.

  Total energy components:
  | Sum of eigenvalues            :        -328.38856186 Ha       -8935.90742215 eV
  | XC energy correction          :         -41.80683283 Ha       -1137.62180283 eV
  | XC potential correction       :          53.99028861 Ha        1469.15050274 eV
  | Free-atom electrostatic energy:        -263.53136289 Ha       -7171.05324339 eV
  | Hartree energy correction     :          -0.89636341 Ha         -24.39128950 eV
  | Entropy correction            :          -0.00000000 Ha          -0.00000000 eV
  | ---------------------------
  | Total energy                  :        -580.63283238 Ha      -15799.82325512 eV
  | Total energy, T -> 0          :        -580.63283238 Ha      -15799.82325512 eV  <-- do not rely on this value for anything but (periodic) metals
  | Electronic free energy        :        -580.63283238 Ha      -15799.82325512 eV

  Derived energy quantities:
  | Kinetic energy                :         582.40594987 Ha       15848.07223691 eV
  | Electrostatic energy          :       -1121.23194941 Ha      -30510.27368920 eV
  | Energy correction for multipole
  | error in Hartree potential    :           0.02020173 Ha           0.54971696 eV
  | Sum of eigenvalues per atom                           :       -4467.95371107 eV
  | Total energy (T->0) per atom                          :       -7899.91162756 eV  <-- do not rely on this value for anything but (periodic) metals
  | Electronic free energy per atom                       :       -7899.91162756 eV
  Evaluating new KS density using the density matrix
  Evaluating density matrix
  Time summed over all CPUs for getting density from density matrix: real work        1.362 s, elapsed        1.387 s
  Integration grid: deviation in total charge (<rho> - N_e) =  -1.421085E-14

  Self-consistency convergence accuracy:
  | Change of charge density      :  0.1390E-01
  | Change of unmixed KS density  :  0.4613E-02
  | Change of sum of eigenvalues  : -0.1227E+01 eV
  | Change of total energy        :  0.2019E-02 eV


------------------------------------------------------------
  End self-consistency iteration #     4       :  max(cpu_time)    wall_clock(cpu1)
  | Time for this iteration                     :        0.605 s           0.605 s
  | Charge density update                       :        0.348 s           0.348 s
  | Density mixing & preconditioning            :        0.052 s           0.052 s
  | Hartree multipole update                    :        0.001 s           0.000 s
  | Hartree multipole summation                 :        0.045 s           0.045 s
  | Integration                                 :        0.157 s           0.158 s
  | Solution of K.-S. eqns.                     :        0.002 s           0.002 s
  | Total energy evaluation                     :        0.000 s           0.000 s

  Partial memory accounting:
  | Current value for overall tracked memory usage:
  |   Minimum:        3.134 MB (on task 0)
  |   Maximum:        3.181 MB (on task 3)
  |   Average:        3.159 MB
  | Peak value for overall tracked memory usage:
  |   Minimum:       10.289 MB (on task 0 after allocating gradient_basis_wave)
  |   Maximum:       10.840 MB (on task 1 after allocating gradient_basis_wave)
  |   Average:       10.516 MB
  | Largest tracked array allocation so far:
  |   Minimum:        3.622 MB (hamiltonian_shell on task 0)
  |   Maximum:        3.977 MB (hamiltonian_shell on task 1)
  |   Average:        3.758 MB
  Note:  These values currently only include a subset of arrays which are explicitly tracked.
  The "true" memory usage will be greater.
------------------------------------------------------------

------------------------------------------------------------
          Begin self-consistency iteration #    5

  Date     :  20230915, Time     :  161603.655
------------------------------------------------------------
  Pulay mixing of updated and previous charge densities.
  Available memory per node after mixing [GB]:     24.21
  Renormalizing the density to the exact electron count on the 3D integration grid.
  | Formal number of electrons (from input files) :      28.0000000000
  | Integrated number of electrons on 3D grid     :      27.9995634136
  | Charge integration error                      :      -0.0004365864
  | Normalization factor for density and gradient :       1.0000155926

  Evaluating partitioned Hartree potential by multipole expansion.
  | Original multipole sum: apparent total charge =  -0.124502E-13
  | Sum of charges compensated after spline to logarithmic grids =  -0.960694E-04
  | Analytical far-field extrapolation by fixed multipoles:
  | Hartree multipole sum: apparent total charge =   0.000000E+00
  Summing up the Hartree potential.
  Time summed over all CPUs for potential: real work        0.043 s, elapsed        0.044 s
  | RMS charge density error from multipole expansion :   0.151231E-01
  | Average real-space part of the electrostatic potential :      0.33673279 eV

  Integrating Hamiltonian matrix: batch-based integration.
  Time summed over all CPUs for integration: real work        0.629 s, elapsed        0.641 s

  Updating Kohn-Sham eigenvalues and eigenvectors using ELSI and the (modified) LAPACK eigensolver.
  Starting LAPACK eigensolver
  Finished Cholesky decomposition
  | Time :     0.000 s
  Finished transformation to standard eigenproblem
  | Time :     0.000 s
  Finished solving standard eigenproblem
  | Time :     0.000 s
  Finished back-transformation of eigenvectors
  | Time :     0.001 s

  Obtaining occupation numbers and electronic chemical potential using ELSI.
  | Note that, for insulating systems, the printed 'chemical potential' value is not uniquely defined.
  | It can be anywhere in the energy gap, as long as it correctly separates occupied and unoccupied states.
  | In systems with a gap, the physically relevant chemical potential is the VBM or HOMO.

  | Chemical potential (Fermi level):    -5.16467308 eV
  What follows are estimated values for band gap, HOMO, LUMO, etc.
  | They are estimated on a discrete k-point grid and not necessarily exact.
  | For converged numbers, create a DOS and/or band structure plot on a denser k-grid.

  Highest occupied state (VBM) at     -5.32848904 eV (relative to internal zero)
  | Occupation number:      2.00000000
  | K-point:       4 at    0.000000    0.500000    0.500000 (in units of recip. lattice)

  Lowest unoccupied state (CBM) at    -4.93648151 eV (relative to internal zero)
  | Occupation number:      0.00000000
  | K-point:       7 at    0.500000    0.500000    0.000000 (in units of recip. lattice)

  ESTIMATED overall HOMO-LUMO gap:      0.39200753 eV between HOMO at k-point 4 and LUMO at k-point 7
  | This appears to be an indirect band gap.
  | Smallest direct gap :      0.88231799 eV for k_point 1 at    0.000000    0.000000    0.000000 (in units of recip. lattice)
  The gap value is above 0.2 eV. Unless you are using a very sparse k-point grid,
  this system is most likely an insulator or a semiconductor.

  Total energy components:
  | Sum of eigenvalues            :        -328.42378908 Ha       -8936.86600365 eV
  | XC energy correction          :         -41.80555966 Ha       -1137.58715821 eV
  | XC potential correction       :          53.98844195 Ha        1469.10025249 eV
  | Free-atom electrostatic energy:        -263.53136289 Ha       -7171.05324339 eV
  | Hartree energy correction     :          -0.86047172 Ha         -23.41462690 eV
  | Entropy correction            :          -0.00000000 Ha          -0.00000000 eV
  | ---------------------------
  | Total energy                  :        -580.63274141 Ha      -15799.82077967 eV
  | Total energy, T -> 0          :        -580.63274141 Ha      -15799.82077967 eV  <-- do not rely on this value for anything but (periodic) metals
  | Electronic free energy        :        -580.63274141 Ha      -15799.82077967 eV

  Derived energy quantities:
  | Kinetic energy                :         582.36604580 Ha       15846.98639194 eV
  | Electrostatic energy          :       -1121.19322754 Ha      -30509.22001340 eV
  | Energy correction for multipole
  | error in Hartree potential    :           0.02075882 Ha           0.56487636 eV
  | Sum of eigenvalues per atom                           :       -4468.43300183 eV
  | Total energy (T->0) per atom                          :       -7899.91038983 eV  <-- do not rely on this value for anything but (periodic) metals
  | Electronic free energy per atom                       :       -7899.91038983 eV
  Evaluating new KS density using the density matrix
  Evaluating density matrix
  Time summed over all CPUs for getting density from density matrix: real work        1.354 s, elapsed        1.379 s
  Integration grid: deviation in total charge (<rho> - N_e) =   7.105427E-15

  Self-consistency convergence accuracy:
  | Change of charge density      :  0.6947E-02
  | Change of unmixed KS density  :  0.1439E-02
  | Change of sum of eigenvalues  : -0.9586E+00 eV
  | Change of total energy        :  0.2475E-02 eV


------------------------------------------------------------
  End self-consistency iteration #     5       :  max(cpu_time)    wall_clock(cpu1)
  | Time for this iteration                     :        0.608 s           0.608 s
  | Charge density update                       :        0.346 s           0.346 s
  | Density mixing & preconditioning            :        0.053 s           0.053 s
  | Hartree multipole update                    :        0.001 s           0.000 s
  | Hartree multipole summation                 :        0.045 s           0.046 s
  | Integration                                 :        0.162 s           0.162 s
  | Solution of K.-S. eqns.                     :        0.002 s           0.001 s
  | Total energy evaluation                     :        0.000 s           0.000 s

  Partial memory accounting:
  | Current value for overall tracked memory usage:
  |   Minimum:        3.134 MB (on task 0)
  |   Maximum:        3.181 MB (on task 3)
  |   Average:        3.159 MB
  | Peak value for overall tracked memory usage:
  |   Minimum:       10.289 MB (on task 0 after allocating gradient_basis_wave)
  |   Maximum:       10.840 MB (on task 1 after allocating gradient_basis_wave)
  |   Average:       10.516 MB
  | Largest tracked array allocation so far:
  |   Minimum:        3.622 MB (hamiltonian_shell on task 0)
  |   Maximum:        3.977 MB (hamiltonian_shell on task 1)
  |   Average:        3.758 MB
  Note:  These values currently only include a subset of arrays which are explicitly tracked.
  The "true" memory usage will be greater.
------------------------------------------------------------

------------------------------------------------------------
          Begin self-consistency iteration #    6

  Date     :  20230915, Time     :  161604.263
------------------------------------------------------------
  Pulay mixing of updated and previous charge densities.
  Available memory per node after mixing [GB]:     24.21
  Renormalizing the density to the exact electron count on the 3D integration grid.
  | Formal number of electrons (from input files) :      28.0000000000
  | Integrated number of electrons on 3D grid     :      28.0003308002
  | Charge integration error                      :       0.0003308002
  | Normalization factor for density and gradient :       0.9999881858

  Evaluating partitioned Hartree potential by multipole expansion.
  | Original multipole sum: apparent total charge =  -0.658336E-14
  | Sum of charges compensated after spline to logarithmic grids =  -0.947385E-04
  | Analytical far-field extrapolation by fixed multipoles:
  | Hartree multipole sum: apparent total charge =   0.000000E+00
  Summing up the Hartree potential.
  Time summed over all CPUs for potential: real work        0.044 s, elapsed        0.044 s
  | RMS charge density error from multipole expansion :   0.150221E-01
  | Average real-space part of the electrostatic potential :      0.33143161 eV

  Integrating Hamiltonian matrix: batch-based integration.
  Time summed over all CPUs for integration: real work        0.619 s, elapsed        0.629 s

  Updating Kohn-Sham eigenvalues and eigenvectors using ELSI and the (modified) LAPACK eigensolver.
  Starting LAPACK eigensolver
  Finished Cholesky decomposition
  | Time :     0.000 s
  Finished transformation to standard eigenproblem
  | Time :     0.000 s
  Finished solving standard eigenproblem
  | Time :     0.001 s
  Finished back-transformation of eigenvectors
  | Time :     0.000 s

[...]

  Updating Kohn-Sham eigenvalues and eigenvectors using ELSI and the (modified) LAPACK eigensolver.
  Starting LAPACK eigensolver
  Finished Cholesky decomposition
  | Time :     0.000 s
  Finished transformation to standard eigenproblem
  | Time :     0.000 s
  Finished solving standard eigenproblem
  | Time :     0.000 s
  Finished back-transformation of eigenvectors
  | Time :     0.000 s

  Obtaining occupation numbers and electronic chemical potential using ELSI.
  | Note that, for insulating systems, the printed 'chemical potential' value is not uniquely defined.
  | It can be anywhere in the energy gap, as long as it correctly separates occupied and unoccupied states.
  | In systems with a gap, the physically relevant chemical potential is the VBM or HOMO.

  | Chemical potential (Fermi level):    -4.79856177 eV
  What follows are estimated values for band gap, HOMO, LUMO, etc.
  | They are estimated on a discrete k-point grid and not necessarily exact.
  | For converged numbers, create a DOS and/or band structure plot on a denser k-grid.

  Highest occupied state (VBM) at     -5.36136126 eV (relative to internal zero)
  | Occupation number:      2.00000000
  | K-point:       1 at    0.000000    0.000000    0.000000 (in units of recip. lattice)

  Lowest unoccupied state (CBM) at    -4.73837609 eV (relative to internal zero)
  | Occupation number:      0.00000000
  | K-point:       4 at    0.000000    0.500000    0.500000 (in units of recip. lattice)

  ESTIMATED overall HOMO-LUMO gap:      0.62298517 eV between HOMO at k-point 1 and LUMO at k-point 4
  | This appears to be an indirect band gap.
  | Smallest direct gap :      2.44549694 eV for k_point 1 at    0.000000    0.000000    0.000000 (in units of recip. lattice)
  The gap value is above 0.2 eV. Unless you are using a very sparse k-point grid,
  this system is most likely an insulator or a semiconductor.

  Total energy components:
  | Sum of eigenvalues            :        -328.17713608 Ha       -8930.15423392 eV
  | XC energy correction          :         -41.81810188 Ha       -1137.92844932 eV
  | XC potential correction       :          54.00378693 Ha        1469.51781051 eV
  | Free-atom electrostatic energy:        -263.59230454 Ha       -7172.71155008 eV
  | Hartree energy correction     :          -1.05923748 Ha         -28.82331822 eV
  | Entropy correction            :          -0.00000000 Ha          -0.00000000 eV
  | ---------------------------
  | Total energy                  :        -580.64299305 Ha      -15800.09974104 eV
  | Total energy, T -> 0          :        -580.64299305 Ha      -15800.09974104 eV  <-- do not rely on this value for anything but (periodic) metals
  | Electronic free energy        :        -580.64299305 Ha      -15800.09974104 eV

  Derived energy quantities:
  | Kinetic energy                :         582.44550019 Ha       15849.14845585 eV
  | Electrostatic energy          :       -1121.27039135 Ha      -30511.31974757 eV
  | Energy correction for multipole
  | error in Hartree potential    :           0.02208485 Ha           0.60095924 eV
  | Sum of eigenvalues per atom                           :       -4465.07711696 eV
  | Total energy (T->0) per atom                          :       -7900.04987052 eV  <-- do not rely on this value for anything but (periodic) metals
  | Electronic free energy per atom                       :       -7900.04987052 eV
  Evaluating new KS density using the density matrix
  Evaluating density matrix
  Time summed over all CPUs for getting density from density matrix: real work        1.586 s, elapsed        1.606 s

  Evaluating density-matrix-based force terms: batch-based integration
  Evaluating density matrix
  Evaluating density matrix
  Integration grid: deviation in total charge (<rho> - N_e) =   7.105427E-15

  atomic forces [eV/Ang]:
  -----------------------
  atom #    1
   Hellmann-Feynman              : -0.409228E-04  0.212845E-07 -0.205399E-07
   Ionic forces                  :  0.000000E+00  0.000000E+00  0.000000E+00
   Multipole                     : -0.657594E-05  0.399247E-08 -0.380316E-08
   Hartree pot. SCF incomplete   :  0.256192E-04 -0.230738E-10  0.272527E-11
   Pulay + GGA                   : -0.361926E-04  0.193196E-07 -0.140334E-07
   ----------------------------------------------------------------
   Total forces(   1)            : -0.580721E-04  0.445735E-07 -0.383737E-07
  atom #    2
   Hellmann-Feynman              :  0.409187E-04 -0.251893E-07  0.120373E-07
   Ionic forces                  :  0.000000E+00  0.000000E+00  0.000000E+00
   Multipole                     :  0.657594E-05 -0.399082E-08  0.380376E-08
   Hartree pot. SCF incomplete   : -0.256192E-04  0.163157E-10 -0.105561E-10
   Pulay + GGA                   :  0.361984E-04 -0.688660E-08  0.339228E-07
   ----------------------------------------------------------------
   Total forces(   2)            :  0.580738E-04 -0.360504E-07  0.497532E-07


  Self-consistency convergence accuracy:
  | Change of charge density      :  0.5009E-06
  | Change of unmixed KS density  :  0.1981E-06
  | Change of sum of eigenvalues  :  0.4377E-04 eV
  | Change of total energy        : -0.2459E-07 eV
  | Change of forces              :  0.5807E-04 eV/A

  Writing Kohn-Sham eigenvalues.
  K-point:       1 at    0.000000    0.000000    0.000000 (in units of recip. lattice)

  State    Occupation    Eigenvalue [Ha]    Eigenvalue [eV]
      1       2.00000         -65.738842        -1788.84491
      2       2.00000         -65.738842        -1788.84491
      3       2.00000          -5.102201         -138.83794
      4       2.00000          -5.101916         -138.83020
      5       2.00000          -3.485690          -94.85046
      6       2.00000          -3.485690          -94.85046
      7       2.00000          -3.485690          -94.85046
      8       2.00000          -3.485068          -94.83352
      9       2.00000          -3.485068          -94.83352
     10       2.00000          -3.485068          -94.83352
     11       2.00000          -0.639374          -17.39826
     12       2.00000          -0.197028           -5.36140
     13       2.00000          -0.197027           -5.36138
     14       2.00000          -0.197026           -5.36136
     15       0.00000          -0.107156           -2.91586
     16       0.00000          -0.107156           -2.91585
     17       0.00000          -0.107155           -2.91584
     18       0.00000          -0.070925           -1.92997
     19       0.00000           0.087582            2.38323
     20       0.00000           0.087582            2.38323

  What follows are estimated values for band gap, HOMO, LUMO, etc.
  | They are estimated on a discrete k-point grid and not necessarily exact.
  | For converged numbers, create a DOS and/or band structure plot on a denser k-grid.

  Highest occupied state (VBM) at     -5.36136126 eV (relative to internal zero)
  | Occupation number:      2.00000000
  | K-point:       1 at    0.000000    0.000000    0.000000 (in units of recip. lattice)

  Lowest unoccupied state (CBM) at    -4.73837609 eV (relative to internal zero)
  | Occupation number:      0.00000000
  | K-point:       4 at    0.000000    0.500000    0.500000 (in units of recip. lattice)

  ESTIMATED overall HOMO-LUMO gap:      0.62298517 eV between HOMO at k-point 1 and LUMO at k-point 4
  | This appears to be an indirect band gap.
  | Smallest direct gap :      2.44549694 eV for k_point 1 at    0.000000    0.000000    0.000000 (in units of recip. lattice)
  The gap value is above 0.2 eV. Unless you are using a very sparse k-point grid,
  this system is most likely an insulator or a semiconductor.

  | Chemical Potential                          :    -4.79856177 eV
  | Note that, for insulating systems, the printed 'chemical potential' value is not uniquely defined.
  | It can be anywhere in the energy gap, as long as it correctly separates occupied and unoccupied states.
  | In systems with a gap, the physically relevant chemical potential is the VBM or HOMO.

  Self-consistency cycle converged.


------------------------------------------------------------
  End self-consistency iteration #     7       :  max(cpu_time)    wall_clock(cpu1)
  | Time for this iteration                     :        3.136 s           3.136 s
  | Charge density & force component update     :        2.413 s           2.413 s
  | Density mixing                              :        0.001 s           0.001 s
  | Hartree multipole update                    :        0.001 s           0.000 s
  | Hartree multipole summation                 :        0.216 s           0.216 s
  | Hartree pot. SCF incomplete forces          :        0.332 s           0.333 s
  | Integration                                 :        0.171 s           0.171 s
  | Solution of K.-S. eqns.                     :        0.002 s           0.002 s
  | Total energy evaluation                     :        0.000 s           0.000 s

  Partial memory accounting:
  | Current value for overall tracked memory usage:
  |   Minimum:        3.142 MB (on task 3)
  |   Maximum:        3.189 MB (on task 0)
  |   Average:        3.167 MB
  | Peak value for overall tracked memory usage:
  |   Minimum:       18.688 MB (on task 3 after allocating d_wave)
  |   Maximum:       20.416 MB (on task 0 after allocating d_wave)
  |   Average:       19.382 MB
  | Largest tracked array allocation so far:
  |   Minimum:        3.664 MB (hamiltonian_shell on task 3)
  |   Maximum:        4.395 MB (hamiltonian_shell on task 0)
  |   Average:        3.962 MB
  Note:  These values currently only include a subset of arrays which are explicitly tracked.
  The "true" memory usage will be greater.
------------------------------------------------------------
  Removing unitary transformations (pure translations, rotations) from forces on atoms.
  Atomic forces before filtering:
  | Net force on center of mass :   0.169841E-08  0.852314E-08  0.113795E-07 eV/A
  Atomic forces after filtering:
  | Net force on center of mass :   0.000000E+00  0.000000E+00  0.000000E+00 eV/A

  Energy and forces in a compact form:
  | Total energy uncorrected      :         -0.158000997410421E+05 eV
  | Total energy corrected        :         -0.158000997410421E+05 eV  <-- do not rely on this value for anything but (periodic) metals
  | Electronic free energy        :         -0.158000997410421E+05 eV
  Total atomic forces (unitary forces cleaned) [eV/Ang]:
  |    1         -0.580729922310172E-04          0.403119362335497E-07         -0.440634500154047E-07
  |    2          0.580729922310172E-04         -0.403119362335497E-07          0.440634500154047E-07

  ------------------------------------
  Start decomposition of the XC Energy
  ------------------------------------
  X and C from original XC functional choice
  Hartree-Fock Energy :          0.000000000 Ha              0.000000000 eV
  X Energy            :        -40.727898731 Ha          -1108.262512259 eV
  C Energy            :         -1.090203149 Ha            -29.665937061 eV
  XC Energy w/o HF    :        -41.818101880 Ha          -1137.928449320 eV
  Total XC Energy     :        -41.818101880 Ha          -1137.928449320 eV
  ------------------------------------
  LDA X and C from self-consistent density
  X Energy LDA        :        -37.665480388 Ha          -1024.929869221 eV
  C Energy LDA        :         -2.148814529 Ha            -58.472218367 eV
  ------------------------------------
  End decomposition of the XC Energy
  ------------------------------------

------------------------------------------------------------
  Relaxation / MD: End force evaluation.       :  max(cpu_time)    wall_clock(cpu1)
  | Time for this force evaluation              :        7.612 s           7.612 s

------------------------------------------------------------
  Geometry optimization: Attempting to predict improved coordinates.

  Removing unitary transformations (pure translations, rotations) from forces on atoms.
  Atomic forces before filtering:
  | Net force on center of mass :   0.000000E+00  0.000000E+00  0.000000E+00 eV/A
  Atomic forces after filtering:
  | Net force on center of mass :   0.000000E+00  0.000000E+00  0.000000E+00 eV/A
  Net remaining forces (excluding translations, rotations) in present geometry:
  || Forces on atoms   || =   0.580730E-04 eV/A.
  Maximum force component is  0.580730E-04 eV/A.
  Present geometry is converged.

------------------------------------------------------------
  Final atomic structure:
                         x [A]             y [A]             z [A]
  lattice_vector         0.00000000        2.71500000        2.71500000
  lattice_vector         2.71500000        0.00000000        2.71500000
  lattice_vector         2.71500000        2.71500000        0.00000000

            atom         0.12500182       -0.00000000        0.00000000  Si
            atom         1.48249818        1.35750000        1.35750000  Si

  Fractional coordinates:
                         L1                L2                L3
       atom_frac        -0.02302059        0.02302059        0.02302059  Si
       atom_frac         0.22698008        0.27301992        0.27301992  Si
------------------------------------------------------------

------------------------------------------------------------------------------
  Final output of selected total energy values:

  The following output summarizes some interesting total energy values
  at the end of a run (AFTER all relaxation, molecular dynamics, etc.).

  | Total energy of the DFT / Hartree-Fock s.c.f. calculation      :         -15800.099741042 eV
  | Final zero-broadening corrected energy (caution - metals only) :         -15800.099741042 eV
  | For reference only, the value of 1 Hartree used in FHI-aims is :             27.211384500 eV
  | For reference only, the overall average (free atom contribution
  | + realspace contribution) of the electrostatic potential after
  | s.c.f. convergence is                                          :            -12.600549183 eV

  Before relying on these values, please be sure to understand exactly which
  total energy value is referred to by a given number. Different objects may
  all carry the same name 'total energy'. Definitions:

  Total energy of the DFT / Hartree-Fock s.c.f. calculation:
  | Note that this energy does not include ANY quantities calculated after the
  | s.c.f. cycle, in particular not ANY RPA, MP2, etc. many-body perturbation terms.

  Final zero-broadening corrected energy:
  | For metallic systems only, a broadening of the occupation numbers at the Fermi
  | level can be extrapolated back to zero broadening by an electron-gas inspired
  | formula. For all systems that are not real metals, this value can be
  | meaningless and should be avoided.

------------------------------------------------------------------------------
  Methods described in the following list of references were used in this FHI-aims run.
  If you publish the results, please make sure to cite these reference if they apply.
  FHI-aims is an academic code, and for our developers (often, Ph.D. students
  and postdocs), scientific credit in the community is essential.
  Thank you for helping us!

  For any use of FHI-aims, please cite:

    Volker Blum, Ralf Gehrke, Felix Hanke, Paula Havu, Ville Havu,
    Xinguo Ren, Karsten Reuter, and Matthias Scheffler
    'Ab initio molecular simulations with numeric atom-centered orbitals'
    Computer Physics Communications 180, 2175-2196 (2009)
    http://doi.org/10.1016/j.cpc.2009.06.022


  The provided symmetry information was generated with SPGlib:

    Atsushi Togo, Yusuke Seto, Dimitar Pashov
    SPGlib 1.7.3 obtained from http://spglib.sourceforge.net
    Copyright (C) 2008 Atsushi Togo


  The ELSI infrastructure was used in your run to solve the Kohn-Sham electronic structure.
  Please check out http://elsi-interchange.org to learn more.
  If scalability is important for your project, please acknowledge ELSI by citing:

    V. W-z. Yu, F. Corsetti, A. Garcia, W. P. Huhn, M. Jacquelin, W. Jia,
    B. Lange, L. Lin, J. Lu, W. Mi, A. Seifitokaldani, A. Vazquez-Mayagoitia,
    C. Yang, H. Yang, and V. Blum
    'ELSI: A unified software interface for Kohn-Sham electronic structure solvers'
    Computer Physics Communications 222, 267-285 (2018).
    http://doi.org/10.1016/j.cpc.2017.09.007


  For the real-space grid partitioning and parallelization used in this calculation, please cite:

    Ville Havu, Volker Blum, Paula Havu, and Matthias Scheffler,
    'Efficient O(N) integration for all-electron electronic structure calculation'
    'using numerically tabulated basis functions'
    Journal of Computational Physics 228, 8367-8379 (2009).
    http://doi.org/10.1016/j.jcp.2009.08.008

  Of course, there are many other important community references, e.g., those cited in the
  above references. Our list is limited to references that describe implementations in the
  FHI-aims code. The reason is purely practical (length of this list) - please credit others as well.

------------------------------------------------------------
          Leaving FHI-aims.
          Date     :  20230915, Time     :  161637.304

          Computational steps:
          | Number of self-consistency cycles          :           40
          | Number of SCF (re)initializations          :            4
          | Number of relaxation steps                 :            3

          Detailed time accounting                     :  max(cpu_time)    wall_clock(cpu1)
          | Total time                                  :       36.930 s          36.933 s
          | Preparation time                            :        0.111 s           0.110 s
          | Boundary condition initalization            :        0.086 s           0.087 s
          | Grid partitioning                           :        0.066 s           0.066 s
          | Preloading free-atom quantities on grid     :        0.294 s           0.294 s
          | Free-atom superposition energy              :        0.032 s           0.031 s
          | Total time for integrations                 :        7.181 s           7.185 s
          | Total time for solution of K.-S. equations  :        0.068 s           0.064 s
          | Total time for EV reorthonormalization      :        0.001 s           0.000 s
          | Total time for density & force components   :       23.498 s          23.501 s
          | Total time for mixing & preconditioning     :        1.840 s           1.840 s
          | Total time for Hartree multipole update     :        0.024 s           0.021 s
          | Total time for Hartree multipole sum        :        2.544 s           2.546 s
          | Total time for total energy evaluation      :        0.002 s           0.003 s
          | Total time NSC force correction             :        1.141 s           1.142 s
          | Total time for scaled ZORA corrections      :        0.000 s           0.000 s

          Partial memory accounting:
          | Residual value for overall tracked memory usage across tasks:     0.000000 MB (should be 0.000000 MB)
          | Peak values for overall tracked memory usage:
          |   Minimum:       18.688 MB (on task 3 after allocating d_wave)
          |   Maximum:       20.416 MB (on task 0 after allocating d_wave)
          |   Average:       19.382 MB
          | Largest tracked array allocation:
          |   Minimum:        3.664 MB (hamiltonian_shell on task 3)
          |   Maximum:        4.395 MB (hamiltonian_shell on task 0)
          |   Average:        3.962 MB
          Note:  These values currently only include a subset of arrays which are explicitly tracked.
          The "true" memory usage will be greater.

          Have a nice day.
------------------------------------------------------------
