   2   2   1   0
  0.2016476E+02  0.3849278E-09  0.3849279E-09  0.3849278E-09  0.5000000E-15
   1.0000000000000000E-004
  CAR
 unknown system
    171.46409830    -15.29860742  301      6.02346815      1.00000000
    -15.299  0.0000E+00  0.0000E+00  0.0000E+00  0.0000E+00
    -14.676  0.0000E+00  0.0000E+00  0.0000E+00  0.0000E+00
    -14.054  0.0000E+00  0.0000E+00  0.0000E+00  0.0000E+00
    -13.431  0.0000E+00  0.0000E+00  0.0000E+00  0.0000E+00
    -12.808  0.0000E+00  0.0000E+00  0.0000E+00  0.0000E+00
    -12.186  0.0000E+00  0.0000E+00  0.0000E+00  0.0000E+00
    -11.563  0.0000E+00  0.0000E+00  0.0000E+00  0.0000E+00
    -10.941  0.0000E+00  0.0000E+00  0.0000E+00  0.0000E+00
    -10.318  0.0000E+00  0.0000E+00  0.0000E+00  0.0000E+00
     -9.696  0.0000E+00  0.0000E+00  0.0000E+00  0.0000E+00
     -9.073  0.0000E+00  0.0000E+00  0.0000E+00  0.0000E+00
     -8.451  0.0000E+00  0.0000E+00  0.0000E+00  0.0000E+00
     -7.828  0.0000E+00  0.0000E+00  0.0000E+00  0.0000E+00
     -7.206  0.0000E+00  0.0000E+00  0.0000E+00  0.0000E+00
     -6.583  0.2032E-03  0.2032E-03  0.1265E-03  0.1265E-03
     -5.960  0.1288E-02  0.1288E-02  0.1098E-02  0.1098E-02
     -5.338  0.1703E-02  0.1703E-02  0.2224E-02  0.2224E-02
     -4.715  0.1056E-02  0.1056E-02  0.3360E-02  0.3360E-02
     -4.093  0.3002E-02  0.3002E-02  0.5914E-02  0.5914E-02
     -3.470  0.2273E-02  0.2273E-02  0.8024E-02  0.8024E-02
     -2.848  0.1883E-02  0.1883E-02  0.9675E-02  0.9675E-02
     -2.225  0.1324E-02  0.1324E-02  0.1051E-01  0.1051E-01
     -1.603  0.4592E-03  0.4592E-03  0.1080E-01  0.1080E-01
     -0.980  0.2665E-02  0.2665E-02  0.1438E-01  0.1438E-01
     -0.358  0.2309E-02  0.2309E-02  0.1653E-01  0.1653E-01
      0.265  0.1128E-02  0.1128E-02  0.1749E-01  0.1749E-01
      0.887  0.1210E-02  0.1210E-02  0.1825E-01  0.1825E-01
      1.510  0.3495E-02  0.3495E-02  0.2062E-01  0.2062E-01
      2.133  0.3251E-02  0.3251E-02  0.2347E-01  0.2347E-01
      2.755  0.1828E-02  0.1828E-02  0.2673E-01  0.2673E-01
      3.378  0.3937E-02  0.3937E-02  0.3195E-01  0.3195E-01
      4.000  0.4313E-02  0.4313E-02  0.3526E-01  0.3526E-01
      4.623  0.3612E-02  0.3612E-02  0.3877E-01  0.3877E-01
      5.245  0.1268E-02  0.1268E-02  0.3979E-01  0.3979E-01
      5.868  0.9507E-04  0.9507E-04  0.4040E-01  0.4040E-01
      6.490  0.9358E-04  0.9358E-04  0.4046E-01  0.4046E-01
      7.113  0.1153E-02  0.1153E-02  0.4136E-01  0.4136E-01
      7.735  0.1452E-02  0.1452E-02  0.4285E-01  0.4285E-01
      8.358  0.4893E-02  0.4893E-02  0.4783E-01  0.4783E-01
      8.981  0.5236E-02  0.5236E-02  0.5197E-01  0.5197E-01
      9.603  0.5066E-02  0.5066E-02  0.5656E-01  0.5656E-01
     10.226  0.2687E-02  0.2687E-02  0.6062E-01  0.6062E-01
     10.848  0.2867E-02  0.2867E-02  0.6452E-01  0.6452E-01
     11.471  0.4339E-02  0.4339E-02  0.6761E-01  0.6761E-01
     12.093  0.5298E-02  0.5298E-02  0.7294E-01  0.7294E-01
     12.716  0.3232E-02  0.3232E-02  0.7544E-01  0.7544E-01
     13.338  0.3376E-02  0.3376E-02  0.7754E-01  0.7754E-01
     13.961  0.3859E-02  0.3859E-02  0.8053E-01  0.8053E-01
     14.583  0.5428E-02  0.5428E-02  0.8687E-01  0.8687E-01
     15.206  0.5590E-03  0.5590E-03  0.8879E-01  0.8879E-01
     15.829  0.3233E-02  0.3233E-02  0.9231E-01  0.9231E-01
     16.451  0.4540E-02  0.4540E-02  0.9632E-01  0.9632E-01
     17.074  0.3917E-02  0.3917E-02  0.1013E+00  0.1013E+00
     17.696  0.3571E-02  0.3571E-02  0.1047E+00  0.1047E+00
     18.319  0.4421E-02  0.4421E-02  0.1078E+00  0.1078E+00
     18.941  0.5777E-02  0.5777E-02  0.1133E+00  0.1133E+00
     19.564  0.6300E-02  0.6300E-02  0.1184E+00  0.1184E+00
     20.186  0.2310E-02  0.2310E-02  0.1218E+00  0.1218E+00
     20.809  0.5545E-02  0.5545E-02  0.1265E+00  0.1265E+00
     21.431  0.5511E-02  0.5511E-02  0.1314E+00  0.1314E+00
     22.054  0.6332E-02  0.6332E-02  0.1367E+00  0.1367E+00
     22.676  0.4934E-02  0.4933E-02  0.1417E+00  0.1417E+00
     23.299  0.4046E-02  0.4046E-02  0.1443E+00  0.1443E+00
     23.922  0.3789E-02  0.3789E-02  0.1485E+00  0.1485E+00
     24.544  0.3319E-02  0.3319E-02  0.1528E+00  0.1528E+00
     25.167  0.9520E-02  0.9520E-02  0.1593E+00  0.1593E+00
     25.789  0.6192E-02  0.6192E-02  0.1650E+00  0.1650E+00
     26.412  0.6952E-02  0.6952E-02  0.1714E+00  0.1714E+00
     27.034  0.4765E-02  0.4765E-02  0.1754E+00  0.1754E+00
     27.657  0.2673E-02  0.2673E-02  0.1775E+00  0.1775E+00
     28.279  0.4366E-02  0.4366E-02  0.1826E+00  0.1826E+00
     28.902  0.1134E-01  0.1134E-01  0.1916E+00  0.1916E+00
     29.524  0.3150E-02  0.3150E-02  0.1957E+00  0.1957E+00
     30.147  0.4113E-02  0.4113E-02  0.2013E+00  0.2013E+00
     30.770  0.3537E-02  0.3537E-02  0.2047E+00  0.2047E+00
     31.392  0.6226E-02  0.6226E-02  0.2102E+00  0.2102E+00
     32.015  0.4329E-02  0.4329E-02  0.2136E+00  0.2136E+00
     32.637  0.5230E-02  0.5230E-02  0.2188E+00  0.2188E+00
     33.260  0.6562E-02  0.6562E-02  0.2245E+00  0.2245E+00
     33.882  0.2921E-02  0.2921E-02  0.2295E+00  0.2295E+00
     34.505  0.4821E-02  0.4821E-02  0.2335E+00  0.2335E+00
     35.127  0.5417E-02  0.5417E-02  0.2407E+00  0.2407E+00
     35.750  0.2192E-02  0.2192E-02  0.2441E+00  0.2441E+00
     36.372  0.7145E-02  0.7145E-02  0.2499E+00  0.2499E+00
     36.995  0.8199E-02  0.8199E-02  0.2585E+00  0.2585E+00
     37.617  0.5458E-02  0.5458E-02  0.2632E+00  0.2632E+00
     38.240  0.2557E-02  0.2557E-02  0.2667E+00  0.2667E+00
     38.863  0.6739E-02  0.6739E-02  0.2738E+00  0.2738E+00
     39.485  0.8121E-02  0.8121E-02  0.2807E+00  0.2807E+00
     40.108  0.7268E-02  0.7268E-02  0.2862E+00  0.2862E+00
     40.730  0.7033E-02  0.7033E-02  0.2931E+00  0.2931E+00
     41.353  0.5027E-02  0.5027E-02  0.2979E+00  0.2979E+00
     41.975  0.6685E-02  0.6685E-02  0.3031E+00  0.3031E+00
     42.598  0.6544E-02  0.6544E-02  0.3086E+00  0.3086E+00
     43.220  0.4398E-02  0.4398E-02  0.3126E+00  0.3126E+00
     43.843  0.4383E-02  0.4383E-02  0.3178E+00  0.3178E+00
     44.465  0.4367E-02  0.4367E-02  0.3229E+00  0.3229E+00
     45.088  0.1045E-01  0.1045E-01  0.3303E+00  0.3303E+00
     45.711  0.4547E-02  0.4547E-02  0.3346E+00  0.3346E+00
     46.333  0.8909E-02  0.8909E-02  0.3413E+00  0.3413E+00
     46.956  0.5325E-02  0.5325E-02  0.3464E+00  0.3464E+00
     47.578  0.5073E-02  0.5073E-02  0.3527E+00  0.3527E+00
     48.201  0.6761E-02  0.6761E-02  0.3594E+00  0.3594E+00
     48.823  0.6856E-02  0.6856E-02  0.3666E+00  0.3666E+00
     49.446  0.3254E-02  0.3254E-02  0.3691E+00  0.3691E+00
     50.068  0.7274E-02  0.7274E-02  0.3759E+00  0.3759E+00
     50.691  0.6746E-02  0.6746E-02  0.3830E+00  0.3830E+00
     51.313  0.6875E-02  0.6875E-02  0.3893E+00  0.3893E+00
     51.936  0.7520E-02  0.7520E-02  0.3967E+00  0.3967E+00
     52.559  0.5792E-02  0.5792E-02  0.4017E+00  0.4017E+00
     53.181  0.9966E-02  0.9966E-02  0.4102E+00  0.4102E+00
     53.804  0.5571E-02  0.5571E-02  0.4152E+00  0.4152E+00
     54.426  0.5799E-02  0.5799E-02  0.4211E+00  0.4211E+00
     55.049  0.3729E-02  0.3729E-02  0.4284E+00  0.4284E+00
     55.671  0.7860E-02  0.7860E-02  0.4355E+00  0.4355E+00
     56.294  0.7573E-02  0.7573E-02  0.4423E+00  0.4423E+00
     56.916  0.9506E-02  0.9506E-02  0.4499E+00  0.4499E+00
     57.539  0.9616E-02  0.9616E-02  0.4585E+00  0.4585E+00
     58.161  0.1828E-02  0.1828E-02  0.4618E+00  0.4618E+00
     58.784  0.6947E-02  0.6947E-02  0.4671E+00  0.4671E+00
     59.406  0.1015E-01  0.1015E-01  0.4749E+00  0.4749E+00
     60.029  0.7046E-02  0.7046E-02  0.4814E+00  0.4814E+00
     60.652  0.4922E-02  0.4922E-02  0.4875E+00  0.4875E+00
     61.274  0.4276E-02  0.4276E-02  0.4918E+00  0.4918E+00
     61.897  0.3198E-02  0.3198E-02  0.4955E+00  0.4955E+00
     62.519  0.8882E-02  0.8882E-02  0.5039E+00  0.5039E+00
     63.142  0.1038E-01  0.1038E-01  0.5124E+00  0.5124E+00
     63.764  0.5278E-02  0.5278E-02  0.5188E+00  0.5188E+00
     64.387  0.7157E-02  0.7157E-02  0.5257E+00  0.5257E+00
     65.009  0.8776E-02  0.8776E-02  0.5333E+00  0.5333E+00
     65.632  0.6871E-02  0.6872E-02  0.5400E+00  0.5400E+00
     66.254  0.1278E-01  0.1278E-01  0.5508E+00  0.5508E+00
     66.877  0.7882E-02  0.7882E-02  0.5569E+00  0.5569E+00
     67.500  0.7814E-02  0.7816E-02  0.5625E+00  0.5625E+00
     68.122  0.7263E-02  0.7272E-02  0.5704E+00  0.5704E+00
     68.745  0.5431E-02  0.5431E-02  0.5751E+00  0.5751E+00
     69.367  0.8447E-02  0.8457E-02  0.5825E+00  0.5825E+00
     69.990  0.1022E-01  0.1022E-01  0.5915E+00  0.5915E+00
     70.612  0.6588E-02  0.6588E-02  0.5985E+00  0.5985E+00
     71.235  0.8495E-02  0.8495E-02  0.6063E+00  0.6063E+00
     71.857  0.1037E-01  0.1037E-01  0.6163E+00  0.6163E+00
     72.480  0.8440E-02  0.8440E-02  0.6231E+00  0.6231E+00
     73.102  0.4845E-02  0.4845E-02  0.6288E+00  0.6288E+00
     73.725  0.8013E-02  0.8013E-02  0.6384E+00  0.6384E+00
     74.347  0.8366E-02  0.8400E-02  0.6437E+00  0.6437E+00
     74.970  0.8991E-02  0.8991E-02  0.6510E+00  0.6510E+00
     75.593  0.9597E-02  0.9598E-02  0.6587E+00  0.6587E+00
     76.215  0.6285E-02  0.6293E-02  0.6657E+00  0.6657E+00
     76.838  0.6609E-02  0.6609E-02  0.6735E+00  0.6735E+00
     77.460  0.1114E-01  0.1114E-01  0.6833E+00  0.6833E+00
     78.083  0.5345E-02  0.5345E-02  0.6888E+00  0.6888E+00
     78.705  0.7384E-02  0.7384E-02  0.6959E+00  0.6959E+00
     79.328  0.8688E-02  0.8688E-02  0.7069E+00  0.7069E+00
     79.950  0.5654E-02  0.5654E-02  0.7133E+00  0.7133E+00
     80.573  0.1021E-01  0.1029E-01  0.7213E+00  0.7213E+00
     81.195  0.6178E-02  0.6327E-02  0.7287E+00  0.7288E+00
     81.818  0.9089E-02  0.9469E-02  0.7362E+00  0.7362E+00
     82.441  0.7826E-02  0.7830E-02  0.7427E+00  0.7427E+00
     83.063  0.7014E-02  0.7014E-02  0.7483E+00  0.7483E+00
     83.686  0.7905E-02  0.7905E-02  0.7564E+00  0.7564E+00
     84.308  0.8528E-02  0.8524E-02  0.7637E+00  0.7637E+00
     84.931  0.7786E-02  0.8325E-02  0.7715E+00  0.7718E+00
     85.553  0.8509E-02  0.8509E-02  0.7794E+00  0.7794E+00
     86.176  0.7539E-02  0.7539E-02  0.7850E+00  0.7850E+00
     86.798  0.8019E-02  0.8019E-02  0.7922E+00  0.7922E+00
     87.421  0.8869E-02  0.8834E-02  0.8005E+00  0.8005E+00
     88.043  0.1025E-01  0.1009E-01  0.8088E+00  0.8087E+00
     88.666  0.8589E-02  0.8587E-02  0.8170E+00  0.8170E+00
     89.289  0.6973E-02  0.6973E-02  0.8240E+00  0.8240E+00
     89.911  0.7575E-02  0.7575E-02  0.8316E+00  0.8316E+00
     90.534  0.8195E-02  0.8569E-02  0.8430E+00  0.8429E+00
     91.156  0.7290E-02  0.7293E-02  0.8495E+00  0.8495E+00
     91.779  0.9272E-02  0.9372E-02  0.8574E+00  0.8575E+00
     92.401  0.6766E-02  0.7159E-02  0.8628E+00  0.8630E+00
     93.024  0.7972E-02  0.8429E-02  0.8700E+00  0.8701E+00
     93.646  0.1113E-01  0.1043E-01  0.8795E+00  0.8793E+00
     94.269  0.5914E-02  0.6502E-02  0.8856E+00  0.8857E+00
     94.891  0.9166E-02  0.8789E-02  0.8959E+00  0.8957E+00
     95.514  0.9637E-02  0.1002E-01  0.9035E+00  0.9035E+00
     96.136  0.7658E-02  0.8091E-02  0.9122E+00  0.9123E+00
     96.759  0.7864E-02  0.7868E-02  0.9194E+00  0.9194E+00
     97.382  0.6999E-02  0.6758E-02  0.9275E+00  0.9273E+00
     98.004  0.6982E-02  0.6979E-02  0.9353E+00  0.9353E+00
     98.627  0.4223E-02  0.4851E-02  0.9395E+00  0.9399E+00
     99.249  0.8945E-02  0.9041E-02  0.9478E+00  0.9478E+00
     99.872  0.8125E-02  0.8508E-02  0.9567E+00  0.9567E+00
    100.494  0.9453E-02  0.9449E-02  0.9658E+00  0.9658E+00
    101.117  0.7756E-02  0.7734E-02  0.9736E+00  0.9736E+00
    101.739  0.1079E-01  0.1112E-01  0.9824E+00  0.9827E+00
    102.362  0.7159E-02  0.6761E-02  0.9895E+00  0.9895E+00
    102.984  0.6744E-02  0.7061E-02  0.9978E+00  0.9980E+00
    103.607  0.9701E-02  0.9671E-02  0.1007E+01  0.1007E+01
    104.230  0.1013E-01  0.9752E-02  0.1015E+01  0.1015E+01
    104.852  0.8263E-02  0.7673E-02  0.1022E+01  0.1022E+01
    105.475  0.6509E-02  0.6615E-02  0.1028E+01  0.1028E+01
    106.097  0.4468E-02  0.4506E-02  0.1034E+01  0.1034E+01
    106.720  0.8248E-02  0.7868E-02  0.1042E+01  0.1042E+01
    107.342  0.9087E-02  0.8565E-02  0.1050E+01  0.1049E+01
    107.965  0.1028E-01  0.1030E-01  0.1060E+01  0.1060E+01
    108.587  0.9797E-02  0.9866E-02  0.1069E+01  0.1068E+01
    109.210  0.6849E-02  0.7134E-02  0.1074E+01  0.1074E+01
    109.832  0.5299E-02  0.5002E-02  0.1080E+01  0.1080E+01
    110.455  0.5390E-02  0.5870E-02  0.1089E+01  0.1089E+01
    111.077  0.5471E-02  0.5782E-02  0.1096E+01  0.1096E+01
    111.700  0.8312E-02  0.8563E-02  0.1105E+01  0.1105E+01
    112.323  0.6727E-02  0.6730E-02  0.1112E+01  0.1112E+01
    112.945  0.1017E-01  0.1017E-01  0.1120E+01  0.1120E+01
    113.568  0.4398E-02  0.4383E-02  0.1126E+01  0.1125E+01
    114.190  0.6385E-02  0.6752E-02  0.1133E+01  0.1133E+01
    114.813  0.4252E-02  0.4062E-02  0.1138E+01  0.1138E+01
    115.435  0.5989E-02  0.6024E-02  0.1144E+01  0.1144E+01
    116.058  0.7294E-02  0.7281E-02  0.1150E+01  0.1150E+01
    116.680  0.5547E-02  0.5542E-02  0.1156E+01  0.1156E+01
    117.303  0.1008E-01  0.1003E-01  0.1164E+01  0.1164E+01
    117.925  0.5200E-02  0.4465E-02  0.1170E+01  0.1170E+01
    118.548  0.4009E-02  0.4023E-02  0.1176E+01  0.1176E+01
    119.171  0.6693E-02  0.5484E-02  0.1182E+01  0.1181E+01
    119.793  0.7315E-02  0.7730E-02  0.1188E+01  0.1188E+01
    120.416  0.5606E-02  0.5681E-02  0.1194E+01  0.1194E+01
    121.038  0.4562E-02  0.5130E-02  0.1199E+01  0.1200E+01
    121.661  0.3874E-02  0.3281E-02  0.1203E+01  0.1203E+01
    122.283  0.3418E-02  0.3173E-02  0.1207E+01  0.1207E+01
    122.906  0.5804E-02  0.5813E-02  0.1213E+01  0.1213E+01
    123.528  0.3431E-02  0.3424E-02  0.1216E+01  0.1216E+01
    124.151  0.5433E-02  0.5343E-02  0.1221E+01  0.1221E+01
    124.773  0.5192E-02  0.5415E-02  0.1227E+01  0.1227E+01
    125.396  0.2730E-02  0.4248E-02  0.1229E+01  0.1230E+01
    126.019  0.2736E-02  0.2719E-02  0.1233E+01  0.1233E+01
    126.641  0.4980E-02  0.5201E-02  0.1237E+01  0.1237E+01
    127.264  0.1354E-02  0.1727E-02  0.1239E+01  0.1239E+01
    127.886  0.2809E-02  0.3218E-02  0.1242E+01  0.1242E+01
    128.509  0.3458E-02  0.3240E-02  0.1245E+01  0.1245E+01
    129.131  0.3243E-02  0.3241E-02  0.1248E+01  0.1248E+01
    129.754  0.3041E-02  0.2054E-02  0.1250E+01  0.1250E+01
    130.376  0.2279E-02  0.2279E-02  0.1252E+01  0.1252E+01
    130.999  0.8121E-03  0.6381E-03  0.1254E+01  0.1253E+01
    131.621  0.1616E-02  0.1992E-02  0.1255E+01  0.1256E+01
    132.244  0.1744E-02  0.1754E-02  0.1256E+01  0.1257E+01
    132.866  0.3153E-02  0.3317E-02  0.1260E+01  0.1260E+01
    133.489  0.1327E-02  0.1327E-02  0.1262E+01  0.1262E+01
    134.112  0.3874E-02  0.3903E-02  0.1265E+01  0.1265E+01
    134.734  0.1216E-03  0.1084E-03  0.1266E+01  0.1266E+01
    135.357  0.2852E-02  0.2092E-02  0.1269E+01  0.1268E+01
    135.979  0.8556E-03  0.8556E-03  0.1270E+01  0.1270E+01
    136.602  0.8556E-03  0.1236E-02  0.1271E+01  0.1271E+01
    137.224  0.2186E-02  0.1888E-02  0.1272E+01  0.1272E+01
    137.847  0.1274E-03  0.8662E-03  0.1272E+01  0.1273E+01
    138.469  0.1711E-02  0.1711E-02  0.1274E+01  0.1274E+01
    139.092  0.1146E-02  0.1174E-02  0.1275E+01  0.1275E+01
    139.714  0.8595E-11  0.7115E-07  0.1275E+01  0.1275E+01
    140.337  0.1085E-06  0.1089E-06  0.1275E+01  0.1275E+01
    140.960  0.0000E+00  0.0000E+00  0.1276E+01  0.1276E+01
    141.582  0.7606E-03  0.7606E-03  0.1277E+01  0.1277E+01
    142.205  0.1384E-02  0.1385E-02  0.1278E+01  0.1278E+01
    142.827  0.8428E-03  0.1239E-02  0.1279E+01  0.1280E+01
    143.450  0.1247E-04  0.7593E-03  0.1281E+01  0.1282E+01
    144.072  0.4335E-07  0.7495E-08  0.1282E+01  0.1282E+01
    144.695  0.7606E-03  0.7606E-03  0.1283E+01  0.1283E+01
    145.317  0.4525E-03  0.4364E-03  0.1283E+01  0.1283E+01
    145.940  0.6589E-03  0.8555E-03  0.1284E+01  0.1284E+01
    146.562  0.1037E-02  0.1427E-02  0.1285E+01  0.1285E+01
    147.185  0.7778E-03  0.7726E-03  0.1286E+01  0.1286E+01
    147.807  0.1902E-03  0.4879E-03  0.1286E+01  0.1286E+01
    148.430  0.1331E-02  0.9507E-03  0.1287E+01  0.1287E+01
    149.053  0.3182E-03  0.3094E-03  0.1287E+01  0.1287E+01
    149.675  0.1384E-02  0.1434E-02  0.1288E+01  0.1288E+01
    150.298  0.7606E-03  0.7606E-03  0.1288E+01  0.1288E+01
    150.920  0.1848E-04  0.1893E-04  0.1288E+01  0.1288E+01
    151.543  0.1747E-03  0.1125E-02  0.1289E+01  0.1289E+01
    152.165  0.3802E-03  0.0000E+00  0.1289E+01  0.1289E+01
    152.788  0.2358E-07  0.3182E-03  0.1289E+01  0.1289E+01
    153.410  0.0000E+00  0.0000E+00  0.1289E+01  0.1289E+01
    154.033  0.3803E-03  0.0000E+00  0.1290E+01  0.1289E+01
    154.655  0.0000E+00  0.3716E-03  0.1290E+01  0.1290E+01
    155.278  0.7349E-03  0.7345E-03  0.1290E+01  0.1290E+01
    155.901  0.7606E-03  0.7606E-03  0.1291E+01  0.1291E+01
    156.523  0.0000E+00  0.0000E+00  0.1291E+01  0.1291E+01
    157.146  0.6925E-04  0.6745E-04  0.1291E+01  0.1291E+01
    157.768  0.5952E-03  0.6056E-03  0.1292E+01  0.1292E+01
    158.391  0.7418E-03  0.9857E-07  0.1292E+01  0.1292E+01
    159.013  0.7606E-03  0.3870E-03  0.1293E+01  0.1292E+01
    159.636  0.0000E+00  0.0000E+00  0.1293E+01  0.1293E+01
    160.258  0.0000E+00  0.0000E+00  0.1293E+01  0.1293E+01
    160.881  0.0000E+00  0.0000E+00  0.1293E+01  0.1293E+01
    161.503  0.0000E+00  0.0000E+00  0.1293E+01  0.1293E+01
    162.126  0.3716E-03  0.8778E-07  0.1293E+01  0.1293E+01
    162.749  0.3608E-13  0.1449E-13  0.1293E+01  0.1293E+01
    163.371  0.0000E+00  0.1901E-03  0.1293E+01  0.1293E+01
    163.994  0.0000E+00  0.0000E+00  0.1293E+01  0.1293E+01
    164.616  0.0000E+00  0.0000E+00  0.1293E+01  0.1293E+01
    165.239  0.0000E+00  0.0000E+00  0.1293E+01  0.1293E+01
    165.861  0.0000E+00  0.0000E+00  0.1293E+01  0.1293E+01
    166.484  0.0000E+00  0.0000E+00  0.1293E+01  0.1293E+01
    167.106  0.0000E+00  0.0000E+00  0.1293E+01  0.1293E+01
    167.729  0.0000E+00  0.0000E+00  0.1293E+01  0.1293E+01
    168.351  0.0000E+00  0.0000E+00  0.1293E+01  0.1293E+01
    168.974  0.0000E+00  0.0000E+00  0.1293E+01  0.1293E+01
    169.596  0.0000E+00  0.0000E+00  0.1293E+01  0.1293E+01
    170.219  0.0000E+00  0.0000E+00  0.1293E+01  0.1293E+01
    170.842  0.0000E+00  0.0000E+00  0.1293E+01  0.1293E+01
    171.464  0.0000E+00  0.0000E+00  0.1293E+01  0.1293E+01
    171.46409830    -15.29860742  301      6.02346815      1.00000000
    -15.299  0.0000E+00  0.0000E+00  0.0000E+00  0.0000E+00  0.0000E+00  0.0000E+00  0.0000E+00  0.0000E+00  0.0000E+00  0.0000E+00  0.0000E+00  0.0000E+00  0.0000E+00  0.0000E+00  0.0000E+00  0.0000E+00  0.0000E+00  0.0000E+00
    -14.676  0.0000E+00  0.0000E+00  0.0000E+00  0.0000E+00  0.0000E+00  0.0000E+00  0.0000E+00  0.0000E+00  0.0000E+00  0.0000E+00  0.0000E+00  0.0000E+00  0.0000E+00  0.0000E+00  0.0000E+00  0.0000E+00  0.0000E+00  0.0000E+00
    -14.054  0.0000E+00  0.0000E+00  0.0000E+00  0.0000E+00  0.0000E+00  0.0000E+00  0.0000E+00  0.0000E+00  0.0000E+00  0.0000E+00  0.0000E+00  0.0000E+00  0.0000E+00  0.0000E+00  0.0000E+00  0.0000E+00  0.0000E+00  0.0000E+00
    -13.431  0.0000E+00  0.0000E+00  0.0000E+00  0.0000E+00  0.0000E+00  0.0000E+00  0.0000E+00  0.0000E+00  0.0000E+00  0.0000E+00  0.0000E+00  0.0000E+00  0.0000E+00  0.0000E+00  0.0000E+00  0.0000E+00  0.0000E+00  0.0000E+00
    -12.808  0.0000E+00  0.0000E+00  0.0000E+00  0.0000E+00  0.0000E+00  0.0000E+00  0.0000E+00  0.0000E+00  0.0000E+00  0.0000E+00  0.0000E+00  0.0000E+00  0.0000E+00  0.0000E+00  0.0000E+00  0.0000E+00  0.0000E+00  0.0000E+00
    -12.186  0.0000E+00  0.0000E+00  0.0000E+00  0.0000E+00  0.0000E+00  0.0000E+00  0.0000E+00  0.0000E+00  0.0000E+00  0.0000E+00  0.0000E+00  0.0000E+00  0.0000E+00  0.0000E+00  0.0000E+00  0.0000E+00  0.0000E+00  0.0000E+00
    -11.563  0.0000E+00  0.0000E+00  0.0000E+00  0.0000E+00  0.0000E+00  0.0000E+00  0.0000E+00  0.0000E+00  0.0000E+00  0.0000E+00  0.0000E+00  0.0000E+00  0.0000E+00  0.0000E+00  0.0000E+00  0.0000E+00  0.0000E+00  0.0000E+00
    -10.941  0.0000E+00  0.0000E+00  0.0000E+00  0.0000E+00  0.0000E+00  0.0000E+00  0.0000E+00  0.0000E+00  0.0000E+00  0.0000E+00  0.0000E+00  0.0000E+00  0.0000E+00  0.0000E+00  0.0000E+00  0.0000E+00  0.0000E+00  0.0000E+00
    -10.318  0.0000E+00  0.0000E+00  0.0000E+00  0.0000E+00  0.0000E+00  0.0000E+00  0.0000E+00  0.0000E+00  0.0000E+00  0.0000E+00  0.0000E+00  0.0000E+00  0.0000E+00  0.0000E+00  0.0000E+00  0.0000E+00  0.0000E+00  0.0000E+00
     -9.696  0.0000E+00  0.0000E+00  0.0000E+00  0.0000E+00  0.0000E+00  0.0000E+00  0.0000E+00  0.0000E+00  0.0000E+00  0.0000E+00  0.0000E+00  0.0000E+00  0.0000E+00  0.0000E+00  0.0000E+00  0.0000E+00  0.0000E+00  0.0000E+00
     -9.073  0.0000E+00  0.0000E+00  0.0000E+00  0.0000E+00  0.0000E+00  0.0000E+00  0.0000E+00  0.0000E+00  0.0000E+00  0.0000E+00  0.0000E+00  0.0000E+00  0.0000E+00  0.0000E+00  0.0000E+00  0.0000E+00  0.0000E+00  0.0000E+00
     -8.451  0.0000E+00  0.0000E+00  0.0000E+00  0.0000E+00  0.0000E+00  0.0000E+00  0.0000E+00  0.0000E+00  0.0000E+00  0.0000E+00  0.0000E+00  0.0000E+00  0.0000E+00  0.0000E+00  0.0000E+00  0.0000E+00  0.0000E+00  0.0000E+00
     -7.828  0.0000E+00  0.0000E+00  0.0000E+00  0.0000E+00  0.0000E+00  0.0000E+00  0.0000E+00  0.0000E+00  0.0000E+00  0.0000E+00  0.0000E+00  0.0000E+00  0.0000E+00  0.0000E+00  0.0000E+00  0.0000E+00  0.0000E+00  0.0000E+00
     -7.206  0.0000E+00  0.0000E+00  0.0000E+00  0.0000E+00  0.0000E+00  0.0000E+00  0.0000E+00  0.0000E+00  0.0000E+00  0.0000E+00  0.0000E+00  0.0000E+00  0.0000E+00  0.0000E+00  0.0000E+00  0.0000E+00  0.0000E+00  0.0000E+00
     -6.583  0.4299E-02  0.4299E-02  0.1305E-04  0.1305E-04  0.1305E-04  0.1305E-04  0.1305E-04  0.1305E-04  0.0000E+00  0.0000E+00  0.0000E+00  0.0000E+00  0.0000E+00  0.0000E+00  0.0000E+00  0.0000E+00  0.0000E+00  0.0000E+00
     -5.960  0.2694E-01  0.2694E-01  0.3174E-03  0.3174E-03  0.3174E-03  0.3174E-03  0.3174E-03  0.3174E-03  0.0000E+00  0.0000E+00  0.0000E+00  0.0000E+00  0.0000E+00  0.0000E+00  0.0000E+00  0.0000E+00  0.0000E+00  0.0000E+00
     -5.338  0.3530E-01  0.3530E-01  0.7452E-03  0.7452E-03  0.7452E-03  0.7452E-03  0.7452E-03  0.7452E-03  0.0000E+00  0.0000E+00  0.0000E+00  0.0000E+00  0.0000E+00  0.0000E+00  0.0000E+00  0.0000E+00  0.0000E+00  0.0000E+00
     -4.715  0.2174E-01  0.2174E-01  0.6372E-03  0.6372E-03  0.6372E-03  0.6372E-03  0.6372E-03  0.6372E-03  0.0000E+00  0.0000E+00  0.0000E+00  0.0000E+00  0.0000E+00  0.0000E+00  0.0000E+00  0.0000E+00  0.0000E+00  0.0000E+00
     -4.093  0.6294E-01  0.6294E-01  0.2096E-02  0.2096E-02  0.2096E-02  0.2096E-02  0.2096E-02  0.2096E-02  0.0000E+00  0.0000E+00  0.0000E+00  0.0000E+00  0.0000E+00  0.0000E+00  0.0000E+00  0.0000E+00  0.0000E+00  0.0000E+00
     -3.470  0.4844E-01  0.4844E-01  0.1887E-02  0.1887E-02  0.1887E-02  0.1887E-02  0.1887E-02  0.1887E-02  0.0000E+00  0.0000E+00  0.0000E+00  0.0000E+00  0.0000E+00  0.0000E+00  0.0000E+00  0.0000E+00  0.0000E+00  0.0000E+00
     -2.848  0.3920E-01  0.3920E-01  0.2041E-02  0.2041E-02  0.2041E-02  0.2041E-02  0.2041E-02  0.2041E-02  0.0000E+00  0.0000E+00  0.0000E+00  0.0000E+00  0.0000E+00  0.0000E+00  0.0000E+00  0.0000E+00  0.0000E+00  0.0000E+00
     -2.225  0.2601E-01  0.2601E-01  0.1969E-02  0.1969E-02  0.1969E-02  0.1969E-02  0.1969E-02  0.1969E-02  0.0000E+00  0.0000E+00  0.0000E+00  0.0000E+00  0.0000E+00  0.0000E+00  0.0000E+00  0.0000E+00  0.0000E+00  0.0000E+00
     -1.603  0.8116E-02  0.8116E-02  0.8958E-03  0.8958E-03  0.8958E-03  0.8958E-03  0.8958E-03  0.8958E-03  0.0000E+00  0.0000E+00  0.0000E+00  0.0000E+00  0.0000E+00  0.0000E+00  0.0000E+00  0.0000E+00  0.0000E+00  0.0000E+00
     -0.980  0.3796E-01  0.3796E-01  0.6996E-02  0.6996E-02  0.6996E-02  0.6996E-02  0.6996E-02  0.6996E-02  0.0000E+00  0.0000E+00  0.0000E+00  0.0000E+00  0.0000E+00  0.0000E+00  0.0000E+00  0.0000E+00  0.0000E+00  0.0000E+00
     -0.358  0.3440E-01  0.3440E-01  0.6324E-02  0.6324E-02  0.6324E-02  0.6324E-02  0.6324E-02  0.6324E-02  0.0000E+00  0.0000E+00  0.0000E+00  0.0000E+00  0.0000E+00  0.0000E+00  0.0000E+00  0.0000E+00  0.0000E+00  0.0000E+00
      0.265  0.1417E-01  0.1417E-01  0.3629E-02  0.3629E-02  0.3629E-02  0.3629E-02  0.3629E-02  0.3629E-02  0.0000E+00  0.0000E+00  0.0000E+00  0.0000E+00  0.0000E+00  0.0000E+00  0.0000E+00  0.0000E+00  0.0000E+00  0.0000E+00
      0.887  0.1692E-01  0.1692E-01  0.3848E-02  0.3848E-02  0.3848E-02  0.3848E-02  0.3848E-02  0.3848E-02  0.0000E+00  0.0000E+00  0.0000E+00  0.0000E+00  0.0000E+00  0.0000E+00  0.0000E+00  0.0000E+00  0.0000E+00  0.0000E+00
      1.510  0.1236E-01  0.1236E-01  0.1683E-01  0.1683E-01  0.1683E-01  0.1683E-01  0.1683E-01  0.1683E-01  0.0000E+00  0.0000E+00  0.0000E+00  0.0000E+00  0.0000E+00  0.0000E+00  0.0000E+00  0.0000E+00  0.0000E+00  0.0000E+00
      2.133  0.7876E-02  0.7876E-02  0.1720E-01  0.1720E-01  0.1720E-01  0.1720E-01  0.1720E-01  0.1720E-01  0.0000E+00  0.0000E+00  0.0000E+00  0.0000E+00  0.0000E+00  0.0000E+00  0.0000E+00  0.0000E+00  0.0000E+00  0.0000E+00
      2.755  0.2569E-03  0.2569E-03  0.1104E-01  0.1104E-01  0.1104E-01  0.1104E-01  0.1104E-01  0.1104E-01  0.0000E+00  0.0000E+00  0.0000E+00  0.0000E+00  0.0000E+00  0.0000E+00  0.0000E+00  0.0000E+00  0.0000E+00  0.0000E+00
      3.378  0.6854E-02  0.6854E-02  0.2393E-01  0.2393E-01  0.2393E-01  0.2393E-01  0.2393E-01  0.2393E-01  0.0000E+00  0.0000E+00  0.0000E+00  0.0000E+00  0.0000E+00  0.0000E+00  0.0000E+00  0.0000E+00  0.0000E+00  0.0000E+00
      4.000  0.3668E-02  0.3668E-02  0.2782E-01  0.2782E-01  0.2782E-01  0.2782E-01  0.2782E-01  0.2782E-01  0.0000E+00  0.0000E+00  0.0000E+00  0.0000E+00  0.0000E+00  0.0000E+00  0.0000E+00  0.0000E+00  0.0000E+00  0.0000E+00
      4.623  0.3677E-02  0.3677E-02  0.2436E-01  0.2436E-01  0.2436E-01  0.2436E-01  0.2436E-01  0.2436E-01  0.0000E+00  0.0000E+00  0.0000E+00  0.0000E+00  0.0000E+00  0.0000E+00  0.0000E+00  0.0000E+00  0.0000E+00  0.0000E+00
      5.245  0.3755E-14  0.3750E-14  0.9137E-02  0.9137E-02  0.9137E-02  0.9137E-02  0.9137E-02  0.9137E-02  0.0000E+00  0.0000E+00  0.0000E+00  0.0000E+00  0.0000E+00  0.0000E+00  0.0000E+00  0.0000E+00  0.0000E+00  0.0000E+00
      5.868  0.3314E-16  0.3314E-16  0.6827E-03  0.6827E-03  0.6827E-03  0.6827E-03  0.6827E-03  0.6827E-03  0.0000E+00  0.0000E+00  0.0000E+00  0.0000E+00  0.0000E+00  0.0000E+00  0.0000E+00  0.0000E+00  0.0000E+00  0.0000E+00
      6.490  0.4814E-03  0.4814E-03  0.1580E-03  0.1580E-03  0.1580E-03  0.1580E-03  0.1580E-03  0.1580E-03  0.0000E+00  0.0000E+00  0.0000E+00  0.0000E+00  0.0000E+00  0.0000E+00  0.0000E+00  0.0000E+00  0.0000E+00  0.0000E+00
      7.113  0.5657E-02  0.5657E-02  0.1814E-02  0.1814E-02  0.1814E-02  0.1814E-02  0.1814E-02  0.1814E-02  0.0000E+00  0.0000E+00  0.0000E+00  0.0000E+00  0.0000E+00  0.0000E+00  0.0000E+00  0.0000E+00  0.0000E+00  0.0000E+00
      7.735  0.1205E-01  0.1205E-01  0.1974E-02  0.1974E-02  0.1974E-02  0.1974E-02  0.1974E-02  0.1974E-02  0.0000E+00  0.0000E+00  0.0000E+00  0.0000E+00  0.0000E+00  0.0000E+00  0.0000E+00  0.0000E+00  0.0000E+00  0.0000E+00
      8.358  0.3085E-01  0.3085E-01  0.1239E-01  0.1239E-01  0.1239E-01  0.1239E-01  0.1239E-01  0.1239E-01  0.0000E+00  0.0000E+00  0.0000E+00  0.0000E+00  0.0000E+00  0.0000E+00  0.0000E+00  0.0000E+00  0.0000E+00  0.0000E+00
      8.981  0.2408E-01  0.2408E-01  0.1390E-01  0.1390E-01  0.1390E-01  0.1390E-01  0.1390E-01  0.1390E-01  0.0000E+00  0.0000E+00  0.0000E+00  0.0000E+00  0.0000E+00  0.0000E+00  0.0000E+00  0.0000E+00  0.0000E+00  0.0000E+00
      9.603  0.1441E-01  0.1441E-01  0.1755E-01  0.1755E-01  0.1755E-01  0.1755E-01  0.1755E-01  0.1755E-01  0.0000E+00  0.0000E+00  0.0000E+00  0.0000E+00  0.0000E+00  0.0000E+00  0.0000E+00  0.0000E+00  0.0000E+00  0.0000E+00
     10.226  0.8198E-02  0.8198E-02  0.7685E-02  0.7685E-02  0.7685E-02  0.7685E-02  0.7685E-02  0.7685E-02  0.0000E+00  0.0000E+00  0.0000E+00  0.0000E+00  0.0000E+00  0.0000E+00  0.0000E+00  0.0000E+00  0.0000E+00  0.0000E+00
     10.848  0.9698E-02  0.9698E-02  0.8364E-02  0.8364E-02  0.8364E-02  0.8364E-02  0.8364E-02  0.8364E-02  0.0000E+00  0.0000E+00  0.0000E+00  0.0000E+00  0.0000E+00  0.0000E+00  0.0000E+00  0.0000E+00  0.0000E+00  0.0000E+00
     11.471  0.1705E-01  0.1705E-01  0.1342E-01  0.1342E-01  0.1342E-01  0.1342E-01  0.1342E-01  0.1342E-01  0.0000E+00  0.0000E+00  0.0000E+00  0.0000E+00  0.0000E+00  0.0000E+00  0.0000E+00  0.0000E+00  0.0000E+00  0.0000E+00
     12.093  0.1317E-01  0.1317E-01  0.2170E-01  0.2170E-01  0.2170E-01  0.2170E-01  0.2170E-01  0.2170E-01  0.0000E+00  0.0000E+00  0.0000E+00  0.0000E+00  0.0000E+00  0.0000E+00  0.0000E+00  0.0000E+00  0.0000E+00  0.0000E+00
     12.716  0.5280E-02  0.5280E-02  0.6618E-02  0.6618E-02  0.6618E-02  0.6618E-02  0.6618E-02  0.6618E-02  0.0000E+00  0.0000E+00  0.0000E+00  0.0000E+00  0.0000E+00  0.0000E+00  0.0000E+00  0.0000E+00  0.0000E+00  0.0000E+00
     13.338  0.7566E-02  0.7566E-02  0.8764E-02  0.8764E-02  0.8764E-02  0.8764E-02  0.8764E-02  0.8764E-02  0.0000E+00  0.0000E+00  0.0000E+00  0.0000E+00  0.0000E+00  0.0000E+00  0.0000E+00  0.0000E+00  0.0000E+00  0.0000E+00
     13.961  0.1539E-01  0.1539E-01  0.1400E-01  0.1400E-01  0.1400E-01  0.1400E-01  0.1400E-01  0.1400E-01  0.0000E+00  0.0000E+00  0.0000E+00  0.0000E+00  0.0000E+00  0.0000E+00  0.0000E+00  0.0000E+00  0.0000E+00  0.0000E+00
     14.583  0.1267E-01  0.1267E-01  0.1805E-01  0.1805E-01  0.1805E-01  0.1805E-01  0.1805E-01  0.1805E-01  0.0000E+00  0.0000E+00  0.0000E+00  0.0000E+00  0.0000E+00  0.0000E+00  0.0000E+00  0.0000E+00  0.0000E+00  0.0000E+00
     15.206  0.2178E-02  0.2178E-02  0.5334E-03  0.5334E-03  0.5334E-03  0.5334E-03  0.5334E-03  0.5334E-03  0.0000E+00  0.0000E+00  0.0000E+00  0.0000E+00  0.0000E+00  0.0000E+00  0.0000E+00  0.0000E+00  0.0000E+00  0.0000E+00
     15.829  0.5647E-02  0.5647E-02  0.6727E-02  0.6727E-02  0.6727E-02  0.6727E-02  0.6727E-02  0.6727E-02  0.0000E+00  0.0000E+00  0.0000E+00  0.0000E+00  0.0000E+00  0.0000E+00  0.0000E+00  0.0000E+00  0.0000E+00  0.0000E+00