 vasp.6.3.2 27Jun22 (build Jun 30 2023 15:13:53) complex
 executed on    LinuxNV_CrayMPICH date 2023.07.25  18:01:06
 running  128 mpi-ranks, with    1 threads/rank
 distrk:  each k-point on  128 cores,    1 groups
 distr:  one band on NCORE=   1 cores,  128 groups


--------------------------------------------------------------------------------------------------------


 INCAR:
   ALGO = All
   EDIFF = 1e-05
   EDIFFG = -0.05
   ENAUG = 1360.0
   ENCUT = 680.0
   GGA = Ps
   IBRION = 2
   ISIF = 3
   ISMEAR = 0
   ISPIN = 2
   KSPACING = 0.28253269576667883
   LAECHG = True
   LASPH = True
   LCHARG = True
   LELF = True
   LMIXTAU = True
   LORBIT = 11
   LREAL = Auto
   LVTOT = True
   LWAVE = True
   MAGMOM = 2*0.0
   METAGGA = R2scan
   NELM = 200
   NSW = 99
   PREC = Accurate
   SIGMA = 0.05

 POTCAR:    PAW_PBE Si 05Jan2001
 WARNING: For LVTOT=.TRUE., VASP.5.x writes the TOTAL local potential to the
     file LOCPOT. If you want only the Hartree contributions, use LVHAR=.TRUE.
     instead.

 POTCAR:    PAW_PBE Si 05Jan2001
   VRHFIN =Si: s2p2
   LEXCH  = PE
   EATOM  =   103.0669 eV,    7.5752 Ry

   TITEL  = PAW_PBE Si 05Jan2001
   LULTRA =        F    use ultrasoft PP ?
   IUNSCR =        1    unscreen: 0-lin 1-nonlin 2-no
   RPACOR =    1.500    partial core radius
   POMASS =   28.085; ZVAL   =    4.000    mass and valenz
   RCORE  =    1.900    outmost cutoff radius
   RWIGS  =    2.480; RWIGS  =    1.312    wigner-seitz radius (au A)
   ENMAX  =  245.345; ENMIN  =  184.009 eV
   ICORE  =        2    local potential
   LCOR   =        T    correct aug charges
   LPAW   =        T    paw PP
   EAUG   =  322.069
   DEXC   =    0.000
   RMAX   =    1.950    core radius for proj-oper
   RAUG   =    1.300    factor for augmentation sphere
   RDEP   =    1.993    radius for radial grids
   RDEPT  =    1.837    core radius for aug-charge

   Atomic configuration
    6 entries
     n  l   j            E        occ.
     1  0  0.50     -1785.8828   2.0000
     2  0  0.50      -139.4969   2.0000
     2  1  1.50       -95.5546   6.0000
     3  0  0.50       -10.8127   2.0000
     3  1  0.50        -4.0811   2.0000
     3  2  1.50        -4.0817   0.0000
   Description
     l       E           TYP  RCUT    TYP  RCUT
     0    -10.8127223     23  1.900
     0     -7.6451159     23  1.900
     1     -4.0811372     23  1.900
     1      2.4879257     23  1.900
     2     -4.0817478      7  1.900
  local pseudopotential read in
  partial core-charges read in
  partial kinetic energy density read in
  atomic valenz-charges read in
  non local Contribution for L=            0  read in
    real space projection operators read in
  non local Contribution for L=            0  read in
    real space projection operators read in
  non local Contribution for L=            1  read in
    real space projection operators read in
  non local Contribution for L=            1  read in
    real space projection operators read in
    PAW grid and wavefunctions read in

   number of l-projection  operators is LMAX  =            4
   number of lm-projection operators is LMMAX =            8

 -----------------------------------------------------------------------------
|                                                                             |
|               ----> ADVICE to this user running VASP <----                  |
|                                                                             |
|     You have a (more or less) 'small supercell' and for smaller cells       |
|     it is recommended to use the reciprocal-space projection scheme!        |
|     The real-space optimization is not efficient for small cells and it     |
|     is also less accurate ...                                               |
|     Therefore, set LREAL=.FALSE. in the INCAR file.                         |
|                                                                             |
 -----------------------------------------------------------------------------

 Optimization of the real space projectors (new method)

 maximal supplied QI-value         = 19.84
 optimisation between [QCUT,QGAM] = [ 13.29, 26.59] = [ 49.49,197.96] Ry
 Optimized for a Real-space Cutoff    1.12 Angstroem

   l    n(q)    QCUT    max X(q) W(low)/X(q) W(high)/X(q)  e(spline)
   0      9    13.294   159.560    0.23E-03    0.88E-04    0.53E-07
   0      9    13.294   115.863    0.22E-03    0.87E-04    0.52E-07
   1      8    13.294    88.339    0.81E-04    0.17E-03    0.12E-06
   1      8    13.294    48.592    0.79E-04    0.17E-03    0.12E-06
 -----------------------------------------------------------------------------
|                                                                             |
|               ----> ADVICE to this user running VASP <----                  |
|                                                                             |
|     You enforced a specific xc type in the INCAR file but a different       |
|     type was found in the POTCAR file.                                      |
|     I HOPE YOU KNOW WHAT YOU ARE DOING!                                     |
|                                                                             |
 -----------------------------------------------------------------------------

  PAW_PBE Si 05Jan2001                  :
 energy of atom  1       EATOM= -103.0669
 kinetic energy error for atom=    0.0003 (will be added to EATOM!!)


 POSCAR: Si2
  positions in direct lattice
  No initial velocities read in

 METAGGA = R2SCA    LMAXTAU =  6    LMIXTAU =  T

 exchange correlation table for  LEXCH =       14
   RHO(1)=    0.500       N(1)  =     2000
   RHO(2)=  100.500       N(2)  =     4000



--------------------------------------------------------------------------------------------------------


 ion  position               nearest neighbor table
   1  0.875  0.875  0.875-   2 2.36   2 2.36   2 2.36   2 2.36
   2  0.125  0.125  0.125-   1 2.36   1 2.36   1 2.36   1 2.36

  LATTYP: Found a face centered cubic cell.
 ALAT       =     5.4437031493

  Lattice vectors:

 A1 = (   3.3335730000,   0.0000000000,   1.9246390000)
 A2 = (   1.1111910000,   3.1429240000,   1.9246390000)
 A3 = (   0.0000000000,   0.0000000000,   3.8492780000)


Analysis of symmetry for initial positions (statically):
=====================================================================
 Subroutine PRICEL returns:
 Original cell was already a primitive cell.


 Routine SETGRP: Setting up the symmetry group for a
 face centered cubic supercell.


 Subroutine GETGRP returns: Found 48 space group operations
 (whereof 12 operations were pure point group operations)
 out of a pool of 48 trial point group operations.


The static configuration has the point symmetry D_3d.
 The point group associated with its full space group is O_h .


Analysis of symmetry for dynamics (positions and initial velocities):
=====================================================================
 Subroutine PRICEL returns:
 Original cell was already a primitive cell.


 Routine SETGRP: Setting up the symmetry group for a
 face centered cubic supercell.


 Subroutine GETGRP returns: Found 48 space group operations
 (whereof 12 operations were pure point group operations)
 out of a pool of 48 trial point group operations.


The dynamic configuration has the point symmetry D_3d.
 The point group associated with its full space group is O_h .


Analysis of structural, dynamic, and magnetic symmetry:
=====================================================================
 Subroutine PRICEL returns:
 Original cell was already a primitive cell.


 Routine SETGRP: Setting up the symmetry group for a
 face centered cubic supercell.


 Subroutine GETGRP returns: Found 48 space group operations
 (whereof 12 operations were pure point group operations)
 out of a pool of 48 trial point group operations.


The overall configuration has the point symmetry D_3d.
 The point group associated with its full space group is O_h .


 Subroutine INISYM returns: Found 48 space group operations
 (whereof 12 operations are pure point group operations),
 and found     1 'primitive' translations


----------------------------------------------------------------------------------------

                                     Primitive cell

  volume of cell :      40.3295

  direct lattice vectors                    reciprocal lattice vectors
     3.333573000  0.000000000  1.924639000     0.299978432 -0.106058350  0.000000000
     1.111191000  3.142924000  1.924639000     0.000000000  0.318175050  0.000000000
     0.000000000  0.000000000  3.849278000    -0.149989216 -0.106058350  0.259788979

  length of vectors
     3.849278403  3.849279412  3.849278000     0.318175161  0.318175050  0.318175190

  position of ions in fractional coordinates (direct lattice)
     0.875000000  0.875000000  0.875000000
     0.125000000  0.125000000  0.125000000

  ion indices of the primitive-cell ions
   primitive index   ion index
                 1           1
                 2           2

----------------------------------------------------------------------------------------


 -----------------------------------------------------------------------------
|                                                                             |
|           W    W    AA    RRRRR   N    N  II  N    N   GGGG   !!!           |
|           W    W   A  A   R    R  NN   N  II  NN   N  G    G  !!!           |
|           W    W  A    A  R    R  N N  N  II  N N  N  G       !!!           |
|           W WW W  AAAAAA  RRRRR   N  N N  II  N  N N  G  GGG   !            |
|           WW  WW  A    A  R   R   N   NN  II  N   NN  G    G                |
|           W    W  A    A  R    R  N    N  II  N    N   GGGG   !!!           |
|                                                                             |
|     The requested file  could not be found or opened for reading            |
|     k-point information. Automatic k-point generation is used as a          |
|     fallback, which may lead to unwanted results.                           |
|                                                                             |
 -----------------------------------------------------------------------------



Automatic generation of k-mesh.
 Grid dimensions derived from KSPACING:
 generate k-points for:    8    8    8

 Generating k-lattice:

  Cartesian coordinates                     Fractional coordinates (reciprocal lattice)
     0.037497304 -0.013257294  0.000000000     0.125000000 -0.000000000  0.000000000
     0.000000000  0.039771881  0.000000000     0.000000000  0.125000000  0.000000000
    -0.018748652 -0.013257294  0.032473622     0.000000000  0.000000000  0.125000000

  Length of vectors
     0.039771895  0.039771881  0.039771899

  Shift w.r.t. Gamma in fractional coordinates (k-lattice)
     0.000000000  0.000000000  0.000000000


 Subroutine IBZKPT returns following result:
 ===========================================

 Found     29 irreducible k-points:

 Following reciprocal coordinates:
            Coordinates               Weight
  0.000000  0.000000  0.000000      1.000000
  0.125000  0.000000  0.000000      8.000000
  0.250000  0.000000  0.000000      8.000000
  0.375000  0.000000  0.000000      8.000000
  0.500000  0.000000  0.000000      4.000000
  0.125000  0.125000  0.000000      6.000000
  0.250000  0.125000  0.000000     24.000000
  0.375000  0.125000  0.000000     24.000000
  0.500000  0.125000  0.000000     24.000000
 -0.375000  0.125000  0.000000     24.000000
 -0.250000  0.125000  0.000000     24.000000
 -0.125000  0.125000  0.000000     12.000000
  0.250000  0.250000  0.000000      6.000000
  0.375000  0.250000  0.000000     24.000000
  0.500000  0.250000  0.000000     24.000000
 -0.375000  0.250000  0.000000     24.000000
 -0.250000  0.250000  0.000000     12.000000
  0.375000  0.375000  0.000000      6.000000
  0.500000  0.375000  0.000000     24.000000
 -0.375000  0.375000  0.000000     12.000000
  0.500000  0.500000  0.000000      3.000000
  0.375000  0.250000  0.125000     24.000000
  0.500000  0.250000  0.125000     48.000000
 -0.375000  0.250000  0.125000     24.000000
  0.500000  0.375000  0.125000     24.000000
 -0.375000  0.375000  0.125000     48.000000
 -0.250000  0.375000  0.125000     24.000000
 -0.375000  0.500000  0.125000     12.000000
 -0.250000  0.500000  0.250000      6.000000

 Following cartesian coordinates:
            Coordinates               Weight
  0.000000  0.000000  0.000000      1.000000
  0.037497 -0.013257  0.000000      8.000000
  0.074995 -0.026515  0.000000      8.000000
  0.112492 -0.039772  0.000000      8.000000
  0.149989 -0.053029  0.000000      4.000000
  0.037497  0.026515  0.000000      6.000000
  0.074995  0.013257  0.000000     24.000000
  0.112492  0.000000  0.000000     24.000000
  0.149989 -0.013257  0.000000     24.000000
 -0.112492  0.079544  0.000000     24.000000
 -0.074995  0.066286  0.000000     24.000000
 -0.037497  0.053029  0.000000     12.000000
  0.074995  0.053029  0.000000      6.000000
  0.112492  0.039772  0.000000     24.000000
  0.149989  0.026515  0.000000     24.000000
 -0.112492  0.119316  0.000000     24.000000
 -0.074995  0.106058  0.000000     12.000000
  0.112492  0.079544  0.000000      6.000000
  0.149989  0.066286  0.000000     24.000000
 -0.112492  0.159088  0.000000     12.000000
  0.149989  0.106058  0.000000      3.000000
  0.093743  0.026515  0.032474     24.000000
  0.131241  0.013257  0.032474     48.000000
 -0.131241  0.106058  0.032474     24.000000
  0.131241  0.053029  0.032474     24.000000
 -0.131241  0.145830  0.032474     48.000000
 -0.093743  0.132573  0.032474     24.000000
 -0.131241  0.185602  0.032474     12.000000
 -0.112492  0.159088  0.064947      6.000000



--------------------------------------------------------------------------------------------------------




 Dimension of arrays:
   k-points           NKPTS =     29   k-points in BZ     NKDIM =     29   number of bands    NBANDS=    128
   number of dos      NEDOS =    301   number of ions     NIONS =      2
   non local maximal  LDIM  =      4   non local SUM 2l+1 LMDIM =      8
   total plane-waves  NPLWV =  46656
   max r-space proj   IRMAX =   6918   max aug-charges    IRDMAX=  38875
   dimension x,y,z NGX =    36 NGY =   36 NGZ =   36
   dimension x,y,z NGXF=    72 NGYF=   72 NGZF=   72
   support grid    NGXF=    72 NGYF=   72 NGZF=   72
   ions per type =               2
   NGX,Y,Z   is equivalent  to a cutoff of  15.55, 15.55, 15.55 a.u.
   NGXF,Y,Z  is equivalent  to a cutoff of  31.10, 31.10, 31.10 a.u.

 SYSTEM =  unknown system
 POSCAR =  Si2

 Startparameter for this run:
   NWRITE =      2    write-flag & timer
   PREC   = accura    normal or accurate (medium, high low for compatibility)
   ISTART =      1    job   : 0-new  1-cont  2-samecut
   ICHARG =      0    charge: 1-file 2-atom 10-const
   ISPIN  =      2    spin polarized calculation?
   LNONCOLLINEAR =      F non collinear calculations
   LSORBIT =      F    spin-orbit coupling
   INIWAV =      1    electr: 0-lowe 1-rand  2-diag
   LASPH  =      T    aspherical Exc in radial PAW
 Electronic Relaxation 1
   ENCUT  =  680.0 eV  49.98 Ry    7.07 a.u.   8.18  8.18  8.18*2*pi/ulx,y,z
   ENINI  =  680.0     initial cutoff
   ENAUG  = 1360.0 eV  augmentation charge cutoff
   NELM   =    200;   NELMIN=  2; NELMDL=  0     # of ELM steps
   EDIFF  = 0.1E-04   stopping-criterion for ELM
   LREAL  =      T    real-space projection
   NLSPLINE    = F    spline interpolate recip. space projectors
   LCOMPAT=      F    compatible to vasp.4.4
   GGA_COMPAT  = T    GGA compatible to vasp.4.4-vasp.4.6
   LMAXPAW     = -100 max onsite density
   LMAXMIX     =    2 max onsite mixed and CHGCAR
   VOSKOWN=      0    Vosko Wilk Nusair interpolation
   ROPT   =   -0.00025
 Ionic relaxation
   EDIFFG = -.5E-01   stopping-criterion for IOM
   NSW    =     99    number of steps for IOM
   NBLOCK =      1;   KBLOCK =     99    inner block; outer block
   IBRION =      2    ionic relax: 0-MD 1-quasi-New 2-CG
   NFREE  =      1    steps in history (QN), initial steepest desc. (CG)
   ISIF   =      3    stress and relaxation
   IWAVPR =     11    prediction:  0-non 1-charg 2-wave 3-comb
   ISYM   =      2    0-nonsym 1-usesym 2-fastsym
   LCORR  =      T    Harris-Foulkes like correction to forces

   POTIM  = 0.5000    time-step for ionic-motion
   TEIN   =    0.0    initial temperature
   TEBEG  =    0.0;   TEEND  =   0.0 temperature during run
   SMASS  =  -3.00    Nose mass-parameter (am)
   estimated Nose-frequenzy (Omega)   =  0.10E-29 period in steps = 0.13E+47 mass=  -0.339E-27a.u.
   SCALEE = 1.0000    scale energy and forces
   NPACO  =    256;   APACO  = 10.0  distance and # of slots for P.C.
   PSTRESS=    0.0 pullay stress

  Mass of Ions in am
   POMASS =  28.09
  Ionic Valenz
   ZVAL   =   4.00
  Atomic Wigner-Seitz radii
   RWIGS  =  -1.00
  virtual crystal weights
   VCA    =   1.00
   NELECT =       8.0000    total number of electrons
   NUPDOWN=      -1.0000    fix difference up-down

 DOS related values:
   EMIN   =  10.00;   EMAX   =-10.00  energy-range for DOS
   EFERMI =   0.00
   ISMEAR =     0;   SIGMA  =   0.05  broadening in eV -4-tet -1-fermi 0-gaus

 Electronic relaxation 2 (details)
   IALGO  =     58    algorithm
   LDIAG  =      T    sub-space diagonalisation (order eigenvalues)
   LSUBROT=      F    optimize rotation matrix (better conditioning)
   TURBO    =      0    0=normal 1=particle mesh
   IRESTART =      0    0=no restart 2=restart with 2 vectors
   NREBOOT  =      0    no. of reboots
   NMIN     =      0    reboot dimension
   EREF     =   0.00    reference energy to select bands
   IMIX   =      4    mixing-type and parameters
     AMIX     =   0.40;   BMIX     =  1.00
     AMIX_MAG =   1.60;   BMIX_MAG =  1.00
     AMIN     =   0.10
     WC   =   100.;   INIMIX=   1;  MIXPRE=   1;  MAXMIX= -45

 Intra band minimization:
   WEIMIN = 0.0010     energy-eigenvalue tresh-hold
   EBREAK =  0.20E-07  absolut break condition
   DEPER  =   0.30     relativ break condition

   TIME   =   0.40     timestep for ELM

  volume/ion in A,a.u.               =      20.16       136.08
  Fermi-wavevector in a.u.,A,eV,Ry     =   0.954766  1.804247 12.402783  0.911579
  Thomas-Fermi vector in A             =   2.083543

 Write flags
   LWAVE        =      T    write WAVECAR
   LDOWNSAMPLE  =      F    k-point downsampling of WAVECAR
   LCHARG       =      T    write CHGCAR
   LVTOT        =      T    write LOCPOT, total local potential
   LVHAR        =      F    write LOCPOT, Hartree potential only
   LELF         =      T    write electronic localiz. function (ELF)
   LORBIT       =     11    0 simple, 1 ext, 2 COOP (PROOUT), +10 PAW based schemes


 Dipole corrections
   LMONO  =      F    monopole corrections only (constant potential shift)
   LDIPOL =      F    correct potential (dipole corrections)
   IDIPOL =      0    1-x, 2-y, 3-z, 4-all directions
   EPSILON=  1.0000000 bulk dielectric constant

 Exchange correlation treatment:
   GGA     =    PS    GGA type
   LEXCH   =    14    internal setting for exchange type
   LIBXC   =     F    Libxc
   VOSKOWN =     0    Vosko Wilk Nusair interpolation
   LHFCALC =     F    Hartree Fock is set to
   LHFONE  =     F    Hartree Fock one center treatment
   AEXX    =    0.0000 exact exchange contribution

 Linear response parameters
   LEPSILON=     F    determine dielectric tensor
   LRPA    =     F    only Hartree local field effects (RPA)
   LNABLA  =     F    use nabla operator in PAW spheres
   LVEL    =     F    velocity operator in full k-point grid
   CSHIFT  =0.1000    complex shift for real part using Kramers Kronig
   OMEGAMAX=  -1.0    maximum frequency
   DEG_THRESHOLD= 0.2000000E-02 threshold for treating states as degnerate
   RTIME   =   -0.100 relaxation time in fs
  (WPLASMAI=    0.000 imaginary part of plasma frequency in eV, 0.658/RTIME)
   DFIELD  = 0.0000000 0.0000000 0.0000000 field for delta impulse in time

  Optional k-point grid parameters
   LKPOINTS_OPT  =     F    use optional k-point grid
   KPOINTS_OPT_MODE=     1    mode for optional k-point grid

 Orbital magnetization related:
   ORBITALMAG=     F  switch on orbital magnetization
   LCHIMAG   =     F  perturbation theory with respect to B field
   DQ        =  0.001000  dq finite difference perturbation B field
   LLRAUG    =     F  two centre corrections for induced B field



--------------------------------------------------------------------------------------------------------


 conjugate gradient relaxation of ions
 charge density and potential will be updated during run
 spin polarized calculation
 Conjugate gradient for all bands (Freysoldt, et al. PRB 79, 241103 (2009))
 preconditioned conjugated gradient
 perform sub-space diagonalisation
    before iterative eigenvector-optimisation
 modified Broyden-mixing scheme, WC =      100.0
 initial mixing is a Kerker type mixing with AMIX =  0.4000 and BMIX =      1.0000
 Hartree-type preconditioning will be used
 using additional bands           124
 real space projection scheme for non local part
 use partial core corrections
 no Harris-corrections to forces
 use gradient corrections
 use of overlap-Matrix (Vanderbilt PP)
 Gauss-broadening in eV      SIGMA  =   0.05


--------------------------------------------------------------------------------------------------------


  energy-cutoff  :      680.00
  volume of cell :       40.33
      direct lattice vectors                 reciprocal lattice vectors
     3.333573000  0.000000000  1.924639000     0.299978432 -0.106058350  0.000000000
     1.111191000  3.142924000  1.924639000     0.000000000  0.318175050  0.000000000
     0.000000000  0.000000000  3.849278000    -0.149989216 -0.106058350  0.259788979

  length of vectors
     3.849278403  3.849279412  3.849278000     0.318175161  0.318175050  0.318175190



 old parameters found on file WAVECAR:
  energy-cutoff  :      680.00
  volume of cell :       40.33
      direct lattice vectors                 reciprocal lattice vectors
     3.333573000  0.000000000  1.924639000     0.299978432 -0.106058350  0.000000000
     1.111191000  3.142924000  1.924639000     0.000000000  0.318175050  0.000000000
     0.000000000  0.000000000  3.849278000    -0.149989216 -0.106058350  0.259788979

  length of vectors


 k-points in units of 2pi/SCALE and weight: read from INCAR
   0.00000000  0.00000000  0.00000000       0.002
   0.03749730 -0.01325729  0.00000000       0.016
   0.07499461 -0.02651459  0.00000000       0.016
   0.11249191 -0.03977188  0.00000000       0.016
   0.14998922 -0.05302917  0.00000000       0.008
   0.03749730  0.02651459  0.00000000       0.012
   0.07499461  0.01325729  0.00000000       0.047
   0.11249191  0.00000000  0.00000000       0.047
   0.14998922 -0.01325729  0.00000000       0.047
  -0.11249191  0.07954376  0.00000000       0.047
  -0.07499461  0.06628647  0.00000000       0.047
  -0.03749730  0.05302917  0.00000000       0.023
   0.07499461  0.05302917  0.00000000       0.012
   0.11249191  0.03977188  0.00000000       0.047
   0.14998922  0.02651459  0.00000000       0.047
  -0.11249191  0.11931564  0.00000000       0.047
  -0.07499461  0.10605835  0.00000000       0.023
   0.11249191  0.07954376  0.00000000       0.012
   0.14998922  0.06628647  0.00000000       0.047
  -0.11249191  0.15908752  0.00000000       0.023
   0.14998922  0.10605835  0.00000000       0.006
   0.09374326  0.02651459  0.03247362       0.047
   0.13124056  0.01325729  0.03247362       0.094
  -0.13124056  0.10605835  0.03247362       0.047
   0.13124056  0.05302917  0.03247362       0.047
  -0.13124056  0.14583023  0.03247362       0.094
  -0.09374326  0.13257294  0.03247362       0.047
  -0.13124056  0.18560211  0.03247362       0.023
  -0.11249191  0.15908752  0.06494724       0.012

 k-points in reciprocal lattice and weights: read from INCAR
   0.00000000  0.00000000  0.00000000       0.002
   0.12500000  0.00000000  0.00000000       0.016
   0.25000000  0.00000000  0.00000000       0.016
   0.37500000  0.00000000  0.00000000       0.016
   0.50000000  0.00000000  0.00000000       0.008
   0.12500000  0.12500000  0.00000000       0.012
   0.25000000  0.12500000  0.00000000       0.047
   0.37500000  0.12500000  0.00000000       0.047
   0.50000000  0.12500000  0.00000000       0.047
  -0.37500000  0.12500000  0.00000000       0.047
  -0.25000000  0.12500000  0.00000000       0.047
  -0.12500000  0.12500000  0.00000000       0.023
   0.25000000  0.25000000  0.00000000       0.012
   0.37500000  0.25000000  0.00000000       0.047
   0.50000000  0.25000000  0.00000000       0.047
  -0.37500000  0.25000000  0.00000000       0.047
  -0.25000000  0.25000000  0.00000000       0.023
   0.37500000  0.37500000  0.00000000       0.012
   0.50000000  0.37500000  0.00000000       0.047
  -0.37500000  0.37500000  0.00000000       0.023
   0.50000000  0.50000000  0.00000000       0.006
   0.37500000  0.25000000  0.12500000       0.047
   0.50000000  0.25000000  0.12500000       0.094
  -0.37500000  0.25000000  0.12500000       0.047
   0.50000000  0.37500000  0.12500000       0.047
  -0.37500000  0.37500000  0.12500000       0.094
  -0.25000000  0.37500000  0.12500000       0.047
  -0.37500000  0.50000000  0.12500000       0.023
  -0.25000000  0.50000000  0.25000000       0.012

 position of ions in fractional coordinates (direct lattice)
   0.87500000  0.87500000  0.87500000
   0.12500000  0.12500000  0.12500000

 position of ions in cartesian coordinates  (Angst):
   3.88916850  2.75005850  6.73623650
   0.55559550  0.39286550  0.96231950



--------------------------------------------------------------------------------------------------------


 k-point   1 :   0.0000 0.0000 0.0000  plane waves:    1639
 k-point   2 :   0.1250 0.0000 0.0000  plane waves:    1606
 k-point   3 :   0.2500 0.0000 0.0000  plane waves:    1624
 k-point   4 :   0.3750 0.0000 0.0000  plane waves:    1634
 k-point   5 :   0.5000 0.0000 0.0000  plane waves:    1622
 k-point   6 :   0.1250 0.1250 0.0000  plane waves:    1615
 k-point   7 :   0.2500 0.1250 0.0000  plane waves:    1625
 k-point   8 :   0.3750 0.1250 0.0000  plane waves:    1614
 k-point   9 :   0.5000 0.1250 0.0000  plane waves:    1621
 k-point  10 :  -0.3750 0.1250 0.0000  plane waves:    1618
 k-point  11 :  -0.2500 0.1250 0.0000  plane waves:    1618
 k-point  12 :  -0.1250 0.1250 0.0000  plane waves:    1608
 k-point  13 :   0.2500 0.2500 0.0000  plane waves:    1612
 k-point  14 :   0.3750 0.2500 0.0000  plane waves:    1633
 k-point  15 :   0.5000 0.2500 0.0000  plane waves:    1623
 k-point  16 :  -0.3750 0.2500 0.0000  plane waves:    1615
 k-point  17 :  -0.2500 0.2500 0.0000  plane waves:    1624
 k-point  18 :   0.3750 0.3750 0.0000  plane waves:    1624
 k-point  19 :   0.5000 0.3750 0.0000  plane waves:    1632
 k-point  20 :  -0.3750 0.3750 0.0000  plane waves:    1624
 k-point  21 :   0.5000 0.5000 0.0000  plane waves:    1604
 k-point  22 :   0.3750 0.2500 0.1250  plane waves:    1632
 k-point  23 :   0.5000 0.2500 0.1250  plane waves:    1623
 k-point  24 :  -0.3750 0.2500 0.1250  plane waves:    1634
 k-point  25 :   0.5000 0.3750 0.1250  plane waves:    1634
 k-point  26 :  -0.3750 0.3750 0.1250  plane waves:    1627
 k-point  27 :  -0.2500 0.3750 0.1250  plane waves:    1633
 k-point  28 :  -0.3750 0.5000 0.1250  plane waves:    1628
 k-point  29 :  -0.2500 0.5000 0.2500  plane waves:    1628

 maximum and minimum number of plane-waves per node :      1639     1604

 maximum number of plane-waves:      1639
 maximum index in each direction:
   IXMAX=    8   IYMAX=    8   IZMAX=    8
   IXMIN=   -8   IYMIN=   -8   IZMIN=   -8


 serial   3D FFT for wavefunctions
 parallel 3D FFT for charge:
    minimum data exchange during FFTs selected (reduces bandwidth)


 total amount of memory used by VASP MPI-rank0    43780. kBytes
=======================================================================

   base      :      30000. kBytes
   nonlr-proj:       1161. kBytes
   fftplans  :        395. kBytes
   grid      :       7226. kBytes
   one-center:         12. kBytes
   wavefun   :       4986. kBytes

     INWAV:  cpu time      1.1020: real time      2.2283
 Broyden mixing: mesh for mixing (old mesh)
   NGX = 17   NGY = 17   NGZ = 17
  (NGX  = 72   NGY  = 72   NGZ  = 72)
  gives a total of   4913 points

 charge density for first step will be calculated from the start-wavefunctions


--------------------------------------------------------------------------------------------------------


 Maximum index for non-local projection operator          6602
 Maximum index for augmentation-charges          1039 (set IRDMAX)


--------------------------------------------------------------------------------------------------------


 initial charge from wavefunction
 First call to EWALD:  gamma=   0.517
 Maximum number of real-space cells 3x 3x 3
 Maximum number of reciprocal cells 3x 3x 3

    FEWALD:  cpu time      0.0007: real time      0.0007


--------------------------------------- Iteration      1(   1)  ---------------------------------------


    POTLOK:  cpu time      0.0366: real time      0.0366
    SETDIJ:  cpu time      0.3910: real time      0.3911
    TRIAL :  cpu time      4.0162: real time      4.0185
    CORREC:  cpu time      1.0971: real time      1.0977
    CHARGE:  cpu time      0.2758: real time      0.2758
    --------------------------------------------
      LOOP:  cpu time      5.8350: real time      5.8386

 eigenvalue-minimisations  :     0
 total energy-change (2. order) :-0.1447331E+02  ( 0.2988290E+02)
 number of electron       8.0000000 magnetization       0.0000000
 augmentation part       -0.4258340 magnetization       0.0000002

 Free energy of the ion-electron system (eV)
  ---------------------------------------------------
  alpha Z        PSCENC =         3.33880741
  Ewald energy   TEWEN  =      -227.98820643
  -Hartree energ DENC   =       -16.37602119
  -exchange      EXHF   =         0.00000000
  -V(xc)+E(xc)   XCENC  =        -8.99166582
  PAW double counting   =      4632.31509072    -4638.96669729
  entropy T*S    EENTRO =        -0.00000000
  eigenvalues    EBANDS =        37.04377820
  atomic energy  EATOM  =       205.15160006
  ---------------------------------------------------
  free energy    TOTEN  =       -14.47331433 eV

  energy without entropy =      -14.47331433  energy(sigma->0) =      -14.47331433


--------------------------------------------------------------------------------------------------------




--------------------------------------- Iteration      1(   2)  ---------------------------------------


    POTLOK:  cpu time      0.0237: real time      0.0237
    SETDIJ:  cpu time      0.3933: real time      0.3933
    TRIAL :  cpu time      3.8377: real time      3.8389
    CORREC:  cpu time     10.1036: real time     10.1069
    CHARGE:  cpu time      0.2887: real time      0.2889
    --------------------------------------------
      LOOP:  cpu time     14.6626: real time     14.6755

 eigenvalue-minimisations  :     0
 total energy-change (2. order) :-0.7733077E+01  (-0.4519832E+00)
 number of electron       8.0000000 magnetization       0.0000000
 augmentation part       -0.4230584 magnetization      -0.0000005

 Free energy of the ion-electron system (eV)
  ---------------------------------------------------
  alpha Z        PSCENC =         3.33880741
  Ewald energy   TEWEN  =      -227.98820643
  -Hartree energ DENC   =       -16.69599222
  -exchange      EXHF   =         0.00000000
  -V(xc)+E(xc)   XCENC  =        -8.84691207
  PAW double counting   =      3583.48542206    -3590.16592569
  entropy T*S    EENTRO =        -0.00000000
  eigenvalues    EBANDS =        29.51481557
  atomic energy  EATOM  =       205.15160006
  ---------------------------------------------------
  free energy    TOTEN  =       -22.20639130 eV

  energy without entropy =      -22.20639130  energy(sigma->0) =      -22.20639130


--------------------------------------------------------------------------------------------------------




--------------------------------------- Iteration      1(   3)  ---------------------------------------


    POTLOK:  cpu time      0.0203: real time      0.0203
    SETDIJ:  cpu time      0.3953: real time      0.3953
    TRIAL :  cpu time      3.8479: real time      3.8490
    CORREC:  cpu time      2.5267: real time      2.5277
    CHARGE:  cpu time      0.2798: real time      0.2801
    --------------------------------------------
      LOOP:  cpu time      7.0863: real time      7.0947

 eigenvalue-minimisations  :     0
 total energy-change (2. order) :-0.2454453E+02  (-0.1055345E+00)
 number of electron       8.0000000 magnetization      -0.0000000
 augmentation part       -0.4315696 magnetization      -0.0000009

 Free energy of the ion-electron system (eV)
  ---------------------------------------------------
  alpha Z        PSCENC =         3.33880741
  Ewald energy   TEWEN  =      -227.98820643
  -Hartree energ DENC   =       -14.71080958
  -exchange      EXHF   =         0.00000000
  -V(xc)+E(xc)   XCENC  =        -8.82806096
  PAW double counting   =      2038.85483567    -2045.54433660
  entropy T*S    EENTRO =        -0.00000000
  eigenvalues    EBANDS =         2.97525204
  atomic energy  EATOM  =       205.15160006
  ---------------------------------------------------
  free energy    TOTEN  =       -46.75091839 eV

  energy without entropy =      -46.75091839  energy(sigma->0) =      -46.75091839


--------------------------------------------------------------------------------------------------------




--------------------------------------- Iteration      1(   4)  ---------------------------------------


    POTLOK:  cpu time      0.0228: real time      0.0229
    SETDIJ:  cpu time      0.3955: real time      0.3955
    TRIAL :  cpu time      3.8234: real time      3.8252
    CORREC:  cpu time      2.5288: real time      2.5292
    CHARGE:  cpu time      0.2845: real time      0.2847
    --------------------------------------------
      LOOP:  cpu time      7.0716: real time      7.0803

 eigenvalue-minimisations  :     0
 total energy-change (2. order) :-0.1052910E+00  (-0.9844005E-02)
 number of electron       8.0000000 magnetization      -0.0000000
 augmentation part       -0.4350048 magnetization       0.0000004

 Free energy of the ion-electron system (eV)
  ---------------------------------------------------
  alpha Z        PSCENC =         3.33880741
  Ewald energy   TEWEN  =      -227.98820643
  -Hartree energ DENC   =       -14.88673396
  -exchange      EXHF   =         0.00000000
  -V(xc)+E(xc)   XCENC  =        -8.82403990
  PAW double counting   =      1550.97891254    -1557.67190911
  entropy T*S    EENTRO =        -0.00000000
  eigenvalues    EBANDS =         3.04535999
  atomic energy  EATOM  =       205.15160006
  ---------------------------------------------------
  free energy    TOTEN  =       -46.85620940 eV

  energy without entropy =      -46.85620940  energy(sigma->0) =      -46.85620940


--------------------------------------------------------------------------------------------------------




--------------------------------------- Iteration      1(   5)  ---------------------------------------


    POTLOK:  cpu time      0.0225: real time      0.0225
    SETDIJ:  cpu time      0.3957: real time      0.3957
    TRIAL :  cpu time      3.8168: real time      3.8181
    CORREC:  cpu time      2.5830: real time      2.5842
    CHARGE:  cpu time      0.2836: real time      0.2836
    --------------------------------------------
      LOOP:  cpu time      7.1142: real time      7.1269

 eigenvalue-minimisations  :     0
 total energy-change (2. order) :-0.9677095E-02  (-0.1096258E-02)
 number of electron       8.0000000 magnetization      -0.0000000
 augmentation part       -0.4349606 magnetization       0.0000002

 Free energy of the ion-electron system (eV)
  ---------------------------------------------------
  alpha Z        PSCENC =         3.33880741
  Ewald energy   TEWEN  =      -227.98820643
  -Hartree energ DENC   =       -15.06171440
  -exchange      EXHF   =         0.00000000
  -V(xc)+E(xc)   XCENC  =        -8.80585430
  PAW double counting   =      1459.29067323    -1465.98970421
  entropy T*S    EENTRO =        -0.00000000
  eigenvalues    EBANDS =         3.19851215
  atomic energy  EATOM  =       205.15160006
  ---------------------------------------------------
  free energy    TOTEN  =       -46.86588649 eV

  energy without entropy =      -46.86588649  energy(sigma->0) =      -46.86588649


--------------------------------------------------------------------------------------------------------




--------------------------------------- Iteration      1(   6)  ---------------------------------------


    POTLOK:  cpu time      0.0203: real time      0.0203
    SETDIJ:  cpu time      0.3964: real time      0.3965
    TRIAL :  cpu time      3.8112: real time      3.8129
    CORREC:  cpu time      2.5617: real time      2.5623
    CHARGE:  cpu time      0.2879: real time      0.2879
    --------------------------------------------
      LOOP:  cpu time      7.0951: real time      7.1026

 eigenvalue-minimisations  :     0
 total energy-change (2. order) :-0.1097160E-02  (-0.4880972E-04)
 number of electron       8.0000000 magnetization      -0.0000000
 augmentation part       -0.4347660 magnetization       0.0000001

 Free energy of the ion-electron system (eV)
  ---------------------------------------------------
  alpha Z        PSCENC =         3.33880741
  Ewald energy   TEWEN  =      -227.98820643
  -Hartree energ DENC   =       -15.07192529
  -exchange      EXHF   =         0.00000000
  -V(xc)+E(xc)   XCENC  =        -8.80330467
  PAW double counting   =      1488.22250792    -1494.92329905
  entropy T*S    EENTRO =        -0.00000000
  eigenvalues    EBANDS =         3.20683638
  atomic energy  EATOM  =       205.15160006
  ---------------------------------------------------
  free energy    TOTEN  =       -46.86698365 eV

  energy without entropy =      -46.86698365  energy(sigma->0) =      -46.86698365


--------------------------------------------------------------------------------------------------------




--------------------------------------- Iteration      1(   7)  ---------------------------------------


    POTLOK:  cpu time      0.0237: real time      0.0237
    SETDIJ:  cpu time      0.3958: real time      0.3959
    TRIAL :  cpu time      3.8145: real time      3.8162
    CORREC:  cpu time      2.5291: real time      2.5298
    CHARGE:  cpu time      0.2810: real time      0.2810
    --------------------------------------------
      LOOP:  cpu time      7.0641: real time      7.0696

 eigenvalue-minimisations  :     0
 total energy-change (2. order) :-0.5028003E-04  (-0.3973681E-05)
 number of electron       8.0000000 magnetization      -0.0000000
 augmentation part       -0.4346935 magnetization       0.0000000

 Free energy of the ion-electron system (eV)
  ---------------------------------------------------
  alpha Z        PSCENC =         3.33880741
  Ewald energy   TEWEN  =      -227.98820643
  -Hartree energ DENC   =       -15.05633715
  -exchange      EXHF   =         0.00000000
  -V(xc)+E(xc)   XCENC  =        -8.80492339
  PAW double counting   =      1494.69198798    -1501.39263355
  entropy T*S    EENTRO =        -0.00000000
  eigenvalues    EBANDS =         3.19267112
  atomic energy  EATOM  =       205.15160006
  ---------------------------------------------------
  free energy    TOTEN  =       -46.86703393 eV

  energy without entropy =      -46.86703393  energy(sigma->0) =      -46.86703393


--------------------------------------------------------------------------------------------------------




--------------------------------------- Iteration      1(   8)  ---------------------------------------


    POTLOK:  cpu time      0.0230: real time      0.0230
    SETDIJ:  cpu time      0.3947: real time      0.3948
    TRIAL :  cpu time      3.8383: real time      3.8404
    CORREC:  cpu time      2.5276: real time      2.5286
    EDDIAG:  cpu time      1.4280: real time      1.4284
    CHARGE:  cpu time      0.2832: real time      0.2834
    --------------------------------------------
      LOOP:  cpu time      8.5085: real time      8.5208

 eigenvalue-minimisations  :     0
 total energy-change (2. order) :-0.4201135E-05  (-0.4788915E-06)
 number of electron       8.0000000 magnetization      -0.0000000
 augmentation part       -0.4346722 magnetization       0.0000000

 Free energy of the ion-electron system (eV)
  ---------------------------------------------------
  alpha Z        PSCENC =         3.33880741
  Ewald energy   TEWEN  =      -227.98820643
  -Hartree energ DENC   =       -15.04954816
  -exchange      EXHF   =         0.00000000
  -V(xc)+E(xc)   XCENC  =        -8.80567360
  PAW double counting   =      1495.50341478    -1502.20389870
  entropy T*S    EENTRO =        -0.00000000
  eigenvalues    EBANDS =         3.18646651
  atomic energy  EATOM  =       205.15160006
  ---------------------------------------------------
  free energy    TOTEN  =       -46.86703814 eV

  energy without entropy =      -46.86703814  energy(sigma->0) =      -46.86703814


--------------------------------------------------------------------------------------------------------


  average scaling for gradient   1.2810


 average (electrostatic) potential at core
  the test charge radii are     0.9892
  (the norm of the test charge is              1.0000)
       1 -86.0197       2 -86.0197



 E-fermi :   5.9351     XC(G=0):  -9.8258     alpha+bet :-11.8943

 Fermi energy:         5.9350822269

 spin component 1

 k-point     1 :       0.0000    0.0000    0.0000
  band No.  band energies     occupation
      1      -6.8094      1.00000
      2       5.6663      1.00000
      3       5.6663      1.00000
      4       5.6663      1.00000
      5       8.4210      0.00000
      6       8.4210      0.00000
      7       8.4210      0.00000
      8       9.5663      0.00000
      9      13.7886      0.00000
     10      13.7886      0.00000
     11      14.3352      0.00000
     12      17.6858      0.00000
     13      17.6858      0.00000
     14      17.6858      0.00000
     15      21.8098      0.00000
     16      30.0908      0.00000
     17      30.0908      0.00000
     18      30.0908      0.00000
     19      31.2982      0.00000
     20      31.2982      0.00000
     21      32.9132      0.00000
     22      32.9132      0.00000
     23      32.9132      0.00000
     24      36.3927      0.00000
     25      36.3927      0.00000
     26      36.3927      0.00000
     27      42.4427      0.00000
     28      42.4427      0.00000
     29      42.4427      0.00000
     30      45.2139      0.00000
     31      46.4595      0.00000
     32      46.4595      0.00000
     33      48.4615      0.00000
     34      48.4616      0.00000
     35      50.1447      0.00000
     36      50.1448      0.00000
     37      50.1448      0.00000
     38      51.8314      0.00000
     39      51.8314      0.00000
     40      51.8314      0.00000
     41      52.3482      0.00000
     42      52.6077      0.00000
     43      52.6077      0.00000
     44      52.6077      0.00000
     45      53.1111      0.00000
     46      53.1111      0.00000
     47      53.1111      0.00000
     48      54.5334      0.00000
     49      54.5334      0.00000
     50      54.5334      0.00000
     51      57.7900      0.00000
     52      59.6070      0.00000
     53      59.6070      0.00000
     54      59.6070      0.00000
     55      59.6076      0.00000
     56      59.6076      0.00000
     57      59.6076      0.00000
     58      64.4523      0.00000
     59      66.5679      0.00000
     60      75.2930      0.00000
     61      75.2930      0.00000
     62      78.2787      0.00000
     63      78.2787      0.00000
     64      78.2787      0.00000
     65      81.1980      0.00000
     66      81.1980      0.00000
     67      81.5585      0.00000
     68      81.5585      0.00000
     69      81.5585      0.00000
     70      81.6478      0.00000
     71      81.6853      0.00000
     72      81.6854      0.00000
     73      81.6854      0.00000
     74      86.0683      0.00000
     75      86.0683      0.00000
     76      86.0683      0.00000
     77      92.4750      0.00000
     78      92.4750      0.00000
     79      92.4750      0.00000
     80      92.9134      0.00000
     81      92.9134      0.00000
     82      93.3698      0.00000
     83      93.3698      0.00000
     84      93.3698      0.00000
     85      93.8020      0.00000
     86      94.1964      0.00000
     87      94.1965      0.00000
     88      94.1965      0.00000
     89      96.4056      0.00000
     90      96.4056      0.00000
     91      96.6053      0.00000
     92      96.6053      0.00000
     93      96.6054      0.00000
     94     100.0279      0.00000
     95     100.3446      0.00000
     96     100.3446      0.00000
     97     100.3446      0.00000
     98     101.4563      0.00000
     99     101.4563      0.00000
    100     101.4563      0.00000
    101     101.6920      0.00000
    102     101.6920      0.00000
    103     101.6921      0.00000
    104     101.8077      0.00000
    105     101.8077      0.00000
    106     101.8077      0.00000
    107     104.1342      0.00000
    108     104.2343      0.00000
    109     104.2343      0.00000
    110     104.2343      0.00000
    111     104.3113      0.00000
    112     104.3113      0.00000
    113     107.9849      0.00000
    114     110.3174      0.00000
    115     110.3175      0.00000
    116     110.3175      0.00000
    117     112.8926      0.00000
    118     114.3444      0.00000
    119     114.3444      0.00000
    120     114.3444      0.00000
    121     114.3859      0.00000
    122     114.3859      0.00000
    123     119.0246      0.00000
    124     119.0246      0.00000
    125     119.0246      0.00000
    126     119.2304      0.00000
    127     119.2304      0.00000
    128     119.2304      0.00000

 k-point     2 :       0.1250    0.0000    0.0000
  band No.  band energies     occupation
      1      -6.5958      1.00000
      2       4.0329      1.00000
      3       5.3632      1.00000
      4       5.3632      1.00000
      5       8.4489      0.00000
      6       8.8676      0.00000
      7       8.8676      0.00000
      8      10.8792      0.00000
      9      13.3131      0.00000
     10      13.3131      0.00000
     11      15.1232      0.00000
     12      17.0835      0.00000
     13      18.8798      0.00000
     14      18.8798      0.00000
     15      23.1133      0.00000
     16      27.9482      0.00000
     17      27.9482      0.00000
     18      28.3107      0.00000
     19      30.9160      0.00000
     20      30.9161      0.00000
     21      33.4466      0.00000
     22      33.4466      0.00000
     23      34.3803      0.00000
     24      36.5868      0.00000
     25      38.7429      0.00000
     26      38.7429      0.00000
     27      39.8205      0.00000
     28      41.9038      0.00000
     29      41.9039      0.00000
     30      44.3951      0.00000
     31      44.3951      0.00000
     32      45.9861      0.00000
     33      46.3804      0.00000
     34      46.3804      0.00000
     35      49.6817      0.00000
     36      49.6817      0.00000
     37      49.6852      0.00000
     38      50.1344      0.00000
     39      51.3215      0.00000
     40      51.8662      0.00000
     41      51.8663      0.00000
     42      52.0206      0.00000
     43      52.8252      0.00000
     44      52.8252      0.00000
     45      53.9541      0.00000
     46      54.9777      0.00000
     47      55.2941      0.00000
     48      55.2942      0.00000
     49      57.4095      0.00000
     50      57.4095      0.00000
     51      58.0596      0.00000
     52      58.9266      0.00000
     53      59.3913      0.00000
     54      59.3913      0.00000
     55      62.3787      0.00000
     56      62.3787      0.00000
     57      63.3372      0.00000
     58      66.6780      0.00000
     59      68.3538      0.00000
     60      72.1044      0.00000
     61      72.1044      0.00000
     62      74.6983      0.00000
     63      77.0764      0.00000
     64      77.0764      0.00000
     65      78.4023      0.00000
     66      79.4445      0.00000
     67      79.4445      0.00000
     68      81.7054      0.00000
     69      81.7054      0.00000
     70      82.3833      0.00000
     71      82.3833      0.00000
     72      82.8354      0.00000
     73      85.3027      0.00000
     74      85.7446      0.00000
     75      87.7461      0.00000
     76      87.7461      0.00000
     77      88.3468      0.00000
     78      88.3468      0.00000
     79      90.0729      0.00000
     80      91.5230      0.00000
     81      91.5231      0.00000
     82      92.8414      0.00000
     83      93.4855      0.00000
     84      93.5886      0.00000
     85      93.5886      0.00000
     86      94.2434      0.00000
     87      94.2434      0.00000
     88      94.5985      0.00000
     89      95.0306      0.00000
     90      95.4736      0.00000
     91      95.4737      0.00000
     92      97.5562      0.00000
     93      98.1580      0.00000
     94      98.7298      0.00000
     95      98.7298      0.00000
     96      99.2427      0.00000
     97      99.2428      0.00000
     98     100.6494      0.00000
     99     100.6494      0.00000
    100     101.2890      0.00000
    101     102.1601      0.00000
    102     102.4481      0.00000
    103     102.4481      0.00000
    104     104.2479      0.00000
    105     104.2833      0.00000
    106     104.2833      0.00000
    107     104.9305      0.00000
    108     106.7108      0.00000
    109     107.1746      0.00000
    110     107.1746      0.00000
    111     108.5932      0.00000
    112     108.5932      0.00000
    113     108.8689      0.00000
    114     108.8689      0.00000
    115     110.3041      0.00000
    116     111.1128      0.00000
    117     111.5018      0.00000
    118     111.5018      0.00000
    119     112.7821      0.00000
    120     114.0667      0.00000
    121     114.0667      0.00000
    122     114.7384      0.00000
    123     115.7946      0.00000
    124     115.7947      0.00000
    125     117.3048      0.00000
    126     117.8069      0.00000
    127     118.6042      0.00000
    128     118.6043      0.00000

 k-point     3 :       0.2500    0.0000    0.0000
  band No.  band energies     occupation
      1      -5.9729      1.00000
      2       1.6092      1.00000
      3       4.8662      1.00000
      4       4.8662      1.00000
      5       8.0097      0.00000
      6       9.4192      0.00000
      7       9.4192      0.00000
      8      13.1617      0.00000
      9      13.2905      0.00000
     10      13.2906      0.00000
     11      15.3449      0.00000
     12      18.2779      0.00000
     13      21.2054      0.00000
     14      21.2054      0.00000
     15      24.5398      0.00000
     16      24.5398      0.00000
     17      24.7156      0.00000
     18      26.7505      0.00000
     19      31.1067      0.00000
     20      31.1067      0.00000
     21      33.7995      0.00000
     22      33.7995      0.00000
     23      35.0164      0.00000
     24      36.6718      0.00000
     25      37.1306      0.00000
     26      39.2522      0.00000
     27      39.2522      0.00000
     28      40.9455      0.00000
     29      40.9455      0.00000
     30      41.9447      0.00000
     31      41.9447      0.00000
     32      45.7550      0.00000
     33      45.9177      0.00000
     34      45.9177      0.00000
     35      46.1344      0.00000
     36      47.1598      0.00000
     37      49.0334      0.00000
     38      49.0334      0.00000
     39      51.0438      0.00000
     40      51.8916      0.00000
     41      51.8917      0.00000
     42      52.2752      0.00000
     43      52.4900      0.00000
     44      55.2000      0.00000
     45      55.2000      0.00000
     46      57.4491      0.00000
     47      57.4492      0.00000
     48      58.5101      0.00000
     49      59.0258      0.00000
     50      59.0258      0.00000
     51      60.5326      0.00000
     52      62.7171      0.00000
     53      65.5553      0.00000
     54      65.5553      0.00000
     55      65.7242      0.00000
     56      65.8945      0.00000
     57      65.8945      0.00000
     58      68.4303      0.00000
     59      68.4303      0.00000
     60      69.0747      0.00000
     61      70.0942      0.00000
     62      71.4701      0.00000
     63      71.4702      0.00000
     64      74.6530      0.00000
     65      75.1870      0.00000
     66      75.6359      0.00000
     67      75.6359      0.00000
     68      79.3644      0.00000
     69      79.3644      0.00000
     70      81.5994      0.00000
     71      84.2519      0.00000
     72      84.7341      0.00000
     73      84.7341      0.00000
     74      84.9600      0.00000
     75      85.7933      0.00000
     76      85.7934      0.00000
     77      87.6416      0.00000
     78      87.6416      0.00000
     79      88.6781      0.00000
     80      89.2773      0.00000
     81      89.3665      0.00000
     82      89.3665      0.00000
     83      91.3489      0.00000
     84      91.3489      0.00000
     85      91.8406      0.00000
     86      93.6841      0.00000
     87      94.4204      0.00000
     88      94.4693      0.00000
     89      94.4694      0.00000
     90      95.2898      0.00000
     91      95.2898      0.00000
     92      97.4847      0.00000
     93      99.0137      0.00000
     94      99.3726      0.00000
     95      99.3726      0.00000
     96      99.7897      0.00000
     97      99.7897      0.00000
     98     100.4611      0.00000
     99     102.0702      0.00000
    100     102.0702      0.00000
    101     102.6151      0.00000
    102     103.6891      0.00000
    103     103.6891      0.00000
    104     105.4661      0.00000
    105     105.4662      0.00000
    106     106.7022      0.00000
    107     107.2864      0.00000
    108     107.2864      0.00000
    109     108.0885      0.00000
    110     108.5003      0.00000
    111     108.5003      0.00000
    112     109.3940      0.00000
    113     110.3765      0.00000
    114     110.6291      0.00000
    115     110.6292      0.00000
    116     111.4814      0.00000
    117     112.8845      0.00000
    118     115.7058      0.00000
    119     115.7058      0.00000
    120     116.2941      0.00000
    121     116.2942      0.00000
    122     116.5680      0.00000
    123     117.0338      0.00000
    124     118.0644      0.00000
    125     118.0647      0.00000
    126     119.6919      0.00000
    127     120.4083      0.00000
    128     120.4084      0.00000

 k-point     4 :       0.3750    0.0000    0.0000
  band No.  band energies     occupation
      1      -5.0394      1.00000
      2      -0.5009      1.00000
      3       4.5190      1.00000
      4       4.5190      1.00000
      5       7.6512      0.00000
      6       9.3703      0.00000
      7       9.3703      0.00000
      8      14.1489      0.00000
      9      14.7576      0.00000
     10      14.7577      0.00000
     11      16.0742      0.00000
     12      20.2399      0.00000
     13      20.2399      0.00000
     14      20.6577      0.00000
     15      23.3577      0.00000
     16      25.2783      0.00000
     17      25.2783      0.00000
     18      29.7153      0.00000
     19      30.8017      0.00000
     20      30.9442      0.00000
     21      30.9442      0.00000
     22      33.9398      0.00000
     23      33.9398      0.00000
     24      35.5444      0.00000
     25      35.5444      0.00000
     26      37.0440      0.00000
     27      37.8501      0.00000
     28      40.0104      0.00000
     29      40.0104      0.00000
     30      41.0391      0.00000
     31      41.0391      0.00000
     32      42.0640      0.00000
     33      44.8670      0.00000
     34      44.9683      0.00000
     35      48.5502      0.00000
     36      48.5502      0.00000
     37      49.6680      0.00000
     38      49.6681      0.00000
     39      50.4124      0.00000
     40      52.0158      0.00000
     41      52.1095      0.00000
     42      52.1095      0.00000
     43      54.9429      0.00000
     44      56.9436      0.00000
     45      56.9436      0.00000
     46      59.4127      0.00000
     47      59.4127      0.00000
     48      60.9215      0.00000
     49      62.2623      0.00000
     50      63.0274      0.00000
     51      63.0274      0.00000
     52      64.6534      0.00000
     53      64.6534      0.00000
     54      66.1789      0.00000
     55      66.1790      0.00000
     56      67.1065      0.00000
     57      67.8809      0.00000
     58      69.0112      0.00000
     59      69.9333      0.00000
     60      70.0521      0.00000
     61      70.0521      0.00000
     62      71.3064      0.00000
     63      71.3064      0.00000
     64      73.2850      0.00000
     65      73.2850      0.00000
     66      74.8334      0.00000
     67      75.1697      0.00000
     68      75.1697      0.00000
     69      77.6411      0.00000
     70      79.4418      0.00000
     71      79.5264      0.00000
     72      80.9357      0.00000
     73      80.9357      0.00000
     74      83.1638      0.00000
     75      83.6916      0.00000
     76      83.6916      0.00000
     77      85.7252      0.00000
     78      86.5559      0.00000
     79      86.8793      0.00000
     80      86.8793      0.00000
     81      89.7304      0.00000
     82      89.7304      0.00000
     83      91.2734      0.00000
     84      91.2734      0.00000
     85      93.3747      0.00000
     86      94.2532      0.00000
     87      94.2532      0.00000
     88      94.3159      0.00000
     89      94.6535      0.00000
     90      94.6536      0.00000
     91      96.1415      0.00000
     92      97.0513      0.00000
     93      97.0513      0.00000
     94      97.1623      0.00000
     95      99.4500      0.00000
     96     100.2352      0.00000
     97     100.2353      0.00000
     98     101.0090      0.00000
     99     102.4670      0.00000
    100     102.4671      0.00000
    101     103.6398      0.00000
    102     105.4173      0.00000
    103     105.4174      0.00000
    104     106.2158      0.00000
    105     106.6143      0.00000
    106     106.6143      0.00000
    107     106.6428      0.00000
    108     108.3962      0.00000
    109     109.0829      0.00000
    110     109.0829      0.00000
    111     109.9899      0.00000
    112     109.9899      0.00000
    113     111.6980      0.00000
    114     111.7700      0.00000
    115     111.7700      0.00000
    116     111.7838      0.00000
    117     113.4089      0.00000
    118     114.4199      0.00000
    119     115.4472      0.00000
    120     115.4475      0.00000
    121     117.0012      0.00000
    122     117.0982      0.00000
    123     117.0983      0.00000
    124     118.7904      0.00000
    125     118.7907      0.00000
    126     119.3163      0.00000
    127     123.7458      0.00000
    128     123.7470      0.00000

 k-point     5 :       0.5000    0.0000    0.0000
  band No.  band energies     occupation
      1      -4.3754      1.00000
      2      -1.5670      1.00000
      3       4.3999      1.00000
      4       4.3999      1.00000
      5       7.5234      0.00000
      6       9.2568      0.00000
      7       9.2568      0.00000
      8      13.9930      0.00000
      9      16.8094      0.00000
     10      16.8094      0.00000
     11      17.7117      0.00000
     12      17.7117      0.00000
     13      17.7538      0.00000
     14      19.6346      0.00000
     15      26.1572      0.00000
     16      26.7288      0.00000
     17      28.5263      0.00000
     18      28.5263      0.00000
     19      28.7877      0.00000
     20      28.7877      0.00000
     21      32.4948      0.00000
     22      33.5021      0.00000
     23      33.5021      0.00000
     24      34.6430      0.00000
     25      34.6430      0.00000
     26      35.3604      0.00000
     27      38.2464      0.00000
     28      39.7850      0.00000
     29      39.7850      0.00000
     30      40.3598      0.00000
     31      40.3598      0.00000
     32      41.3798      0.00000
     33      43.9763      0.00000
     34      44.0801      0.00000
     35      48.5467      0.00000
     36      48.5467      0.00000
     37      50.2556      0.00000
     38      50.5867      0.00000
     39      50.5867      0.00000
     40      51.8887      0.00000
     41      54.6797      0.00000
     42      54.6797      0.00000
     43      56.4975      0.00000
     44      56.4975      0.00000
     45      57.3316      0.00000
     46      60.4342      0.00000
     47      60.7605      0.00000
     48      60.7605      0.00000
     49      62.0223      0.00000
     50      62.4217      0.00000
     51      62.4217      0.00000
     52      64.3536      0.00000
     53      64.3536      0.00000
     54      67.0467      0.00000
     55      67.0467      0.00000
     56      67.7383      0.00000
     57      68.0815      0.00000
     58      68.0815      0.00000
     59      69.6127      0.00000
     60      71.1518      0.00000
     61      71.1519      0.00000
     62      71.1911      0.00000
     63      73.0377      0.00000
     64      74.0153      0.00000
     65      74.7423      0.00000
     66      74.7423      0.00000
     67      75.8729      0.00000
     68      76.2906      0.00000
     69      76.2906      0.00000
     70      77.0985      0.00000
     71      77.7402      0.00000
     72      80.0621      0.00000
     73      81.1080      0.00000
     74      81.1080      0.00000
     75      81.4011      0.00000
     76      81.4011      0.00000
     77      83.8837      0.00000
     78      83.8838      0.00000
     79      86.2203      0.00000
     80      86.8174      0.00000
     81      86.8174      0.00000
     82      90.3467      0.00000
     83      91.6735      0.00000
     84      91.6735      0.00000
     85      92.1748      0.00000
     86      94.1587      0.00000
     87      94.1587      0.00000
     88      94.5013      0.00000
     89      94.8897      0.00000
     90      96.5864      0.00000
     91      96.5864      0.00000
     92      99.0624      0.00000
     93      99.4424      0.00000
     94      99.4424      0.00000
     95      99.5236      0.00000
     96      99.9697      0.00000
     97      99.9697      0.00000
     98     102.0082      0.00000
     99     102.2027      0.00000
    100     103.0408      0.00000
    101     103.0408      0.00000
    102     103.6729      0.00000
    103     103.8594      0.00000
    104     103.8594      0.00000
    105     103.9532      0.00000
    106     103.9532      0.00000
    107     104.4312      0.00000
    108     109.2528      0.00000
    109     109.7893      0.00000
    110     109.7939      0.00000
    111     111.5110      0.00000
    112     112.2469      0.00000
    113     112.2512      0.00000
    114     113.2694      0.00000
    115     114.2528      0.00000
    116     114.2715      0.00000
    117     115.2263      0.00000
    118     115.2316      0.00000
    119     115.9200      0.00000
    120     116.0688      0.00000
    121     117.0723      0.00000
    122     117.1156      0.00000
    123     117.8841      0.00000
    124     118.3145      0.00000
    125     118.5480      0.00000
    126     118.8264      0.00000
    127     119.2254      0.00000
    128     125.0176      0.00000

 k-point     6 :       0.1250    0.1250    0.0000
  band No.  band energies     occupation
      1      -6.5238      1.00000
      2       4.3250      1.00000
      3       4.8238      1.00000
      4       4.8238      1.00000
      5       7.8828      0.00000
      6       9.6215      0.00000
      7       9.6215      0.00000
      8      10.5521      0.00000
      9      12.6109      0.00000
     10      14.1086      0.00000
     11      15.4300      0.00000
     12      18.1757      0.00000
     13      18.1757      0.00000
     14      18.6119      0.00000
     15      23.7440      0.00000
     16      27.4627      0.00000
     17      27.4627      0.00000
     18      28.7284      0.00000
     19      29.6825      0.00000
     20      30.4573      0.00000
     21      33.7088      0.00000
     22      34.0388      0.00000
     23      34.0388      0.00000
     24      38.5068      0.00000
     25      38.5068      0.00000
     26      39.0932      0.00000
     27      40.4430      0.00000
     28      40.6228      0.00000
     29      40.6229      0.00000
     30      42.9629      0.00000
     31      44.8428      0.00000
     32      45.8368      0.00000
     33      47.0073      0.00000
     34      48.2142      0.00000
     35      48.2965      0.00000
     36      48.2966      0.00000
     37      49.6774      0.00000
     38      49.9386      0.00000
     39      49.9386      0.00000
     40      51.5328      0.00000
     41      51.5328      0.00000
     42      52.5281      0.00000
     43      54.0610      0.00000
     44      54.3561      0.00000
     45      55.1001      0.00000
     46      55.1002      0.00000
     47      55.9189      0.00000
     48      56.2428      0.00000
     49      56.2429      0.00000
     50      56.5770      0.00000
     51      56.7313      0.00000
     52      59.0121      0.00000
     53      59.7144      0.00000
     54      59.7144      0.00000
     55      62.8168      0.00000
     56      65.0191      0.00000
     57      65.0191      0.00000
     58      66.8571      0.00000
     59      68.1433      0.00000
     60      68.4236      0.00000
     61      75.4921      0.00000
     62      75.9507      0.00000
     63      75.9507      0.00000
     64      77.1683      0.00000
     65      79.2031      0.00000
     66      79.3874      0.00000
     67      79.4141      0.00000
     68      79.4143      0.00000
     69      80.6779      0.00000
     70      80.7910      0.00000
     71      80.7921      0.00000
     72      81.5744      0.00000
     73      85.5571      0.00000
     74      87.4982      0.00000
     75      87.5020      0.00000
     76      88.1196      0.00000
     77      88.4598      0.00000
     78      89.2909      0.00000
     79      89.8626      0.00000
     80      90.7692      0.00000
     81      90.8540      0.00000
     82      91.3454      0.00000
     83      91.3460      0.00000
     84      93.2692      0.00000
     85      93.9743      0.00000
     86      94.4594      0.00000
     87      95.0354      0.00000
     88      95.5654      0.00000
     89      95.7057      0.00000
     90      95.7453      0.00000
     91      95.7566      0.00000
     92      97.5061      0.00000
     93      98.9290      0.00000
     94      99.4706      0.00000
     95      99.7320      0.00000
     96     100.7581      0.00000
     97     100.9436      0.00000
     98     101.3440      0.00000
     99     102.5440      0.00000
    100     102.5531      0.00000
    101     103.2888      0.00000
    102     104.1340      0.00000
    103     104.6274      0.00000
    104     106.0499      0.00000
    105     106.6400      0.00000
    106     107.7103      0.00000
    107     107.9595      0.00000
    108     108.3282      0.00000
    109     111.4218      0.00000
    110     111.6705      0.00000
    111     112.8780      0.00000
    112     112.8986      0.00000
    113     113.3282      0.00000
    114     114.0997      0.00000
    115     115.3536      0.00000
    116     115.5251      0.00000
    117     118.3292      0.00000
    118     120.1548      0.00000
    119     123.8363      0.00000
    120     124.6560      0.00000
    121     125.5642      0.00000
    122     126.0829      0.00000
    123     126.5097      0.00000
    124     128.8988      0.00000
    125     130.1016      0.00000
    126     131.0955      0.00000
    127     133.2236      0.00000
    128     137.8417      0.00000

 k-point     7 :       0.2500    0.1250    0.0000
  band No.  band energies     occupation
      1      -6.0335      1.00000
      2       2.3450      1.00000
      3       4.2852      1.00000
      4       4.3882      1.00000
      5       8.0411      0.00000
      6       9.7059      0.00000
      7      10.4319      0.00000
      8      10.7818      0.00000
      9      13.7423      0.00000
     10      14.3090      0.00000
     11      16.4141      0.00000
     12      18.0011      0.00000
     13      19.6380      0.00000
     14      20.9307      0.00000
     15      24.2744      0.00000
     16      24.8299      0.00000
     17      25.9264      0.00000
     18      28.4614      0.00000
     19      28.4818      0.00000
     20      30.0124      0.00000
     21      33.4230      0.00000
     22      34.4250      0.00000
     23      35.4441      0.00000
     24      37.0680      0.00000
     25      38.8074      0.00000
     26      39.1505      0.00000
     27      39.4398      0.00000
     28      40.3266      0.00000
     29      40.9771      0.00000
     30      41.7181      0.00000
     31      43.3877      0.00000
     32      43.3953      0.00000
     33      45.9816      0.00000
     34      46.4632      0.00000
     35      47.6516      0.00000
     36      47.9475      0.00000
     37      48.1868      0.00000
     38      49.7191      0.00000
     39      51.3854      0.00000
     40      51.4821      0.00000
     41      52.5536      0.00000
     42      52.5681      0.00000
     43      53.1088      0.00000
     44      53.7445      0.00000
     45      55.0267      0.00000
     46      55.8057      0.00000
     47      57.3793      0.00000
     48      57.4086      0.00000
     49      58.4296      0.00000
     50      58.8616      0.00000
     51      61.0457      0.00000
     52      61.9208      0.00000
     53      63.4044      0.00000
     54      63.9845      0.00000
     55      64.4335      0.00000
     56      65.3950      0.00000
     57      67.3226      0.00000
     58      68.3611      0.00000
     59      69.6784      0.00000
     60      71.2805      0.00000
     61      71.8646      0.00000
     62      72.5853      0.00000
     63      72.8732      0.00000
     64      74.8510      0.00000
     65      74.8718      0.00000
     66      76.8635      0.00000
     67      77.7934      0.00000
     68      77.7977      0.00000
     69      79.6288      0.00000
     70      80.5763      0.00000
     71      82.6513      0.00000
     72      83.1337      0.00000
     73      83.6410      0.00000
     74      84.7704      0.00000
     75      85.3236      0.00000
     76      86.4346      0.00000
     77      87.1075      0.00000
     78      87.7412      0.00000
     79      88.2994      0.00000
     80      88.6174      0.00000
     81      90.0078      0.00000
     82      90.2621      0.00000
     83      91.6448      0.00000
     84      91.7222      0.00000
     85      92.8690      0.00000
     86      93.3832      0.00000
     87      93.9282      0.00000
     88      95.1920      0.00000
     89      95.6913      0.00000
     90      95.8208      0.00000
     91      96.9044      0.00000
     92      97.3921      0.00000
     93      97.8689      0.00000
     94      98.7131      0.00000
     95      99.2502      0.00000
     96     100.1183      0.00000
     97     100.5035      0.00000
     98     101.5475      0.00000
     99     102.3030      0.00000
    100     102.4324      0.00000
    101     102.4923      0.00000
    102     103.5923      0.00000
    103     103.9598      0.00000
    104     105.1833      0.00000
    105     105.4503      0.00000
    106     106.1895      0.00000
    107     106.4702      0.00000
    108     106.5741      0.00000
    109     107.1310      0.00000
    110     107.8495      0.00000
    111     107.8627      0.00000
    112     109.0067      0.00000
    113     110.5352      0.00000
    114     110.9402      0.00000
    115     111.0588      0.00000
    116     112.7445      0.00000
    117     113.1930      0.00000
    118     113.7310      0.00000
    119     115.0092      0.00000
    120     115.1643      0.00000
    121     116.2737      0.00000
    122     116.8122      0.00000
    123     117.0702      0.00000
    124     118.4292      0.00000
    125     119.8478      0.00000
    126     121.7461      0.00000
    127     122.5401      0.00000
    128     124.2381      0.00000

 k-point     8 :       0.3750    0.1250    0.0000
  band No.  band energies     occupation
      1      -5.1816      1.00000
      2       0.1902      1.00000
      3       3.7767      1.00000
      4       4.0003      1.00000
      5       8.1800      0.00000
      6       9.6243      0.00000
      7      10.4331      0.00000
      8      11.5358      0.00000
      9      15.5222      0.00000
     10      15.6555      0.00000
     11      16.3355      0.00000
     12      19.8702      0.00000
     13      19.9625      0.00000
     14      21.7771      0.00000
     15      23.3222      0.00000
     16      24.3894      0.00000
     17      25.3340      0.00000
     18      28.8034      0.00000
     19      29.4815      0.00000
     20      30.4944      0.00000
     21      31.7290      0.00000
     22      32.6826      0.00000
     23      34.6896      0.00000
     24      36.2639      0.00000
     25      37.4887      0.00000
     26      37.5762      0.00000
     27      37.8081      0.00000
     28      39.0115      0.00000
     29      40.1209      0.00000
     30      40.6939      0.00000
     31      42.3897      0.00000
     32      43.6096      0.00000
     33      45.4384      0.00000
     34      45.4674      0.00000
     35      46.7803      0.00000
     36      47.0291      0.00000
     37      49.9143      0.00000
     38      50.3996      0.00000
     39      50.5904      0.00000
     40      52.1728      0.00000
     41      53.0952      0.00000
     42      53.3217      0.00000
     43      54.7397      0.00000
     44      54.7515      0.00000
     45      57.1377      0.00000
     46      57.3770      0.00000
     47      57.8143      0.00000
     48      59.8941      0.00000
     49      60.4509      0.00000
     50      62.1770      0.00000
     51      63.9198      0.00000
     52      64.1454      0.00000
     53      65.4875      0.00000
     54      65.7672      0.00000
     55      67.4419      0.00000
     56      67.8086      0.00000
     57      68.8362      0.00000
     58      69.0602      0.00000
     59      69.3751      0.00000
     60      70.5370      0.00000
     61      70.5866      0.00000
     62      71.1235      0.00000
     63      72.1435      0.00000
     64      73.2310      0.00000
     65      74.1372      0.00000
     66      74.8448      0.00000
     67      75.3347      0.00000
     68      75.9222      0.00000
     69      77.0947      0.00000
     70      78.7083      0.00000
     71      80.8740      0.00000
     72      81.4554      0.00000
     73      81.5743      0.00000
     74      83.2962      0.00000
     75      84.3567      0.00000
     76      84.7839      0.00000
     77      84.8694      0.00000
     78      86.1616      0.00000
     79      87.7435      0.00000
     80      88.0964      0.00000
     81      89.1120      0.00000
     82      89.3410      0.00000
     83      90.5059      0.00000
     84      90.5629      0.00000
     85      91.2154      0.00000
     86      92.7547      0.00000
     87      92.7833      0.00000
     88      94.3635      0.00000
     89      94.8635      0.00000
     90      95.6611      0.00000
     91      96.1636      0.00000
     92      97.6040      0.00000
     93      98.1625      0.00000
     94      99.1855      0.00000
     95      99.4123      0.00000
     96     100.5060      0.00000
     97     100.9464      0.00000
     98     101.6546      0.00000
     99     101.7614      0.00000
    100     101.7713      0.00000
    101     103.2419      0.00000
    102     104.0752      0.00000
    103     105.0270      0.00000
    104     105.6853      0.00000
    105     106.4695      0.00000
    106     106.8906      0.00000
    107     107.1802      0.00000
    108     107.3365      0.00000
    109     108.2838      0.00000
    110     108.9429      0.00000
    111     110.1444      0.00000
    112     110.2239      0.00000
    113     111.0805      0.00000
    114     112.4824      0.00000
    115     112.5997      0.00000
    116     114.0217      0.00000
    117     114.7384      0.00000
    118     114.8263      0.00000
    119     116.2015      0.00000
    120     116.5373      0.00000
    121     116.8965      0.00000
    122     118.0356      0.00000
    123     119.8612      0.00000
    124     120.6061      0.00000
    125     124.1007      0.00000
    126     125.9475      0.00000
    127     126.3332      0.00000
    128     128.1177      0.00000

 k-point     9 :       0.5000    0.1250    0.0000
  band No.  band energies     occupation
      1      -4.2833      1.00000
      2      -1.3378      1.00000
      3       3.3110      1.00000
      4       4.0226      1.00000
      5       8.1440      0.00000
      6       9.4906      0.00000
      7      10.0543      0.00000
      8      13.5404      0.00000
      9      15.2739      0.00000
     10      16.7534      0.00000
     11      17.9395      0.00000
     12      18.0203      0.00000
     13      19.0369      0.00000
     14      21.6508      0.00000
     15      25.0322      0.00000
     16      26.4654      0.00000
     17      27.1022      0.00000
     18      27.9544      0.00000
     19      28.8693      0.00000
     20      29.2604      0.00000
     21      31.7044      0.00000
     22      32.9132      0.00000
     23      33.4433      0.00000
     24      34.7348      0.00000
     25      35.2604      0.00000
     26      36.7335      0.00000
     27      37.2852      0.00000
     28      37.6622      0.00000
     29      40.1709      0.00000
     30      40.5670      0.00000
     31      41.2758      0.00000
     32      42.4959      0.00000
     33      44.9078      0.00000
     34      45.0910      0.00000
     35      46.2049      0.00000
     36      48.3342      0.00000
     37      49.1056      0.00000
     38      51.6745      0.00000
     39      52.2411      0.00000
     40      53.6107      0.00000
     41      54.5216      0.00000
     42      55.4241      0.00000
     43      56.0914      0.00000
     44      56.1552      0.00000
     45      56.6750      0.00000
     46      57.3711      0.00000
     47      59.1648      0.00000
     48      61.2215      0.00000
     49      61.9843      0.00000
     50      62.9910      0.00000
     51      63.2512      0.00000
     52      64.8534      0.00000
     53      65.5990      0.00000
     54      66.0711      0.00000
     55      66.6425      0.00000
     56      67.7051      0.00000
     57      68.0613      0.00000
     58      68.8608      0.00000
     59      70.5167      0.00000
     60      70.7940      0.00000
     61      71.1302      0.00000
     62      71.7149      0.00000
     63      72.5327      0.00000
     64      72.6043      0.00000
     65      73.6195      0.00000
     66      75.3255      0.00000
     67      77.2535      0.00000
     68      77.3154      0.00000
     69      78.1795      0.00000
     70      78.3766      0.00000
[...]
  348                    map_scatter                           0.000083               76   9
  349                  map_forward                           0.015804                 76   8
  350                    map_gather                            0.000172               38   9
  351                    m_alltoallv_z                         0.015291               38   9
  352                    map_scatter                           0.000254               38   9
  353          fft3d_mpi                             0.004115                         19   4
  354            fftbrc_mpi                            0.004082                       19   5
  355              fftbas_plan_mpi                       0.004076                     19   6
  356                dfftw_execute                         0.000549                   57   7
  357                map_forward                           0.003334                   38   7
  358                  map_gather                            0.000038                 19   8
  359                  m_alltoallv_z                         0.003161                 19   8
  360                  map_scatter                           0.000107                 19   8
  361          m_sumb_d                              0.001182                         18   4
  362        potxc_metagga                         0.014294                            1   3
  363          fft3d_mpi                             0.007592                         30   4
  364            fftbrc_mpi                            0.007534                       30   5
  365              fftbas_plan_mpi                       0.007523                     30   6
  366                dfftw_execute                         0.000899                   90   7
  367                map_forward                           0.003433                   32   7
  368                  map_gather                            0.000038                 16   8
  369                  m_alltoallv_z                         0.003295                 16   8
  370                  map_scatter                           0.000074                 16   8
  371                map_backward                          0.002920                   28   7
  372                  map_gather                            0.000059                 14   8
  373                  m_alltoallv_z                         0.002805                 14   8
  374                  map_scatter                           0.000036                 14   8
  375          m_sumb_d                              0.000184                          3   4
  376        fortau                                0.000057                            1   3
  377          m_sumb_d                              0.000018                          1   4
  378        forhar                                0.000284                            1   3
  379          m_sumb_d                              0.000128                          1   4
  380        strehar                               0.000070                            1   3
  381          m_sumb_d                              0.000018                          1   4
  382        m_bcast_d                             0.000114                            2   3
  383      potlok                                0.013493                              2   2
  384        fft3d_mpi                             0.009832                           20   3
  385          fftbrc_mpi                            0.009268                         20   4
  386            fftbas_plan_mpi                       0.009255                       20   5
  387              dfftw_execute                         0.000975                     60   6
  388              map_forward                           0.004730                     24   6
  389                map_gather                            0.000057                   16   7
  390                m_alltoallv_z                         0.004360                   16   7
  391                map_scatter                           0.000283                   16   7
  392              map_backward                          0.003198                     16   6
  393                map_gather                            0.000034                    8   7
  394                m_alltoallv_z                         0.003134                    8   7
  395                map_scatter                           0.000020                    8   7
  396        pothar                                0.000261                            2   3
  397          m_sumb_d                              0.000198                          2   4
  398        m_bcast_d                             0.002995                            4   3
  399      potlok_metagga                        0.035281                              2   2
  400        fft3d_mpi                             0.019191                           76   3
  401          fftbrc_mpi                            0.018330                         76   4
  402            fftbas_plan_mpi                       0.018307                       76   5
  403              dfftw_execute                         0.002815                    228   6
  404              map_forward                           0.009703                     96   6
  405                map_gather                            0.000107                   56   7
  406                m_alltoallv_z                         0.009040                   56   7
  407                map_scatter                           0.000470                   56   7
  408              map_backward                          0.004909                     56   6
  409                map_gather                            0.000116                   28   7
  410                m_alltoallv_z                         0.004671                   28   7
  411                map_scatter                           0.000076                   28   7
  412        m_sumb_d                              0.000120                            6   3
  413        m_bcast_d                             0.002424                            8   3
  414      set_dd_magatom                        0.000000                              1   2
  415      set_dd_paw                            0.406151                              1   2
  416        set_rsgf_all                          0.000000                            1   3
  417        m_sumb_d                              0.406117                            7   3
  418      augmentation_charge                   0.003085                              1   2
  419        fft3d_mpi                             0.002294                            2   3
  420          fftbrc_mpi                            0.002288                          2   4
  421            fftbas_plan_mpi                       0.002287                        2   5
  422              dfftw_execute                         0.000066                      6   6
  423              map_backward                          0.002149                      4   6
  424                map_gather                            0.000011                    2   7
  425                m_alltoallv_z                         0.002129                    2   7
  426                map_scatter                           0.000006                    2   7
  427      fftwav_mpi                            0.099745                            174   2
  428        fftwav                                0.099636                          174   3
  429          fft3d                                 0.091581                        174   4
  430      m_alltoall_d                          0.028292                             18   2

 Flat profile
 ============

             routine name                   CPU           calls
 ---------------------------------------------------------------
 m_alltoall_d                           15.747869       26602
 fft3d                                  14.821791       28826
 pdssyex_zheevx                         11.985339        1102
 m_sumb_d                                9.675004        9120
 total_time                              7.588985           1
 edwav                                   6.102373          19
 kinhamil_tau                            2.664065        2552
 set_kineden                             2.043614          39
 fftwav                                  1.669430       18154
 eccp_tau                                1.173315        2030
 m_bcast_z                               0.801561        7426
 bg_ppotrf_trtri                         0.704180        1102
 phaser                                  0.516211         841
 m_alltoallv_z                           0.441243        1596
 racc0                                   0.336890         464
 lincom                                  0.311152        2146
 vhamil                                  0.270771         522
 elmin_all                               0.199271           1
 setdij_                                 0.163889          47
 lincom_slice                            0.160647        1102
 sphpro_fast                             0.155396           2
 potlok_metagga                          0.140651          21
 m_sum_g                                 0.132719        2204
 crrexp_mul_work_add                     0.121462         928
 orth1                                   0.121117         522
 orth1_nosubindex                        0.118725        1102
 fftext_mpi                              0.113807       10672
 set_charge                              0.087383          20
 m_bcast_d                               0.070498         133
 rpro1                                   0.069028         464
 crrexp_mul_wave                         0.063822        2436
 dfftw_execute                           0.056993        3996
 w1_dscal                                0.049881         464
 pw_charge                               0.044600        1160
 rpromu_gemm                             0.040535        1508
 fft3d_mpi                               0.031094       12004
 eddiag                                  0.027033          12
 rspher_all                              0.026452          14
 soft_charge                             0.021194          20
 augmentation_charge                     0.019273          21
 fftbas_plan_mpi                         0.018206        1332
 orth1_distri                            0.017624        1102
 redis_proj                              0.014752       12760
 recon_slice                             0.014503        1102
 map_gather                              0.010188        1596
 orthch                                  0.010102          19
 map_scatter                             0.009953        1596
 redis_pw                                0.009907        4814
 fftwav_mpi                              0.008563       18154
 potxc_metagga                           0.006518           1
 brgrid                                  0.005940           1
 inisym                                  0.005434           1
 overl                                   0.004272        2552
 lincom_distri                           0.003859        1102
 potlok                                  0.003434          21
 rpromu                                  0.002698         754
 densta                                  0.002541          21
 rpro_isp                                0.002298         377
 force_and_stress                        0.001874           1
 map_forward                             0.001527        1536
 distri_slice                            0.001441        1102
 set_dd_paw                              0.001357          21
 strkin                                  0.001302           1
 hamilt_local_tau                        0.001297         522
 stretau                                 0.001135           1
 map_backward                            0.001078        1128
 strnlr                                  0.000850           1
 depsum                                  0.000735          20
 choleski                                0.000661        1102
 redis_pw_all                            0.000553          19
 fft_gq                                  0.000516          20
 fftbrc_mpi                              0.000513        1332
 pothar                                  0.000477          21
 fordep                                  0.000392           1
 fewald                                  0.000345           1
 fornlr                                  0.000310           1
 forhar                                  0.000156           1
 rsp                                     0.000118           1
 proall                                  0.000097           1
 strelo                                  0.000082           1
 strehar                                 0.000052           1
 forloc                                  0.000044           1
 fortau                                  0.000039           1
 crpa_reader                             0.000027           1
 stufak                                  0.000025           1
 redis_pw_over_bands                     0.000020          20
 posmap                                  0.000018           2
 rcp                                     0.000009           1
 FERMAT_RAZOR                            0.000008           1
 shift_bands_between_low_high            0.000008          58
 set_rsgf_all                            0.000007          21
 set_dd_magatom                          0.000000           2
 rotate_active_occupied_orbital          0.000000           1
 vectorpot                               0.000000           1
 ---------------------------------------------------------------
  summed up times     79.05713009834290

 Accumulative profile
 ====================

             routine name                   CPU           calls
 ---------------------------------------------------------------
 total_time                             79.057130           1
 elmin_all                              64.520140           1
 edwav                                  45.369347          19
 m_alltoall_d                           15.749642       26602
 fft3d                                  14.821791       28826
 kinhamil_tau                           13.222689        2552
 pdssyex_zheevx                         11.985339        1102
 eccp_tau                               11.569004        2030
 fftwav_mpi                             10.744228       18154
 fftwav                                 10.735665       18154
 m_sumb_d                                9.675004        9120
 set_dd_paw                              8.242975          21
 set_kineden                             6.958533          39
 redis_proj                              6.533828       12760
 fft3d_mpi                               6.326352       12004
 fftext_mpi                              5.875035       10672
 eddiag                                  5.571405          12
 orthch                                  4.237971          19
 force_and_stress                        3.446206           1
 hamilt_local_tau                        3.099068         522
 m_sum_g                                 2.628993        2204
 stretau                                 2.240919           1
 redis_pw                                1.959194        4814
 orth1_distri                            1.493970        1102
 lincom_distri                           1.451822        1102
 set_charge                              1.000823          20
 m_bcast_z                               0.801561        7426
 soft_charge                             0.748728          20
 choleski                                0.704841        1102
 bg_ppotrf_trtri                         0.704180        1102
 fftbrc_mpi                              0.539701        1332
 fftbas_plan_mpi                         0.539188        1332
 phaser                                  0.516211         841
 strnlr                                  0.499330           1
 racc0                                   0.458353         464
 rpro_isp                                0.442790         377
 m_alltoallv_z                           0.441243        1596
 potlok_metagga                          0.386307          21
 map_forward                             0.329174        1536
 lincom                                  0.311152        2146
 vhamil                                  0.270771         522
 redis_pw_over_bands                     0.223736          20
 redis_pw_all                            0.223716          19
 setdij_                                 0.195465          47
 sphpro_fast                             0.168175           2
 fornlr                                  0.166616           1
 lincom_slice                            0.160647        1102
 map_backward                            0.134815        1128
 crrexp_mul_work_add                     0.121462         928
 orth1                                   0.121117         522
 orth1_nosubindex                        0.118725        1102
 rpro1                                   0.111302         464
 potlok                                  0.099269          21
 m_bcast_d                               0.070498         133
 rpromu                                  0.064781         754
 crrexp_mul_wave                         0.063822        2436
 proall                                  0.058238           1
 dfftw_execute                           0.056993        3996
 w1_dscal                                0.049881         464
 pw_charge                               0.044600        1160
 rpromu_gemm                             0.040535        1508
 augmentation_charge                     0.034378          21
 densta                                  0.034033          21
 rspher_all                              0.026452          14
 fordep                                  0.026376           1
 fft_gq                                  0.017945          20
 recon_slice                             0.014503        1102
 potxc_metagga                           0.014294           1
 depsum                                  0.012088          20
 map_gather                              0.010188        1596
 map_scatter                             0.009953        1596
 brgrid                                  0.005940           1
 inisym                                  0.005452           1
 overl                                   0.004272        2552
 pothar                                  0.002184          21
 distri_slice                            0.001441        1102
 strkin                                  0.001318           1
 fewald                                  0.000652           1
 forhar                                  0.000284           1
 strelo                                  0.000222           1
 rsp                                     0.000118           1
 strehar                                 0.000070           1
 fortau                                  0.000057           1
 forloc                                  0.000048           1
 crpa_reader                             0.000027           1
 stufak                                  0.000025           1
 posmap                                  0.000018           2
 rcp                                     0.000009           1
 FERMAT_RAZOR                            0.000008           1
 shift_bands_between_low_high            0.000008          58
 set_rsgf_all                            0.000007          21
 set_dd_magatom                          0.000000           2
 rotate_active_occupied_orbital          0.000000           1
 vectorpot                               0.000000           1
 ---------------------------------------------------------------

Profiling took   0.040384  0.022303  0.003173  0.003112 seconds
Profiling took   0.033866 seconds
