<?xml version="1.0" encoding="ISO-8859-1"?>
<modeling>
 <generator>
  <i name="program" type="string">vasp </i>
  <i name="version" type="string">6.3.2  </i>
  <i name="subversion" type="string">27Jun22 (build Jun 30 2023 15:13:53) complex                          parallel </i>
  <i name="platform" type="string">LinuxNV_CrayMPICH </i>
  <i name="date" type="string">2023 07 25 </i>
  <i name="time" type="string">18:01:06 </i>
 </generator>
 <incar>
  <i type="string" name="PREC">Accurate</i>
  <i type="string" name="ALGO">All</i>
  <i type="int" name="ISPIN">     2</i>
  <i type="int" name="NELM">   200</i>
  <i type="int" name="IBRION">     2</i>
  <i name="EDIFF">      0.00001000</i>
  <i name="EDIFFG">     -0.05000000</i>
  <i type="int" name="NSW">    99</i>
  <i type="int" name="ISIF">     3</i>
  <i name="ENCUT">    680.00000000</i>
  <i name="ENAUG">   1360.00000000</i>
  <v name="MAGMOM">      0.00000000      0.00000000</v>
  <i type="string" name="LREAL">Auto</i>
  <i type="int" name="ISMEAR">     0</i>
  <i name="SIGMA">      0.05000000</i>
  <i name="KSPACING">      0.28253270</i>
  <i type="logical" name="LWAVE"> T  </i>
  <i type="logical" name="LCHARG"> T  </i>
  <i type="logical" name="LVTOT"> T  </i>
  <i type="int" name="LORBIT">    11</i>
  <i type="logical" name="LELF"> T  </i>
  <i type="logical" name="LASPH"> T  </i>
  <i type="logical" name="LAECHG"> T  </i>
  <i type="string" name="GGA">Ps</i>
  <i type="string" name="METAGGA">R2scan</i>
  <i type="logical" name="LMIXTAU"> T  </i>
 </incar>
 <primitive_cell>
  <structure name="primitive_cell" >
   <crystal>
    <varray name="basis" >
     <v>       3.33357300       0.00000000       1.92463900 </v>
     <v>       1.11119100       3.14292400       1.92463900 </v>
     <v>       0.00000000       0.00000000       3.84927800 </v>
    </varray>
    <i name="volume">     40.32952685 </i>
    <varray name="rec_basis" >
     <v>       0.29997843      -0.10605835       0.00000000 </v>
     <v>       0.00000000       0.31817505       0.00000000 </v>
     <v>      -0.14998922      -0.10605835       0.25978898 </v>
    </varray>
   </crystal>
   <varray name="positions" >
    <v>       0.87500000       0.87500000       0.87500000 </v>
    <v>       0.12500000       0.12500000       0.12500000 </v>
   </varray>
  </structure>
  <varray name="primitive_index" >
   <v type="int" >        1 </v>
   <v type="int" >        2 </v>
  </varray>
 </primitive_cell>
 <kpoints>
  <generation param="Gamma">
   <v type="int" name="divisions">       8        8        8 </v>
   <v name="usershift">      0.00000000       0.00000000       0.00000000 </v>
   <v name="genvec1">      0.12500000      -0.00000000       0.00000000 </v>
   <v name="genvec2">      0.00000000       0.12500000       0.00000000 </v>
   <v name="genvec3">      0.00000000       0.00000000       0.12500000 </v>
   <v name="shift">      0.00000000       0.00000000       0.00000000 </v>
  </generation>
  <varray name="kpointlist" >
   <v>       0.00000000       0.00000000       0.00000000 </v>
   <v>       0.12500000       0.00000000       0.00000000 </v>
   <v>       0.25000000       0.00000000       0.00000000 </v>
   <v>       0.37500000       0.00000000       0.00000000 </v>
   <v>       0.50000000       0.00000000       0.00000000 </v>
   <v>       0.12500000       0.12500000       0.00000000 </v>
   <v>       0.25000000       0.12500000       0.00000000 </v>
   <v>       0.37500000       0.12500000       0.00000000 </v>
   <v>       0.50000000       0.12500000       0.00000000 </v>
   <v>      -0.37500000       0.12500000       0.00000000 </v>
   <v>      -0.25000000       0.12500000       0.00000000 </v>
   <v>      -0.12500000       0.12500000       0.00000000 </v>
   <v>       0.25000000       0.25000000       0.00000000 </v>
   <v>       0.37500000       0.25000000       0.00000000 </v>
   <v>       0.50000000       0.25000000       0.00000000 </v>
   <v>      -0.37500000       0.25000000       0.00000000 </v>
   <v>      -0.25000000       0.25000000       0.00000000 </v>
   <v>       0.37500000       0.37500000       0.00000000 </v>
   <v>       0.50000000       0.37500000       0.00000000 </v>
   <v>      -0.37500000       0.37500000       0.00000000 </v>
   <v>       0.50000000       0.50000000       0.00000000 </v>
   <v>       0.37500000       0.25000000       0.12500000 </v>
   <v>       0.50000000       0.25000000       0.12500000 </v>
   <v>      -0.37500000       0.25000000       0.12500000 </v>
   <v>       0.50000000       0.37500000       0.12500000 </v>
   <v>      -0.37500000       0.37500000       0.12500000 </v>
   <v>      -0.25000000       0.37500000       0.12500000 </v>
   <v>      -0.37500000       0.50000000       0.12500000 </v>
   <v>      -0.25000000       0.50000000       0.25000000 </v>
  </varray>
  <varray name="weights" >
   <v>       0.00195313 </v>
   <v>       0.01562500 </v>
   <v>       0.01562500 </v>
   <v>       0.01562500 </v>
   <v>       0.00781250 </v>
   <v>       0.01171875 </v>
   <v>       0.04687500 </v>
   <v>       0.04687500 </v>
   <v>       0.04687500 </v>
   <v>       0.04687500 </v>
   <v>       0.04687500 </v>
   <v>       0.02343750 </v>
   <v>       0.01171875 </v>
   <v>       0.04687500 </v>
   <v>       0.04687500 </v>
   <v>       0.04687500 </v>
   <v>       0.02343750 </v>
   <v>       0.01171875 </v>
   <v>       0.04687500 </v>
   <v>       0.02343750 </v>
   <v>       0.00585938 </v>
   <v>       0.04687500 </v>
   <v>       0.09375000 </v>
   <v>       0.04687500 </v>
   <v>       0.04687500 </v>
   <v>       0.09375000 </v>
   <v>       0.04687500 </v>
   <v>       0.02343750 </v>
   <v>       0.01171875 </v>
  </varray>
 </kpoints>
 <parameters>
  <separator name="general" >
   <i type="string" name="SYSTEM">unknown system</i>
   <i type="logical" name="LCOMPAT"> F  </i>
  </separator>
  <separator name="electronic" >
   <i type="string" name="PREC">accura</i>
   <i name="ENMAX">    680.00000000</i>
   <i name="ENAUG">   1360.00000000</i>
   <i name="EDIFF">      0.00001000</i>
   <i type="int" name="IALGO">    58</i>
   <i type="int" name="IWAVPR">    11</i>
   <i type="int" name="NBANDS">   128</i>
   <i type="int" name="NBANDSLOW">    -1</i>
   <i type="int" name="NBANDSHIGH">    -1</i>
   <i name="NELECT">      8.00000000</i>
   <i type="int" name="TURBO">     0</i>
   <i type="int" name="IRESTART">     0</i>
   <i type="int" name="NREBOOT">     0</i>
   <i type="int" name="NMIN">     0</i>
   <i name="EREF">      0.00000000</i>
   <separator name="electronic smearing" >
    <i type="int" name="ISMEAR">     0</i>
    <i name="SIGMA">      0.05000000</i>
    <i name="KSPACING">      0.28253270</i>
    <i type="logical" name="KGAMMA"> T  </i>
    <i type="logical" name="KBLOWUP"> T  </i>
   </separator>
   <separator name="electronic projectors" >
    <i type="logical" name="LREAL"> T  </i>
    <v name="ROPT">     -0.00025000</v>
    <i type="int" name="LMAXPAW">  -100</i>
    <i type="int" name="LMAXMIX">     2</i>
    <i type="logical" name="NLSPLINE"> F  </i>
   </separator>
   <separator name="electronic startup" >
    <i type="int" name="ISTART">     1</i>
    <i type="int" name="ICHARG">     0</i>
    <i type="int" name="INIWAV">     1</i>
   </separator>
   <separator name="electronic spin" >
    <i type="int" name="ISPIN">     2</i>
    <i type="logical" name="LNONCOLLINEAR"> F  </i>
    <v name="MAGMOM">      0.00000000      0.00000000</v>
    <i name="NUPDOWN">     -1.00000000</i>
    <i type="logical" name="LSORBIT"> F  </i>
    <v name="SAXIS">      0.00000000      0.00000000      1.00000000</v>
    <i type="logical" name="LSPIRAL"> F  </i>
    <v name="QSPIRAL">      0.00000000      0.00000000      0.00000000</v>
    <i type="logical" name="LZEROZ"> F  </i>
   </separator>
   <separator name="electronic exchange-correlation" >
    <i type="logical" name="LASPH"> T  </i>
    <i type="logical" name="LMETAGGA"> F  </i>
   </separator>
   <separator name="electronic convergence" >
    <i type="int" name="NELM">   200</i>
    <i type="int" name="NELMDL">     0</i>
    <i type="int" name="NELMIN">     2</i>
    <i name="ENINI">    680.00000000</i>
    <separator name="electronic convergence detail" >
     <i type="logical" name="LDIAG"> T  </i>
     <i type="logical" name="LSUBROT"> F  </i>
     <i name="WEIMIN">      0.00100000</i>
     <i name="EBREAK">      0.00000002</i>
     <i name="DEPER">      0.30000000</i>
     <i type="int" name="NRMM">     4</i>
     <i name="TIME">      0.40000000</i>
    </separator>
   </separator>
   <separator name="electronic mixer" >
    <i name="AMIX">      0.40000000</i>
    <i name="BMIX">      1.00000000</i>
    <i name="AMIN">      0.10000000</i>
    <i name="AMIX_MAG">      1.60000000</i>
    <i name="BMIX_MAG">      1.00000000</i>
    <separator name="electronic mixer details" >
     <i type="int" name="IMIX">     4</i>
     <i type="logical" name="MIXFIRST"> F  </i>
     <i type="int" name="MAXMIX">   -45</i>
     <i name="WC">    100.00000000</i>
     <i type="int" name="INIMIX">     1</i>
     <i type="int" name="MIXPRE">     1</i>
     <i type="int" name="MREMOVE">     5</i>
    </separator>
   </separator>
   <separator name="electronic dipolcorrection" >
    <i type="logical" name="LDIPOL"> F  </i>
    <i type="logical" name="LMONO"> F  </i>
    <i type="int" name="IDIPOL">     0</i>
    <i name="EPSILON">      1.00000000</i>
    <v name="DIPOL">   -100.00000000   -100.00000000   -100.00000000</v>
    <i name="EFIELD">      0.00000000</i>
   </separator>
  </separator>
  <separator name="grids" >
   <i type="int" name="NGX">    36</i>
   <i type="int" name="NGY">    36</i>
   <i type="int" name="NGZ">    36</i>
   <i type="int" name="NGXF">    72</i>
   <i type="int" name="NGYF">    72</i>
   <i type="int" name="NGZF">    72</i>
   <i type="logical" name="ADDGRID"> F  </i>
  </separator>
  <separator name="ionic" >
   <i type="int" name="NSW">    99</i>
   <i type="int" name="IBRION">     2</i>
   <i type="int" name="MDALGO">     0</i>
   <i type="int" name="ISIF">     3</i>
   <i name="PSTRESS">      0.00000000</i>
   <i name="EDIFFG">     -0.05000000</i>
   <i type="int" name="NFREE">     1</i>
   <i name="POTIM">      0.50000000</i>
   <i name="SMASS">     -3.00000000</i>
   <i name="SCALEE">      1.00000000</i>
  </separator>
  <separator name="ionic md" >
   <i name="TEBEG">      0.00010000</i>
   <i name="TEEND">      0.00010000</i>
   <i type="int" name="NBLOCK">     1</i>
   <i type="int" name="KBLOCK">    99</i>
   <i type="int" name="NPACO">   256</i>
   <i name="APACO">     10.00000000</i>
  </separator>
  <separator name="symmetry" >
   <i type="int" name="ISYM">     2</i>
   <i name="SYMPREC">      0.00001000</i>
  </separator>
  <separator name="dos" >
   <i type="int" name="LORBIT">    11</i>
   <v name="RWIGS">     -1.00000000</v>
   <i type="int" name="NEDOS">   301</i>
   <i name="EMIN">     10.00000000</i>
   <i name="EMAX">    -10.00000000</i>
   <i name="EFERMI">      0.00000000</i>
  </separator>
  <separator name="writing" >
   <i type="int" name="NWRITE">     2</i>
   <i type="logical" name="LWAVE"> T  </i>
   <i type="logical" name="LDOWNSAMPLE"> F  </i>
   <i type="logical" name="LCHARG"> T  </i>
   <i type="logical" name="LPARD"> F  </i>
   <i type="logical" name="LVTOT"> T  </i>
   <i type="logical" name="LVHAR"> F  </i>
   <i type="logical" name="LELF"> T  </i>
   <i type="logical" name="LOPTICS"> F  </i>
   <v name="STM">      0.00000000      0.00000000      0.00000000      0.00000000      0.00000000      0.00000000      0.00000000</v>
  </separator>
  <separator name="performance" >
   <i type="int" name="NPAR">   128</i>
   <i type="int" name="NSIM">     4</i>
   <i type="int" name="NBLK">    -1</i>
   <i type="logical" name="LPLANE"> T  </i>
   <i type="logical" name="LSCALAPACK"> T  </i>
   <i type="logical" name="LSCAAWARE"> T  </i>
   <i type="logical" name="LSCALU"> F  </i>
   <i type="logical" name="LASYNC"> F  </i>
   <i type="logical" name="LORBITALREAL"> F  </i>
  </separator>
  <separator name="miscellaneous" >
   <i type="int" name="IDIOT">     3</i>
   <i type="int" name="PHON_NSTRUCT">    -1</i>
   <i type="logical" name="LMUSIC"> F  </i>
   <v name="POMASS">     28.08500000</v>
   <v name="DARWINR">      0.00000000</v>
   <v name="DARWINV">      1.00000000</v>
   <i type="logical" name="LCORR"> T  </i>
  </separator>
  <i type="logical" name="GGA_COMPAT"> T  </i>
  <i type="logical" name="LBERRY"> F  </i>
  <i type="int" name="ICORELEVEL">     0</i>
  <i type="logical" name="LDAU"> F  </i>
  <i type="int" name="I_CONSTRAINED_M">     0</i>
  <separator name="electronic exchange-correlation" >
   <i type="string" name="GGA">PS</i>
   <i type="int" name="VOSKOWN">     0</i>
   <i type="logical" name="LHFCALC"> F  </i>
   <i type="string" name="PRECFOCK"></i>
   <i type="logical" name="LSYMGRAD"> F  </i>
   <i type="logical" name="LHFONE"> F  </i>
   <i type="logical" name="LRHFCALC"> F  </i>
   <i type="logical" name="LTHOMAS"> F  </i>
   <i type="logical" name="LMODELHF"> F  </i>
   <i type="logical" name="LFOCKACE"> F  </i>
   <i name="ENCUT4O">     -1.00000000</i>
   <i type="int" name="EXXOEP">     0</i>
   <i type="int" name="FOURORBIT">     0</i>
   <i name="AEXX">      0.00000000</i>
   <i name="HFALPHA">      0.00000000</i>
   <i name="MCALPHA">      0.00000000</i>
   <i name="ALDAX">      1.00000000</i>
   <i name="AGGAX">      1.00000000</i>
   <i name="ALDAC">      1.00000000</i>
   <i name="AGGAC">      1.00000000</i>
   <i type="int" name="NKREDX">     1</i>
   <i type="int" name="NKREDY">     1</i>
   <i type="int" name="NKREDZ">     1</i>
   <i type="logical" name="SHIFTRED"> F  </i>
   <i type="logical" name="ODDONLY"> F  </i>
   <i type="logical" name="EVENONLY"> F  </i>
   <i type="int" name="LMAXFOCK">     0</i>
   <i type="int" name="NMAXFOCKAE">     0</i>
   <i type="logical" name="LFOCKAEDFT"> F  </i>
   <i name="HFSCREEN">      0.00000000</i>
   <i name="HFSCREENC">      0.00000000</i>
   <i type="int" name="NBANDSGWLOW">     0</i>
  </separator>
  <separator name="vdW DFT" >
   <i type="logical" name="LUSE_VDW"> F  </i>
   <i name="Zab_VDW">     -0.84910000</i>
   <i name="PARAM1">      0.12340000</i>
   <i name="PARAM2">      1.00000000</i>
   <i name="PARAM3">      0.00000000</i>
  </separator>
  <separator name="model GW" >
   <i type="int" name="MODEL_GW">     0</i>
   <i name="MODEL_EPS0">     12.09885805</i>
   <i name="MODEL_ALPHA">      1.00000000</i>
  </separator>
  <separator name="linear response parameters" >
   <i type="logical" name="LEPSILON"> F  </i>
   <i type="logical" name="LRPA"> F  </i>
   <i type="logical" name="LNABLA"> F  </i>
   <i type="logical" name="LVEL"> F  </i>
   <i name="CSHIFT">      0.10000000</i>
   <i name="OMEGAMAX">     -1.00000000</i>
   <i name="DEG_THRESHOLD">      0.00200000</i>
   <i name="RTIME">     -0.10000000</i>
   <i name="WPLASMAI">      0.00000000</i>
   <v name="DFIELD">      0.00000000      0.00000000      0.00000000</v>
   <v name="WPLASMA">      0.00000000      0.00000000      0.00000000      0.00000000      0.00000000      0.00000000      0.00000000      0.00000000      0.00000000</v>
  </separator>
  <separator name="orbital magnetization" >
   <i type="logical" name="NUCIND"> F  </i>
   <v name="MAGPOS">      0.00000000      0.00000000      0.00000000</v>
   <i type="logical" name="LNICSALL"> T  </i>
   <i type="logical" name="ORBITALMAG"> F  </i>
   <i type="logical" name="LMAGBLOCH"> F  </i>
   <i type="logical" name="LCHIMAG"> F  </i>
   <i type="logical" name="LGAUGE"> T  </i>
   <i type="int" name="MAGATOM">     0</i>
   <v name="MAGDIPOL">      0.00000000      0.00000000      0.00000000</v>
   <v name="AVECCONST">      0.00000000      0.00000000      0.00000000</v>
  </separator>
  <separator name="response functions" >
   <i type="logical" name="LFINITE_TEMPERATURE"> F  </i>
   <i type="logical" name="LADDER"> F  </i>
   <i type="logical" name="LRPAFORCE"> F  </i>
   <i type="logical" name="LFXC"> F  </i>
   <i type="logical" name="LHARTREE"> T  </i>
   <i type="int" name="IBSE">     0</i>
   <v type="int" name="KPOINT">    -1     0     0     0</v>
   <i type="logical" name="LTCTC"> F  </i>
   <i type="logical" name="LTCTE"> F  </i>
   <i type="logical" name="LTETE"> F  </i>
   <i type="logical" name="LTRIPLET"> F  </i>
   <i type="logical" name="LFXCEPS"> F  </i>
   <i type="logical" name="LFXHEG"> F  </i>
   <i type="int" name="NATURALO">     2</i>
   <i type="logical" name="LHOLEGF"> F  </i>
   <i type="logical" name="L2ORDER"> F  </i>
   <i type="logical" name="LDMP1"> F  </i>
   <i type="logical" name="LMP2LT"> F  </i>
   <i type="logical" name="LSMP2LT"> F  </i>
   <i type="logical" name="LGWLF"> F  </i>
   <i name="ENCUTGW">     -2.00000000</i>
   <i name="ENCUTGWSOFT">     -2.00000000</i>
   <i name="ENCUTLF">     -1.00000000</i>
   <i type="logical" name="LESF_SPLINES"> F  </i>
   <i type="int" name="LMAXMP2">    -1</i>
   <i name="SCISSOR">      0.00000000</i>
   <i type="int" name="NOMEGA">     0</i>
   <i type="int" name="NOMEGAR">     0</i>
   <i type="int" name="NBANDSGW">    -1</i>
   <i type="int" name="NBANDSO">    -1</i>
   <i type="int" name="NBANDSV">    -1</i>
   <i type="int" name="NELMGW">     1</i>
   <i type="int" name="NELMHF">     1</i>
   <i type="int" name="DIM">     3</i>
   <i type="int" name="IESPILON">     4</i>
   <i type="int" name="ANTIRES">     0</i>
   <i name="OMEGAMAX">    -30.00000000</i>
   <i name="OMEGAMIN">    -30.00000000</i>
   <i name="OMEGATL">   -200.00000000</i>
   <i type="int" name="OMEGAGRID">     0</i>
   <i name="CSHIFT">     -0.10000000</i>
   <i type="logical" name="LSELFENERGY"> F  </i>
   <i type="logical" name="LSPECTRAL"> F  </i>
   <i type="logical" name="LSPECTRALGW"> F  </i>
   <i type="logical" name="LSINGLES"> F  </i>
   <i type="logical" name="LFERMIGW"> F  </i>
   <i type="logical" name="ODDONLYGW"> F  </i>
   <i type="logical" name="EVENONLYGW"> F  </i>
   <i type="int" name="NKREDLFX">     1</i>
   <i type="int" name="NKREDLFY">     1</i>
   <i type="int" name="NKREDLFZ">     1</i>
   <i type="int" name="MAXMEM">  2800</i>
   <i type="int" name="TELESCOPE">     0</i>
   <i type="int" name="NTAUPAR">    -1</i>
   <i type="int" name="NOMEGAPAR">    -1</i>
   <i name="DAMP_NEWTON">      0.80000001</i>
   <i name="LAMBDA">      1.00000000</i>
  </separator>
  <separator name="External order field" >
   <i name="OFIELD_KAPPA">      0.00000000</i>
   <v name="OFIELD_K">      0.00000000      0.00000000      0.00000000</v>
   <i name="OFIELD_Q6_NEAR">      0.00000000</i>
   <i name="OFIELD_Q6_FAR">      0.00000000</i>
   <i name="OFIELD_A">      0.00000000</i>
  </separator>
  <separator name="optional k-points parameters" >
   <i type="int" name="KPOINTS_OPT_MODE">     1</i>
   <i type="logical" name="LKPOINTS_OPT"> F  </i>
  </separator>
 </parameters>
 <atominfo>
  <atoms>       2 </atoms>
  <types>       1 </types>
  <array name="atoms" >
   <dimension dim="1">ion</dimension>
   <field type="string">element</field>
   <field type="int">atomtype</field>
   <set>
    <rc><c>Si</c><c>   1</c></rc>
    <rc><c>Si</c><c>   1</c></rc>
   </set>
  </array>
  <array name="atomtypes" >
   <dimension dim="1">type</dimension>
   <field type="int">atomspertype</field>
   <field type="string">element</field>
   <field>mass</field>
   <field>valence</field>
   <field type="string">pseudopotential</field>
   <set>
    <rc><c>   2</c><c>Si</c><c>     28.08500000</c><c>      4.00000000</c><c>  PAW_PBE Si 05Jan2001                  </c></rc>
   </set>
  </array>
 </atominfo>
 <structure name="initialpos" >
  <crystal>
   <varray name="basis" >
    <v>       3.33357300       0.00000000       1.92463900 </v>
    <v>       1.11119100       3.14292400       1.92463900 </v>
    <v>       0.00000000       0.00000000       3.84927800 </v>
   </varray>
   <i name="volume">     40.32952685 </i>
   <varray name="rec_basis" >
    <v>       0.29997843      -0.10605835       0.00000000 </v>
    <v>       0.00000000       0.31817505       0.00000000 </v>
    <v>      -0.14998922      -0.10605835       0.25978898 </v>
   </varray>
  </crystal>
  <varray name="positions" >
   <v>       0.87500000       0.87500000       0.87500000 </v>
   <v>       0.12500000       0.12500000       0.12500000 </v>
  </varray>
 </structure>
 <calculation>
  <scstep>
   <time name="total">    5.83    5.84</time>
   <energy>
    <i name="alphaZ">      3.33880741 </i>
    <i name="ewald">   -227.98820643 </i>
    <i name="hartreedc">    -16.37602119 </i>
    <i name="XCdc">     -8.99166582 </i>
    <i name="pawpsdc">   4632.31509072 </i>
    <i name="pawaedc">  -4638.96669729 </i>
    <i name="eentropy">     -0.00000000 </i>
    <i name="bandstr">     37.04377820 </i>
    <i name="atom">    205.15160006 </i>
    <i name="e_fr_energy">    -14.47331433 </i>
    <i name="e_wo_entrp">    -14.47331433 </i>
    <i name="e_0_energy">    -14.47331433 </i>
   </energy>
  </scstep>
  <scstep>
   <time name="total">   14.66   14.68</time>
   <energy>
    <i name="e_fr_energy">    -22.20639130 </i>
    <i name="e_wo_entrp">    -22.20639130 </i>
    <i name="e_0_energy">    -22.20639130 </i>
   </energy>
  </scstep>
  <scstep>
   <time name="total">    7.09    7.09</time>
   <energy>
    <i name="e_fr_energy">    -46.75091839 </i>
    <i name="e_wo_entrp">    -46.75091839 </i>
    <i name="e_0_energy">    -46.75091839 </i>
   </energy>
  </scstep>
  <scstep>
   <time name="total">    7.07    7.08</time>
   <energy>
    <i name="e_fr_energy">    -46.85620940 </i>
    <i name="e_wo_entrp">    -46.85620940 </i>
    <i name="e_0_energy">    -46.85620940 </i>
   </energy>
  </scstep>
  <scstep>
   <time name="total">    7.11    7.13</time>
   <energy>
    <i name="e_fr_energy">    -46.86588649 </i>
    <i name="e_wo_entrp">    -46.86588649 </i>
    <i name="e_0_energy">    -46.86588649 </i>
   </energy>
  </scstep>
  <scstep>
   <time name="total">    7.10    7.10</time>
   <energy>
    <i name="e_fr_energy">    -46.86698365 </i>
    <i name="e_wo_entrp">    -46.86698365 </i>
    <i name="e_0_energy">    -46.86698365 </i>
   </energy>
  </scstep>
  <scstep>
   <time name="total">    7.06    7.07</time>
   <energy>
    <i name="e_fr_energy">    -46.86703393 </i>
    <i name="e_wo_entrp">    -46.86703393 </i>
    <i name="e_0_energy">    -46.86703393 </i>
   </energy>
  </scstep>
  <scstep>
   <time name="total">    8.51    8.52</time>
   <energy>
    <i name="alphaZ">      3.33880741 </i>
    <i name="ewald">   -227.98820643 </i>
    <i name="hartreedc">    -15.04954816 </i>
    <i name="XCdc">     -8.80567360 </i>
    <i name="pawpsdc">   1495.50341478 </i>
    <i name="pawaedc">  -1502.20389870 </i>
    <i name="eentropy">     -0.00000000 </i>
    <i name="bandstr">      3.18646651 </i>
    <i name="atom">    205.15160006 </i>
    <i name="e_fr_energy">    -46.86703814 </i>
    <i name="e_wo_entrp">    -46.86703814 </i>
    <i name="e_0_energy">    -46.86703814 </i>
   </energy>
  </scstep>
  <structure>
   <crystal>
    <varray name="basis" >
     <v>       3.33357300       0.00000000       1.92463900 </v>
     <v>       1.11119100       3.14292400       1.92463900 </v>
     <v>       0.00000000       0.00000000       3.84927800 </v>
    </varray>
    <i name="volume">     40.32952685 </i>
    <varray name="rec_basis" >
     <v>       0.29997843      -0.10605835       0.00000000 </v>
     <v>       0.00000000       0.31817505       0.00000000 </v>
     <v>      -0.14998922      -0.10605835       0.25978898 </v>
    </varray>
   </crystal>
   <varray name="positions" >
    <v>       0.87500000       0.87500000       0.87500000 </v>
    <v>       0.12500000       0.12500000       0.12500000 </v>
   </varray>
  </structure>
  <varray name="forces" >
   <v>      -0.00000000      -0.00000000       0.00000000 </v>
   <v>       0.00000000       0.00000000      -0.00000000 </v>
  </varray>
  <varray name="stress" >
   <v>      -1.58124706      -0.00000000      -0.00000000 </v>
   <v>       0.00000000      -1.58124830       0.00000000 </v>
   <v>       0.00000000       0.00000000      -1.58124662 </v>
  </varray>
  <energy>
   <i name="e_fr_energy">    -46.86703814 </i>
   <i name="e_wo_entrp">    -46.86703814 </i>
   <i name="e_0_energy">    -46.86703814 </i>
  </energy>
  <time name="totalsc">   69.91   71.22</time>
  <eigenvalues>
   <array>
    <dimension dim="1">band</dimension>
    <dimension dim="2">kpoint</dimension>
    <dimension dim="3">spin</dimension>
    <field>eigene</field>
    <field>occ</field>
    <set>
     <set comment="spin 1">
      <set comment="kpoint 1">
       <r>   -6.8094    1.0000 </r>
       <r>    5.6663    1.0000 </r>
       <r>    5.6663    1.0000 </r>
       <r>    5.6663    1.0000 </r>
       <r>    8.4210    0.0000 </r>
       <r>    8.4210    0.0000 </r>
       <r>    8.4210    0.0000 </r>
       <r>    9.5663    0.0000 </r>
       <r>   13.7886    0.0000 </r>
       <r>   13.7886    0.0000 </r>
       <r>   14.3352    0.0000 </r>
       <r>   17.6858    0.0000 </r>
       <r>   17.6858    0.0000 </r>
       <r>   17.6858    0.0000 </r>
       <r>   21.8098    0.0000 </r>
       <r>   30.0908    0.0000 </r>
       <r>   30.0908    0.0000 </r>
       <r>   30.0908    0.0000 </r>
       <r>   31.2982    0.0000 </r>
       <r>   31.2982    0.0000 </r>
       <r>   32.9132    0.0000 </r>
       <r>   32.9132    0.0000 </r>
       <r>   32.9132    0.0000 </r>
       <r>   36.3927    0.0000 </r>
       <r>   36.3927    0.0000 </r>
       <r>   36.3927    0.0000 </r>
       <r>   42.4427    0.0000 </r>
       <r>   42.4427    0.0000 </r>
       <r>   42.4427    0.0000 </r>
       <r>   45.2139    0.0000 </r>
       <r>   46.4595    0.0000 </r>
       <r>   46.4595    0.0000 </r>
       <r>   48.4615    0.0000 </r>
       <r>   48.4616    0.0000 </r>
       <r>   50.1447    0.0000 </r>
       <r>   50.1448    0.0000 </r>
       <r>   50.1448    0.0000 </r>
       <r>   51.8314    0.0000 </r>
       <r>   51.8314    0.0000 </r>
       <r>   51.8314    0.0000 </r>
       <r>   52.3482    0.0000 </r>
       <r>   52.6077    0.0000 </r>
       <r>   52.6077    0.0000 </r>
       <r>   52.6077    0.0000 </r>
       <r>   53.1111    0.0000 </r>
       <r>   53.1111    0.0000 </r>
       <r>   53.1111    0.0000 </r>
       <r>   54.5334    0.0000 </r>
       <r>   54.5334    0.0000 </r>
       <r>   54.5334    0.0000 </r>
       <r>   57.7900    0.0000 </r>
       <r>   59.6070    0.0000 </r>
       <r>   59.6070    0.0000 </r>
       <r>   59.6070    0.0000 </r>
       <r>   59.6076    0.0000 </r>
       <r>   59.6076    0.0000 </r>
       <r>   59.6076    0.0000 </r>
       <r>   64.4523    0.0000 </r>
       <r>   66.5679    0.0000 </r>
       <r>   75.2930    0.0000 </r>
       <r>   75.2930    0.0000 </r>
       <r>   78.2787    0.0000 </r>
       <r>   78.2787    0.0000 </r>
       <r>   78.2787    0.0000 </r>
       <r>   81.1980    0.0000 </r>
       <r>   81.1980    0.0000 </r>
       <r>   81.5585    0.0000 </r>
       <r>   81.5585    0.0000 </r>
       <r>   81.5585    0.0000 </r>
       <r>   81.6478    0.0000 </r>
       <r>   81.6853    0.0000 </r>
       <r>   81.6854    0.0000 </r>
       <r>   81.6854    0.0000 </r>
       <r>   86.0683    0.0000 </r>
       <r>   86.0683    0.0000 </r>
       <r>   86.0683    0.0000 </r>
       <r>   92.4750    0.0000 </r>
       <r>   92.4750    0.0000 </r>
       <r>   92.4750    0.0000 </r>
       <r>   92.9134    0.0000 </r>
       <r>   92.9134    0.0000 </r>
       <r>   93.3698    0.0000 </r>
       <r>   93.3698    0.0000 </r>
       <r>   93.3698    0.0000 </r>
       <r>   93.8020    0.0000 </r>
       <r>   94.1964    0.0000 </r>
       <r>   94.1965    0.0000 </r>
       <r>   94.1965    0.0000 </r>
       <r>   96.4056    0.0000 </r>
       <r>   96.4056    0.0000 </r>
       <r>   96.6053    0.0000 </r>
       <r>   96.6053    0.0000 </r>
       <r>   96.6054    0.0000 </r>
       <r>  100.0279    0.0000 </r>
       <r>  100.3446    0.0000 </r>
       <r>  100.3446    0.0000 </r>
       <r>  100.3446    0.0000 </r>
       <r>  101.4563    0.0000 </r>
       <r>  101.4563    0.0000 </r>
       <r>  101.4563    0.0000 </r>
       <r>  101.6920    0.0000 </r>
       <r>  101.6920    0.0000 </r>
       <r>  101.6921    0.0000 </r>
       <r>  101.8077    0.0000 </r>
       <r>  101.8077    0.0000 </r>
       <r>  101.8077    0.0000 </r>
       <r>  104.1342    0.0000 </r>
       <r>  104.2343    0.0000 </r>
       <r>  104.2343    0.0000 </r>
       <r>  104.2343    0.0000 </r>
       <r>  104.3113    0.0000 </r>
       <r>  104.3113    0.0000 </r>
       <r>  107.9849    0.0000 </r>
       <r>  110.3174    0.0000 </r>
       <r>  110.3175    0.0000 </r>
       <r>  110.3175    0.0000 </r>
       <r>  112.8926    0.0000 </r>
       <r>  114.3444    0.0000 </r>
       <r>  114.3444    0.0000 </r>
       <r>  114.3444    0.0000 </r>
       <r>  114.3859    0.0000 </r>
       <r>  114.3859    0.0000 </r>
       <r>  119.0246    0.0000 </r>
       <r>  119.0246    0.0000 </r>
       <r>  119.0246    0.0000 </r>
       <r>  119.2304    0.0000 </r>
       <r>  119.2304    0.0000 </r>
       <r>  119.2304    0.0000 </r>
      </set>
      <set comment="kpoint 2">
       <r>   -6.5958    1.0000 </r>
       <r>    4.0329    1.0000 </r>
       <r>    5.3632    1.0000 </r>
       <r>    5.3632    1.0000 </r>
       <r>    8.4489    0.0000 </r>
       <r>    8.8676    0.0000 </r>
       <r>    8.8676    0.0000 </r>
       <r>   10.8792    0.0000 </r>
       <r>   13.3131    0.0000 </r>
       <r>   13.3131    0.0000 </r>
       <r>   15.1232    0.0000 </r>
       <r>   17.0835    0.0000 </r>
       <r>   18.8798    0.0000 </r>
       <r>   18.8798    0.0000 </r>
       <r>   23.1133    0.0000 </r>
       <r>   27.9482    0.0000 </r>
       <r>   27.9482    0.0000 </r>
       <r>   28.3107    0.0000 </r>
       <r>   30.9160    0.0000 </r>
       <r>   30.9161    0.0000 </r>
       <r>   33.4466    0.0000 </r>
       <r>   33.4466    0.0000 </r>
       <r>   34.3803    0.0000 </r>
       <r>   36.5868    0.0000 </r>
       <r>   38.7429    0.0000 </r>
       <r>   38.7429    0.0000 </r>
       <r>   39.8205    0.0000 </r>
       <r>   41.9038    0.0000 </r>
       <r>   41.9039    0.0000 </r>
       <r>   44.3951    0.0000 </r>
       <r>   44.3951    0.0000 </r>
       <r>   45.9861    0.0000 </r>
       <r>   46.3804    0.0000 </r>
       <r>   46.3804    0.0000 </r>
       <r>   49.6817    0.0000 </r>
       <r>   49.6817    0.0000 </r>
       <r>   49.6852    0.0000 </r>
       <r>   50.1344    0.0000 </r>
       <r>   51.3215    0.0000 </r>
       <r>   51.8662    0.0000 </r>
       <r>   51.8663    0.0000 </r>
       <r>   52.0206    0.0000 </r>
       <r>   52.8252    0.0000 </r>
       <r>   52.8252    0.0000 </r>
       <r>   53.9541    0.0000 </r>
       <r>   54.9777    0.0000 </r>
       <r>   55.2941    0.0000 </r>
       <r>   55.2942    0.0000 </r>
       <r>   57.4095    0.0000 </r>
       <r>   57.4095    0.0000 </r>
       <r>   58.0596    0.0000 </r>
       <r>   58.9266    0.0000 </r>
       <r>   59.3913    0.0000 </r>
       <r>   59.3913    0.0000 </r>
       <r>   62.3787    0.0000 </r>
       <r>   62.3787    0.0000 </r>
       <r>   63.3372    0.0000 </r>
       <r>   66.6780    0.0000 </r>
       <r>   68.3538    0.0000 </r>
       <r>   72.1044    0.0000 </r>
       <r>   72.1044    0.0000 </r>
       <r>   74.6983    0.0000 </r>
       <r>   77.0764    0.0000 </r>
       <r>   77.0764    0.0000 </r>
       <r>   78.4023    0.0000 </r>
       <r>   79.4445    0.0000 </r>
       <r>   79.4445    0.0000 </r>
       <r>   81.7054    0.0000 </r>
       <r>   81.7054    0.0000 </r>
       <r>   82.3833    0.0000 </r>
       <r>   82.3833    0.0000 </r>
       <r>   82.8354    0.0000 </r>
       <r>   85.3027    0.0000 </r>
       <r>   85.7446    0.0000 </r>
       <r>   87.7461    0.0000 </r>
       <r>   87.7461    0.0000 </r>
       <r>   88.3468    0.0000 </r>
       <r>   88.3468    0.0000 </r>
       <r>   90.0729    0.0000 </r>
       <r>   91.5230    0.0000 </r>
       <r>   91.5231    0.0000 </r>
       <r>   92.8414    0.0000 </r>
       <r>   93.4855    0.0000 </r>
       <r>   93.5886    0.0000 </r>
       <r>   93.5886    0.0000 </r>
       <r>   94.2434    0.0000 </r>
       <r>   94.2434    0.0000 </r>
       <r>   94.5985    0.0000 </r>
       <r>   95.0306    0.0000 </r>
       <r>   95.4736    0.0000 </r>
       <r>   95.4737    0.0000 </r>
       <r>   97.5562    0.0000 </r>
       <r>   98.1580    0.0000 </r>
       <r>   98.7298    0.0000 </r>
       <r>   98.7298    0.0000 </r>
       <r>   99.2427    0.0000 </r>
       <r>   99.2428    0.0000 </r>
       <r>  100.6494    0.0000 </r>
       <r>  100.6494    0.0000 </r>
       <r>  101.2890    0.0000 </r>
       <r>  102.1601    0.0000 </r>
       <r>  102.4481    0.0000 </r>
       <r>  102.4481    0.0000 </r>
       <r>  104.2479    0.0000 </r>
       <r>  104.2833    0.0000 </r>
       <r>  104.2833    0.0000 </r>
       <r>  104.9305    0.0000 </r>
       <r>  106.7108    0.0000 </r>
       <r>  107.1746    0.0000 </r>
       <r>  107.1746    0.0000 </r>
       <r>  108.5932    0.0000 </r>
       <r>  108.5932    0.0000 </r>
       <r>  108.8689    0.0000 </r>
       <r>  108.8689    0.0000 </r>
       <r>  110.3041    0.0000 </r>
       <r>  111.1128    0.0000 </r>
       <r>  111.5018    0.0000 </r>
       <r>  111.5018    0.0000 </r>
       <r>  112.7821    0.0000 </r>
       <r>  114.0667    0.0000 </r>
       <r>  114.0667    0.0000 </r>
       <r>  114.7384    0.0000 </r>
       <r>  115.7946    0.0000 </r>
       <r>  115.7947    0.0000 </r>
       <r>  117.3048    0.0000 </r>
       <r>  117.8069    0.0000 </r>
       <r>  118.6042    0.0000 </r>
       <r>  118.6043    0.0000 </r>
      </set>
      <set comment="kpoint 3">
       <r>   -5.9729    1.0000 </r>
       <r>    1.6092    1.0000 </r>
       <r>    4.8662    1.0000 </r>
       <r>    4.8662    1.0000 </r>
       <r>    8.0097    0.0000 </r>
       <r>    9.4192    0.0000 </r>
       <r>    9.4192    0.0000 </r>
       <r>   13.1617    0.0000 </r>
       <r>   13.2905    0.0000 </r>
       <r>   13.2906    0.0000 </r>
       <r>   15.3449    0.0000 </r>
       <r>   18.2779    0.0000 </r>
       <r>   21.2054    0.0000 </r>
       <r>   21.2054    0.0000 </r>
       <r>   24.5398    0.0000 </r>
       <r>   24.5398    0.0000 </r>
       <r>   24.7156    0.0000 </r>
       <r>   26.7505    0.0000 </r>
       <r>   31.1067    0.0000 </r>
       <r>   31.1067    0.0000 </r>
       <r>   33.7995    0.0000 </r>
       <r>   33.7995    0.0000 </r>
       <r>   35.0164    0.0000 </r>
       <r>   36.6718    0.0000 </r>
       <r>   37.1306    0.0000 </r>
       <r>   39.2522    0.0000 </r>
       <r>   39.2522    0.0000 </r>
       <r>   40.9455    0.0000 </r>
       <r>   40.9455    0.0000 </r>
       <r>   41.9447    0.0000 </r>
       <r>   41.9447    0.0000 </r>
       <r>   45.7550    0.0000 </r>
       <r>   45.9177    0.0000 </r>
       <r>   45.9177    0.0000 </r>
       <r>   46.1344    0.0000 </r>
       <r>   47.1598    0.0000 </r>
       <r>   49.0334    0.0000 </r>
       <r>   49.0334    0.0000 </r>
       <r>   51.0438    0.0000 </r>
       <r>   51.8916    0.0000 </r>
       <r>   51.8917    0.0000 </r>
       <r>   52.2752    0.0000 </r>
       <r>   52.4900    0.0000 </r>
       <r>   55.2000    0.0000 </r>
       <r>   55.2000    0.0000 </r>
       <r>   57.4491    0.0000 </r>
       <r>   57.4492    0.0000 </r>
       <r>   58.5101    0.0000 </r>
       <r>   59.0258    0.0000 </r>
       <r>   59.0258    0.0000 </r>
       <r>   60.5326    0.0000 </r>
       <r>   62.7171    0.0000 </r>
       <r>   65.5553    0.0000 </r>
       <r>   65.5553    0.0000 </r>
       <r>   65.7242    0.0000 </r>
       <r>   65.8945    0.0000 </r>
       <r>   65.8945    0.0000 </r>
       <r>   68.4303    0.0000 </r>
       <r>   68.4303    0.0000 </r>
       <r>   69.0747    0.0000 </r>
       <r>   70.0942    0.0000 </r>
       <r>   71.4701    0.0000 </r>
       <r>   71.4702    0.0000 </r>
       <r>   74.6530    0.0000 </r>
       <r>   75.1870    0.0000 </r>
       <r>   75.6359    0.0000 </r>
       <r>   75.6359    0.0000 </r>
       <r>   79.3644    0.0000 </r>
       <r>   79.3644    0.0000 </r>
       <r>   81.5994    0.0000 </r>
       <r>   84.2519    0.0000 </r>
       <r>   84.7341    0.0000 </r>
       <r>   84.7341    0.0000 </r>
       <r>   84.9600    0.0000 </r>
       <r>   85.7933    0.0000 </r>
       <r>   85.7934    0.0000 </r>
       <r>   87.6416    0.0000 </r>
       <r>   87.6416    0.0000 </r>
       <r>   88.6781    0.0000 </r>
       <r>   89.2773    0.0000 </r>
       <r>   89.3665    0.0000 </r>
       <r>   89.3665    0.0000 </r>
       <r>   91.3489    0.0000 </r>
       <r>   91.3489    0.0000 </r>
       <r>   91.8406    0.0000 </r>
       <r>   93.6841    0.0000 </r>
       <r>   94.4204    0.0000 </r>
       <r>   94.4693    0.0000 </r>
       <r>   94.4694    0.0000 </r>
       <r>   95.2898    0.0000 </r>
       <r>   95.2898    0.0000 </r>
       <r>   97.4847    0.0000 </r>
       <r>   99.0137    0.0000 </r>
       <r>   99.3726    0.0000 </r>
       <r>   99.3726    0.0000 </r>
       <r>   99.7897    0.0000 </r>
       <r>   99.7897    0.0000 </r>
       <r>  100.4611    0.0000 </r>
       <r>  102.0702    0.0000 </r>
       <r>  102.0702    0.0000 </r>
       <r>  102.6151    0.0000 </r>
       <r>  103.6891    0.0000 </r>
       <r>  103.6891    0.0000 </r>
       <r>  105.4661    0.0000 </r>
       <r>  105.4662    0.0000 </r>
       <r>  106.7022    0.0000 </r>
       <r>  107.2864    0.0000 </r>
       <r>  107.2864    0.0000 </r>
       <r>  108.0885    0.0000 </r>
       <r>  108.5003    0.0000 </r>
       <r>  108.5003    0.0000 </r>
       <r>  109.3940    0.0000 </r>
       <r>  110.3765    0.0000 </r>
       <r>  110.6291    0.0000 </r>
       <r>  110.6292    0.0000 </r>
       <r>  111.4814    0.0000 </r>
       <r>  112.8845    0.0000 </r>
       <r>  115.7058    0.0000 </r>
       <r>  115.7058    0.0000 </r>
       <r>  116.2941    0.0000 </r>
       <r>  116.2942    0.0000 </r>
       <r>  116.5680    0.0000 </r>
       <r>  117.0338    0.0000 </r>
       <r>  118.0644    0.0000 </r>
       <r>  118.0647    0.0000 </r>
       <r>  119.6919    0.0000 </r>
       <r>  120.4083    0.0000 </r>
       <r>  120.4084    0.0000 </r>
      </set>
      <set comment="kpoint 4">
       <r>   -5.0394    1.0000 </r>
       <r>   -0.5009    1.0000 </r>
       <r>    4.5190    1.0000 </r>
       <r>    4.5190    1.0000 </r>
       <r>    7.6512    0.0000 </r>
       <r>    9.3703    0.0000 </r>
       <r>    9.3703    0.0000 </r>
       <r>   14.1489    0.0000 </r>
       <r>   14.7576    0.0000 </r>
       <r>   14.7577    0.0000 </r>
       <r>   16.0742    0.0000 </r>
       <r>   20.2399    0.0000 </r>
       <r>   20.2399    0.0000 </r>
       <r>   20.6577    0.0000 </r>
       <r>   23.3577    0.0000 </r>
       <r>   25.2783    0.0000 </r>
       <r>   25.2783    0.0000 </r>
       <r>   29.7153    0.0000 </r>
       <r>   30.8017    0.0000 </r>
       <r>   30.9442    0.0000 </r>
       <r>   30.9442    0.0000 </r>
       <r>   33.9398    0.0000 </r>
       <r>   33.9398    0.0000 </r>
       <r>   35.5444    0.0000 </r>
       <r>   35.5444    0.0000 </r>
       <r>   37.0440    0.0000 </r>
       <r>   37.8501    0.0000 </r>
       <r>   40.0104    0.0000 </r>
       <r>   40.0104    0.0000 </r>
       <r>   41.0391    0.0000 </r>
       <r>   41.0391    0.0000 </r>
       <r>   42.0640    0.0000 </r>
       <r>   44.8670    0.0000 </r>
       <r>   44.9683    0.0000 </r>
       <r>   48.5502    0.0000 </r>
       <r>   48.5502    0.0000 </r>
       <r>   49.6680    0.0000 </r>
       <r>   49.6681    0.0000 </r>
       <r>   50.4124    0.0000 </r>
       <r>   52.0158    0.0000 </r>
       <r>   52.1095    0.0000 </r>
       <r>   52.1095    0.0000 </r>
       <r>   54.9429    0.0000 </r>
       <r>   56.9436    0.0000 </r>
       <r>   56.9436    0.0000 </r>
       <r>   59.4127    0.0000 </r>
       <r>   59.4127    0.0000 </r>
       <r>   60.9215    0.0000 </r>
       <r>   62.2623    0.0000 </r>
       <r>   63.0274    0.0000 </r>
       <r>   63.0274    0.0000 </r>
       <r>   64.6534    0.0000 </r>
       <r>   64.6534    0.0000 </r>
       <r>   66.1789    0.0000 </r>
       <r>   66.1790    0.0000 </r>
       <r>   67.1065    0.0000 </r>
       <r>   67.8809    0.0000 </r>
       <r>   69.0112    0.0000 </r>
       <r>   69.9333    0.0000 </r>
       <r>   70.0521    0.0000 </r>
       <r>   70.0521    0.0000 </r>
       <r>   71.3064    0.0000 </r>
       <r>   71.3064    0.0000 </r>
       <r>   73.2850    0.0000 </r>
       <r>   73.2850    0.0000 </r>
       <r>   74.8334    0.0000 </r>
       <r>   75.1697    0.0000 </r>
       <r>   75.1697    0.0000 </r>
       <r>   77.6411    0.0000 </r>
       <r>   79.4418    0.0000 </r>
       <r>   79.5264    0.0000 </r>
       <r>   80.9357    0.0000 </r>
       <r>   80.9357    0.0000 </r>
       <r>   83.1638    0.0000 </r>
       <r>   83.6916    0.0000 </r>
       <r>   83.6916    0.0000 </r>
       <r>   85.7252    0.0000 </r>
       <r>   86.5559    0.0000 </r>
       <r>   86.8793    0.0000 </r>
       <r>   86.8793    0.0000 </r>
       <r>   89.7304    0.0000 </r>
       <r>   89.7304    0.0000 </r>
       <r>   91.2734    0.0000 </r>
       <r>   91.2734    0.0000 </r>
       <r>   93.3747    0.0000 </r>
       <r>   94.2532    0.0000 </r>
       <r>   94.2532    0.0000 </r>
       <r>   94.3159    0.0000 </r>
       <r>   94.6535    0.0000 </r>
       <r>   94.6536    0.0000 </r>
       <r>   96.1415    0.0000 </r>
       <r>   97.0513    0.0000 </r>
       <r>   97.0513    0.0000 </r>
       <r>   97.1623    0.0000 </r>
       <r>   99.4500    0.0000 </r>
       <r>  100.2352    0.0000 </r>
       <r>  100.2353    0.0000 </r>
       <r>  101.0090    0.0000 </r>
       <r>  102.4670    0.0000 </r>
       <r>  102.4671    0.0000 </r>
       <r>  103.6398    0.0000 </r>
       <r>  105.4173    0.0000 </r>
       <r>  105.4174    0.0000 </r>
       <r>  106.2158    0.0000 </r>
       <r>  106.6143    0.0000 </r>
       <r>  106.6143    0.0000 </r>
       <r>  106.6428    0.0000 </r>
       <r>  108.3962    0.0000 </r>
       <r>  109.0829    0.0000 </r>
       <r>  109.0829    0.0000 </r>
       <r>  109.9899    0.0000 </r>
       <r>  109.9899    0.0000 </r>
       <r>  111.6980    0.0000 </r>
       <r>  111.7700    0.0000 </r>
       <r>  111.7700    0.0000 </r>
       <r>  111.7838    0.0000 </r>
       <r>  113.4089    0.0000 </r>
       <r>  114.4199    0.0000 </r>
       <r>  115.4472    0.0000 </r>
       <r>  115.4475    0.0000 </r>
       <r>  117.0012    0.0000 </r>
       <r>  117.0982    0.0000 </r>
       <r>  117.0983    0.0000 </r>
       <r>  118.7904    0.0000 </r>
       <r>  118.7907    0.0000 </r>
       <r>  119.3163    0.0000 </r>
       <r>  123.7458    0.0000 </r>
       <r>  123.7470    0.0000 </r>
      </set>
      <set comment="kpoint 5">
       <r>   -4.3754    1.0000 </r>
       <r>   -1.5670    1.0000 </r>
       <r>    4.3999    1.0000 </r>
       <r>    4.3999    1.0000 </r>
       <r>    7.5234    0.0000 </r>
       <r>    9.2568    0.0000 </r>
       <r>    9.2568    0.0000 </r>
       <r>   13.9930    0.0000 </r>
       <r>   16.8094    0.0000 </r>
       <r>   16.8094    0.0000 </r>
       <r>   17.7117    0.0000 </r>
       <r>   17.7117    0.0000 </r>
       <r>   17.7538    0.0000 </r>
       <r>   19.6346    0.0000 </r>
       <r>   26.1572    0.0000 </r>
       <r>   26.7288    0.0000 </r>
       <r>   28.5263    0.0000 </r>
       <r>   28.5263    0.0000 </r>
       <r>   28.7877    0.0000 </r>
       <r>   28.7877    0.0000 </r>
       <r>   32.4948    0.0000 </r>
       <r>   33.5021    0.0000 </r>
       <r>   33.5021    0.0000 </r>
       <r>   34.6430    0.0000 </r>
       <r>   34.6430    0.0000 </r>
       <r>   35.3604    0.0000 </r>
       <r>   38.2464    0.0000 </r>
       <r>   39.7850    0.0000 </r>
       <r>   39.7850    0.0000 </r>
       <r>   40.3598    0.0000 </r>
       <r>   40.3598    0.0000 </r>
       <r>   41.3798    0.0000 </r>
       <r>   43.9763    0.0000 </r>
       <r>   44.0801    0.0000 </r>
       <r>   48.5467    0.0000 </r>
       <r>   48.5467    0.0000 </r>
       <r>   50.2556    0.0000 </r>
       <r>   50.5867    0.0000 </r>
       <r>   50.5867    0.0000 </r>
       <r>   51.8887    0.0000 </r>
       <r>   54.6797    0.0000 </r>
       <r>   54.6797    0.0000 </r>
       <r>   56.4975    0.0000 </r>
       <r>   56.4975    0.0000 </r>
       <r>   57.3316    0.0000 </r>
       <r>   60.4342    0.0000 </r>
       <r>   60.7605    0.0000 </r>
       <r>   60.7605    0.0000 </r>
       <r>   62.0223    0.0000 </r>
       <r>   62.4217    0.0000 </r>
       <r>   62.4217    0.0000 </r>
       <r>   64.3536    0.0000 </r>
       <r>   64.3536    0.0000 </r>
       <r>   67.0467    0.0000 </r>
       <r>   67.0467    0.0000 </r>
       <r>   67.7383    0.0000 </r>
       <r>   68.0815    0.0000 </r>
       <r>   68.0815    0.0000 </r>
       <r>   69.6127    0.0000 </r>
       <r>   71.1518    0.0000 </r>
       <r>   71.1519    0.0000 </r>
       <r>   71.1911    0.0000 </r>
       <r>   73.0377    0.0000 </r>
       <r>   74.0153    0.0000 </r>
       <r>   74.7423    0.0000 </r>
       <r>   74.7423    0.0000 </r>
       <r>   75.8729    0.0000 </r>
       <r>   76.2906    0.0000 </r>
       <r>   76.2906    0.0000 </r>
       <r>   77.0985    0.0000 </r>
       <r>   77.7402    0.0000 </r>
       <r>   80.0621    0.0000 </r>
       <r>   81.1080    0.0000 </r>
       <r>   81.1080    0.0000 </r>
       <r>   81.4011    0.0000 </r>
       <r>   81.4011    0.0000 </r>
       <r>   83.8837    0.0000 </r>
       <r>   83.8838    0.0000 </r>
       <r>   86.2203    0.0000 </r>
       <r>   86.8174    0.0000 </r>
       <r>   86.8174    0.0000 </r>
       <r>   90.3467    0.0000 </r>
       <r>   91.6735    0.0000 </r>
       <r>   91.6735    0.0000 </r>
       <r>   92.1748    0.0000 </r>
       <r>   94.1587    0.0000 </r>
       <r>   94.1587    0.0000 </r>
       <r>   94.5013    0.0000 </r>
       <r>   94.8897    0.0000 </r>
       <r>   96.5864    0.0000 </r>
       <r>   96.5864    0.0000 </r>
       <r>   99.0624    0.0000 </r>
       <r>   99.4424    0.0000 </r>
       <r>   99.4424    0.0000 </r>
       <r>   99.5236    0.0000 </r>
       <r>   99.9697    0.0000 </r>
       <r>   99.9697    0.0000 </r>
       <r>  102.0082    0.0000 </r>
       <r>  102.2027    0.0000 </r>
       <r>  103.0408    0.0000 </r>
       <r>  103.0408    0.0000 </r>
       <r>  103.6729    0.0000 </r>
       <r>  103.8594    0.0000 </r>
       <r>  103.8594    0.0000 </r>
       <r>  103.9532    0.0000 </r>
       <r>  103.9532    0.0000 </r>
       <r>  104.4312    0.0000 </r>
       <r>  109.2528    0.0000 </r>
       <r>  109.7893    0.0000 </r>
       <r>  109.7939    0.0000 </r>
       <r>  111.5110    0.0000 </r>
       <r>  112.2469    0.0000 </r>
       <r>  112.2512    0.0000 </r>
       <r>  113.2694    0.0000 </r>
       <r>  114.2528    0.0000 </r>
       <r>  114.2715    0.0000 </r>
       <r>  115.2263    0.0000 </r>
       <r>  115.2316    0.0000 </r>
       <r>  115.9200    0.0000 </r>
       <r>  116.0688    0.0000 </r>
       <r>  117.0723    0.0000 </r>
       <r>  117.1156    0.0000 </r>
       <r>  117.8841    0.0000 </r>
       <r>  118.3145    0.0000 </r>
       <r>  118.5480    0.0000 </r>
       <r>  118.8264    0.0000 </r>
       <r>  119.2254    0.0000 </r>
       <r>  125.0176    0.0000 </r>
      </set>
      <set comment="kpoint 6">
       <r>   -6.5238    1.0000 </r>
       <r>    4.3250    1.0000 </r>
       <r>    4.8238    1.0000 </r>
       <r>    4.8238    1.0000 </r>
       <r>    7.8828    0.0000 </r>
       <r>    9.6215    0.0000 </r>
       <r>    9.6215    0.0000 </r>
       <r>   10.5521    0.0000 </r>
       <r>   12.6109    0.0000 </r>
       <r>   14.1086    0.0000 </r>
       <r>   15.4300    0.0000 </r>
       <r>   18.1757    0.0000 </r>
       <r>   18.1757    0.0000 </r>
       <r>   18.6119    0.0000 </r>
       <r>   23.7440    0.0000 </r>
       <r>   27.4627    0.0000 </r>
       <r>   27.4627    0.0000 </r>
       <r>   28.7284    0.0000 </r>
       <r>   29.6825    0.0000 </r>
       <r>   30.4573    0.0000 </r>
       <r>   33.7088    0.0000 </r>
       <r>   34.0388    0.0000 </r>
       <r>   34.0388    0.0000 </r>
       <r>   38.5068    0.0000 </r>
       <r>   38.5068    0.0000 </r>
       <r>   39.0932    0.0000 </r>
       <r>   40.4430    0.0000 </r>
       <r>   40.6228    0.0000 </r>
       <r>   40.6229    0.0000 </r>
       <r>   42.9629    0.0000 </r>
       <r>   44.8428    0.0000 </r>
       <r>   45.8368    0.0000 </r>
       <r>   47.0073    0.0000 </r>
       <r>   48.2142    0.0000 </r>
       <r>   48.2965    0.0000 </r>
       <r>   48.2966    0.0000 </r>
       <r>   49.6774    0.0000 </r>
       <r>   49.9386    0.0000 </r>
       <r>   49.9386    0.0000 </r>
       <r>   51.5328    0.0000 </r>
       <r>   51.5328    0.0000 </r>
       <r>   52.5281    0.0000 </r>
       <r>   54.0610    0.0000 </r>
       <r>   54.3561    0.0000 </r>
       <r>   55.1001    0.0000 </r>
       <r>   55.1002    0.0000 </r>
       <r>   55.9189    0.0000 </r>
       <r>   56.2428    0.0000 </r>
       <r>   56.2429    0.0000 </r>
       <r>   56.5770    0.0000 </r>
       <r>   56.7313    0.0000 </r>
       <r>   59.0121    0.0000 </r>
       <r>   59.7144    0.0000 </r>
       <r>   59.7144    0.0000 </r>
       <r>   62.8168    0.0000 </r>
       <r>   65.0191    0.0000 </r>
       <r>   65.0191    0.0000 </r>
       <r>   66.8571    0.0000 </r>
       <r>   68.1433    0.0000 </r>
       <r>   68.4236    0.0000 </r>
       <r>   75.4921    0.0000 </r>
       <r>   75.9507    0.0000 </r>
       <r>   75.9507    0.0000 </r>
       <r>   77.1683    0.0000 </r>
       <r>   79.2031    0.0000 </r>
       <r>   79.3874    0.0000 </r>
       <r>   79.4141    0.0000 </r>
       <r>   79.4143    0.0000 </r>
       <r>   80.6779    0.0000 </r>
       <r>   80.7910    0.0000 </r>
       <r>   80.7921    0.0000 </r>
       <r>   81.5744    0.0000 </r>
       <r>   85.5571    0.0000 </r>
       <r>   87.4982    0.0000 </r>
       <r>   87.5020    0.0000 </r>
       <r>   88.1196    0.0000 </r>
       <r>   88.4598    0.0000 </r>
       <r>   89.2909    0.0000 </r>
       <r>   89.8626    0.0000 </r>
       <r>   90.7692    0.0000 </r>
       <r>   90.8540    0.0000 </r>
       <r>   91.3454    0.0000 </r>
       <r>   91.3460    0.0000 </r>
       <r>   93.2692    0.0000 </r>
       <r>   93.9743    0.0000 </r>
       <r>   94.4594    0.0000 </r>
       <r>   95.0354    0.0000 </r>
       <r>   95.5654    0.0000 </r>
       <r>   95.7057    0.0000 </r>
       <r>   95.7453    0.0000 </r>
       <r>   95.7566    0.0000 </r>
       <r>   97.5061    0.0000 </r>
       <r>   98.9290    0.0000 </r>
       <r>   99.4706    0.0000 </r>
       <r>   99.7320    0.0000 </r>
       <r>  100.7581    0.0000 </r>
       <r>  100.9436    0.0000 </r>
       <r>  101.3440    0.0000 </r>
       <r>  102.5440    0.0000 </r>
       <r>  102.5531    0.0000 </r>
       <r>  103.2888    0.0000 </r>
       <r>  104.1340    0.0000 </r>
       <r>  104.6274    0.0000 </r>
       <r>  106.0499    0.0000 </r>
       <r>  106.6400    0.0000 </r>
       <r>  107.7103    0.0000 </r>
       <r>  107.9595    0.0000 </r>
       <r>  108.3282    0.0000 </r>
       <r>  111.4218    0.0000 </r>
       <r>  111.6705    0.0000 </r>
       <r>  112.8780    0.0000 </r>
       <r>  112.8986    0.0000 </r>
       <r>  113.3282    0.0000 </r>
       <r>  114.0997    0.0000 </r>
       <r>  115.3536    0.0000 </r>
       <r>  115.5251    0.0000 </r>
       <r>  118.3292    0.0000 </r>
       <r>  120.1548    0.0000 </r>
       <r>  123.8363    0.0000 </r>
       <r>  124.6560    0.0000 </r>
       <r>  125.5642    0.0000 </r>
       <r>  126.0829    0.0000 </r>
       <r>  126.5097    0.0000 </r>
       <r>  128.8988    0.0000 </r>
       <r>  130.1016    0.0000 </r>
       <r>  131.0955    0.0000 </r>
       <r>  133.2236    0.0000 </r>
       <r>  137.8417    0.0000 </r>
      </set>
      <set comment="kpoint 7">
       <r>   -6.0335    1.0000 </r>
       <r>    2.3450    1.0000 </r>
       <r>    4.2852    1.0000 </r>
       <r>    4.3882    1.0000 </r>
       <r>    8.0411    0.0000 </r>
       <r>    9.7059    0.0000 </r>
       <r>   10.4319    0.0000 </r>
       <r>   10.7818    0.0000 </r>
       <r>   13.7423    0.0000 </r>
       <r>   14.3090    0.0000 </r>
       <r>   16.4141    0.0000 </r>
       <r>   18.0011    0.0000 </r>
       <r>   19.6380    0.0000 </r>
       <r>   20.9307    0.0000 </r>
       <r>   24.2744    0.0000 </r>
       <r>   24.8299    0.0000 </r>
       <r>   25.9264    0.0000 </r>
       <r>   28.4614    0.0000 </r>
       <r>   28.4818    0.0000 </r>
       <r>   30.0124    0.0000 </r>
       <r>   33.4230    0.0000 </r>
       <r>   34.4250    0.0000 </r>
       <r>   35.4441    0.0000 </r>
       <r>   37.0680    0.0000 </r>
       <r>   38.8074    0.0000 </r>
       <r>   39.1505    0.0000 </r>
       <r>   39.4398    0.0000 </r>
       <r>   40.3266    0.0000 </r>
       <r>   40.9771    0.0000 </r>
       <r>   41.7181    0.0000 </r>
       <r>   43.3877    0.0000 </r>
       <r>   43.3953    0.0000 </r>
       <r>   45.9816    0.0000 </r>
       <r>   46.4632    0.0000 </r>
       <r>   47.6516    0.0000 </r>
       <r>   47.9475    0.0000 </r>
       <r>   48.1868    0.0000 </r>
       <r>   49.7191    0.0000 </r>
       <r>   51.3854    0.0000 </r>
       <r>   51.4821    0.0000 </r>
       <r>   52.5536    0.0000 </r>
       <r>   52.5681    0.0000 </r>
       <r>   53.1088    0.0000 </r>
       <r>   53.7445    0.0000 </r>
       <r>   55.0267    0.0000 </r>
       <r>   55.8057    0.0000 </r>
       <r>   57.3793    0.0000 </r>
       <r>   57.4086    0.0000 </r>
       <r>   58.4296    0.0000 </r>
       <r>   58.8616    0.0000 </r>
       <r>   61.0457    0.0000 </r>
       <r>   61.9208    0.0000 </r>
       <r>   63.4044    0.0000 </r>
       <r>   63.9845    0.0000 </r>
       <r>   64.4335    0.0000 </r>
       <r>   65.3950    0.0000 </r>
       <r>   67.3226    0.0000 </r>
       <r>   68.3611    0.0000 </r>
       <r>   69.6784    0.0000 </r>
       <r>   71.2805    0.0000 </r>
       <r>   71.8646    0.0000 </r>
       <r>   72.5853    0.0000 </r>
       <r>   72.8732    0.0000 </r>
       <r>   74.8510    0.0000 </r>
       <r>   74.8718    0.0000 </r>
       <r>   76.8635    0.0000 </r>
       <r>   77.7934    0.0000 </r>
       <r>   77.7977    0.0000 </r>
       <r>   79.6288    0.0000 </r>
       <r>   80.5763    0.0000 </r>
       <r>   82.6513    0.0000 </r>
       <r>   83.1337    0.0000 </r>
       <r>   83.6410    0.0000 </r>
       <r>   84.7704    0.0000 </r>
       <r>   85.3236    0.0000 </r>
       <r>   86.4346    0.0000 </r>
       <r>   87.1075    0.0000 </r>
       <r>   87.7412    0.0000 </r>
       <r>   88.2994    0.0000 </r>
       <r>   88.6174    0.0000 </r>
       <r>   90.0078    0.0000 </r>
       <r>   90.2621    0.0000 </r>
       <r>   91.6448    0.0000 </r>
       <r>   91.7222    0.0000 </r>
       <r>   92.8690    0.0000 </r>
       <r>   93.3832    0.0000 </r>
       <r>   93.9282    0.0000 </r>
       <r>   95.1920    0.0000 </r>
       <r>   95.6913    0.0000 </r>
       <r>   95.8208    0.0000 </r>
       <r>   96.9044    0.0000 </r>
       <r>   97.3921    0.0000 </r>
       <r>   97.8689    0.0000 </r>
       <r>   98.7131    0.0000 </r>
       <r>   99.2502    0.0000 </r>
       <r>  100.1183    0.0000 </r>
       <r>  100.5035    0.0000 </r>
       <r>  101.5475    0.0000 </r>
       <r>  102.3030    0.0000 </r>
       <r>  102.4324    0.0000 </r>
       <r>  102.4923    0.0000 </r>
       <r>  103.5923    0.0000 </r>
       <r>  103.9598    0.0000 </r>
       <r>  105.1833    0.0000 </r>
       <r>  105.4503    0.0000 </r>
       <r>  106.1895    0.0000 </r>
       <r>  106.4702    0.0000 </r>
       <r>  106.5741    0.0000 </r>
       <r>  107.1310    0.0000 </r>
       <r>  107.8495    0.0000 </r>
       <r>  107.8627    0.0000 </r>
       <r>  109.0067    0.0000 </r>
       <r>  110.5352    0.0000 </r>
       <r>  110.9402    0.0000 </r>
       <r>  111.0588    0.0000 </r>
       <r>  112.7445    0.0000 </r>
       <r>  113.1930    0.0000 </r>
       <r>  113.7310    0.0000 </r>
       <r>  115.0092    0.0000 </r>
       <r>  115.1643    0.0000 </r>
       <r>  116.2737    0.0000 </r>
       <r>  116.8122    0.0000 </r>
       <r>  117.0702    0.0000 </r>
       <r>  118.4292    0.0000 </r>
       <r>  119.8478    0.0000 </r>
       <r>  121.7461    0.0000 </r>
       <r>  122.5401    0.0000 </r>
       <r>  124.2381    0.0000 </r>
      </set>
      <set comment="kpoint 8">
       <r>   -5.1816    1.0000 </r>
       <r>    0.1902    1.0000 </r>
       <r>    3.7767    1.0000 </r>
       <r>    4.0003    1.0000 </r>
       <r>    8.1800    0.0000 </r>
       <r>    9.6243    0.0000 </r>
       <r>   10.4331    0.0000 </r>
       <r>   11.5358    0.0000 </r>
       <r>   15.5222    0.0000 </r>
       <r>   15.6555    0.0000 </r>
       <r>   16.3355    0.0000 </r>
       <r>   19.8702    0.0000 </r>
       <r>   19.9625    0.0000 </r>
       <r>   21.7771    0.0000 </r>
       <r>   23.3222    0.0000 </r>
       <r>   24.3894    0.0000 </r>
       <r>   25.3340    0.0000 </r>
       <r>   28.8034    0.0000 </r>
       <r>   29.4815    0.0000 </r>
       <r>   30.4944    0.0000 </r>
       <r>   31.7290    0.0000 </r>
       <r>   32.6826    0.0000 </r>
       <r>   34.6896    0.0000 </r>
       <r>   36.2639    0.0000 </r>
       <r>   37.4887    0.0000 </r>
       <r>   37.5762    0.0000 </r>
       <r>   37.8081    0.0000 </r>
       <r>   39.0115    0.0000 </r>
       <r>   40.1209    0.0000 </r>
       <r>   40.6939    0.0000 </r>
       <r>   42.3897    0.0000 </r>
       <r>   43.6096    0.0000 </r>
       <r>   45.4384    0.0000 </r>
       <r>   45.4674    0.0000 </r>
       <r>   46.7803    0.0000 </r>
       <r>   47.0291    0.0000 </r>
       <r>   49.9143    0.0000 </r>
       <r>   50.3996    0.0000 </r>
       <r>   50.5904    0.0000 </r>
       <r>   52.1728    0.0000 </r>
       <r>   53.0952    0.0000 </r>
       <r>   53.3217    0.0000 </r>
       <r>   54.7397    0.0000 </r>
       <r>   54.7515    0.0000 </r>
       <r>   57.1377    0.0000 </r>
       <r>   57.3770    0.0000 </r>
       <r>   57.8143    0.0000 </r>
       <r>   59.8941    0.0000 </r>
       <r>   60.4509    0.0000 </r>
       <r>   62.1770    0.0000 </r>
       <r>   63.9198    0.0000 </r>
       <r>   64.1454    0.0000 </r>
       <r>   65.4875    0.0000 </r>
       <r>   65.7672    0.0000 </r>
       <r>   67.4419    0.0000 </r>
       <r>   67.8086    0.0000 </r>
       <r>   68.8362    0.0000 </r>
       <r>   69.0602    0.0000 </r>
       <r>   69.3751    0.0000 </r>
       <r>   70.5370    0.0000 </r>
       <r>   70.5866    0.0000 </r>
       <r>   71.1235    0.0000 </r>
       <r>   72.1435    0.0000 </r>
       <r>   73.2310    0.0000 </r>
       <r>   74.1372    0.0000 </r>
       <r>   74.8448    0.0000 </r>
       <r>   75.3347    0.0000 </r>
       <r>   75.9222    0.0000 </r>
       <r>   77.0947    0.0000 </r>
       <r>   78.7083    0.0000 </r>
       <r>   80.8740    0.0000 </r>
       <r>   81.4554    0.0000 </r>
       <r>   81.5743    0.0000 </r>
       <r>   83.2962    0.0000 </r>
       <r>   84.3567    0.0000 </r>
       <r>   84.7839    0.0000 </r>
       <r>   84.8694    0.0000 </r>
       <r>   86.1616    0.0000 </r>
       <r>   87.7435    0.0000 </r>
       <r>   88.0964    0.0000 </r>
       <r>   89.1120    0.0000 </r>
       <r>   89.3410    0.0000 </r>
       <r>   90.5059    0.0000 </r>
       <r>   90.5629    0.0000 </r>
       <r>   91.2154    0.0000 </r>
       <r>   92.7547    0.0000 </r>
       <r>   92.7833    0.0000 </r>
       <r>   94.3635    0.0000 </r>
       <r>   94.8635    0.0000 </r>
       <r>   95.6611    0.0000 </r>
       <r>   96.1636    0.0000 </r>
       <r>   97.6040    0.0000 </r>
       <r>   98.1625    0.0000 </r>
       <r>   99.1855    0.0000 </r>
       <r>   99.4123    0.0000 </r>
       <r>  100.5060    0.0000 </r>
       <r>  100.9464    0.0000 </r>
       <r>  101.6546    0.0000 </r>
       <r>  101.7614    0.0000 </r>
       <r>  101.7713    0.0000 </r>
       <r>  103.2419    0.0000 </r>
       <r>  104.0752    0.0000 </r>
       <r>  105.0270    0.0000 </r>
       <r>  105.6853    0.0000 </r>
       <r>  106.4695    0.0000 </r>
       <r>  106.8906    0.0000 </r>
       <r>  107.1802    0.0000 </r>
       <r>  107.3365    0.0000 </r>
       <r>  108.2838    0.0000 </r>
       <r>  108.9429    0.0000 </r>
       <r>  110.1444    0.0000 </r>
       <r>  110.2239    0.0000 </r>
       <r>  111.0805    0.0000 </r>
       <r>  112.4824    0.0000 </r>
       <r>  112.5997    0.0000 </r>
       <r>  114.0217    0.0000 </r>
       <r>  114.7384    0.0000 </r>
       <r>  114.8263    0.0000 </r>
       <r>  116.2015    0.0000 </r>
       <r>  116.5373    0.0000 </r>
       <r>  116.8965    0.0000 </r>
       <r>  118.0356    0.0000 </r>
       <r>  119.8612    0.0000 </r>
       <r>  120.6061    0.0000 </r>
       <r>  124.1007    0.0000 </r>
       <r>  125.9475    0.0000 </r>
       <r>  126.3332    0.0000 </r>
       <r>  128.1177    0.0000 </r>
      </set>
      <set comment="kpoint 9">
       <r>   -4.2833    1.0000 </r>
       <r>   -1.3378    1.0000 </r>
       <r>    3.3110    1.0000 </r>
       <r>    4.0226    1.0000 </r>
       <r>    8.1440    0.0000 </r>
       <r>    9.4906    0.0000 </r>
       <r>   10.0543    0.0000 </r>
       <r>   13.5404    0.0000 </r>
       <r>   15.2739    0.0000 </r>
       <r>   16.7534    0.0000 </r>
       <r>   17.9395    0.0000 </r>
       <r>   18.0203    0.0000 </r>
       <r>   19.0369    0.0000 </r>
       <r>   21.6508    0.0000 </r>
       <r>   25.0322    0.0000 </r>
       <r>   26.4654    0.0000 </r>
       <r>   27.1022    0.0000 </r>
       <r>   27.9544    0.0000 </r>
       <r>   28.8693    0.0000 </r>
       <r>   29.2604    0.0000 </r>
       <r>   31.7044    0.0000 </r>
       <r>   32.9132    0.0000 </r>
       <r>   33.4433    0.0000 </r>
       <r>   34.7348    0.0000 </r>
       <r>   35.2604    0.0000 </r>
       <r>   36.7335    0.0000 </r>
       <r>   37.2852    0.0000 </r>
       <r>   37.6622    0.0000 </r>
       <r>   40.1709    0.0000 </r>
       <r>   40.5670    0.0000 </r>
       <r>   41.2758    0.0000 </r>
       <r>   42.4959    0.0000 </r>
       <r>   44.9078    0.0000 </r>
       <r>   45.0910    0.0000 </r>
       <r>   46.2049    0.0000 </r>
       <r>   48.3342    0.0000 </r>
       <r>   49.1056    0.0000 </r>
       <r>   51.6745    0.0000 </r>
       <r>   52.2411    0.0000 </r>
       <r>   53.6107    0.0000 </r>
       <r>   54.5216    0.0000 </r>
       <r>   55.4241    0.0000 </r>
       <r>   56.0914    0.0000 </r>
       <r>   56.1552    0.0000 </r>
       <r>   56.6750    0.0000 </r>
       <r>   57.3711    0.0000 </r>
       <r>   59.1648    0.0000 </r>
       <r>   61.2215    0.0000 </r>
       <r>   61.9843    0.0000 </r>
       <r>   62.9910    0.0000 </r>
       <r>   63.2512    0.0000 </r>
       <r>   64.8534    0.0000 </r>
       <r>   65.5990    0.0000 </r>
       <r>   66.0711    0.0000 </r>
       <r>   66.6425    0.0000 </r>
       <r>   67.7051    0.0000 </r>
       <r>   68.0613    0.0000 </r>
       <r>   68.8608    0.0000 </r>
       <r>   70.5167    0.0000 </r>
       <r>   70.7940    0.0000 </r>
       <r>   71.1302    0.0000 </r>
       <r>   71.7149    0.0000 </r>
       <r>   72.5327    0.0000 </r>
       <r>   72.6043    0.0000 </r>
       <r>   73.6195    0.0000 </r>
       <r>   75.3255    0.0000 </r>
       <r>   77.2535    0.0000 </r>
       <r>   77.3154    0.0000 </r>
       <r>   78.1795    0.0000 </r>
       <r>   78.3766    0.0000 </r>
       <r>   78.7901    0.0000 </r>
       <r>   78.9860    0.0000 </r>
       <r>   79.3008    0.0000 </r>
       <r>   80.6903    0.0000 </r>
       <r>   81.9695    0.0000 </r>
       <r>   83.2740    0.0000 </r>
       <r>   83.9806    0.0000 </r>
       <r>   84.2471    0.0000 </r>
       <r>   86.5196    0.0000 </r>
       <r>   87.1540    0.0000 </r>
       <r>   87.9963    0.0000 </r>
       <r>   88.2261    0.0000 </r>
       <r>   89.0045    0.0000 </r>
       <r>   90.4187    0.0000 </r>
       <r>   91.2383    0.0000 </r>
       <r>   93.1524    0.0000 </r>
       <r>   93.6900    0.0000 </r>
       <r>   94.0232    0.0000 </r>
       <r>   95.5011    0.0000 </r>
       <r>   95.7905    0.0000 </r>
       <r>   96.3450    0.0000 </r>
       <r>   96.4460    0.0000 </r>
       <r>   97.1821    0.0000 </r>
       <r>   99.1233    0.0000 </r>
       <r>   99.8356    0.0000 </r>
       <r>  100.0613    0.0000 </r>
       <r>  100.5642    0.0000 </r>
       <r>  100.9456    0.0000 </r>
       <r>  101.4094    0.0000 </r>
       <r>  103.2794    0.0000 </r>
       <r>  103.6291    0.0000 </r>
       <r>  104.1096    0.0000 </r>
       <r>  104.6200    0.0000 </r>
       <r>  105.6485    0.0000 </r>
       <r>  107.4307    0.0000 </r>
       <r>  107.4916    0.0000 </r>
       <r>  107.8969    0.0000 </r>
       <r>  107.9278    0.0000 </r>
       <r>  108.3337    0.0000 </r>
       <r>  108.8234    0.0000 </r>
       <r>  110.0460    0.0000 </r>
       <r>  110.2078    0.0000 </r>
       <r>  111.0629    0.0000 </r>
       <r>  112.0615    0.0000 </r>
       <r>  112.8196    0.0000 </r>
       <r>  113.1743    0.0000 </r>
       <r>  114.1218    0.0000 </r>
       <r>  115.0016    0.0000 </r>
       <r>  116.4611    0.0000 </r>
       <r>  117.4410    0.0000 </r>
       <r>  117.5219    0.0000 </r>
       <r>  120.2173    0.0000 </r>
       <r>  121.8452    0.0000 </r>
       <r>  122.5552    0.0000 </r>
       <r>  123.3680    0.0000 </r>
       <r>  128.0086    0.0000 </r>
       <r>  129.0653    0.0000 </r>
       <r>  130.9683    0.0000 </r>
      </set>
      <set comment="kpoint 10">
       <r>   -4.5380    1.0000 </r>
       <r>   -0.9513    1.0000 </r>
       <r>    3.1204    1.0000 </r>
       <r>    4.3317    1.0000 </r>
       <r>    8.3267    0.0000 </r>
       <r>    9.5957    0.0000 </r>
       <r>    9.8109    0.0000 </r>
       <r>   14.1474    0.0000 </r>
       <r>   14.2516    0.0000 </r>
       <r>   15.4900    0.0000 </r>
       <r>   17.5668    0.0000 </r>
       <r>   18.8869    0.0000 </r>
       <r>   20.7734    0.0000 </r>
       <r>   21.3182    0.0000 </r>
       <r>   23.5497    0.0000 </r>
       <r>   25.3804    0.0000 </r>
       <r>   27.3988    0.0000 </r>
       <r>   29.0337    0.0000 </r>
       <r>   29.3211    0.0000 </r>
       <r>   29.5478    0.0000 </r>
       <r>   31.7058    0.0000 </r>
       <r>   31.9598    0.0000 </r>
       <r>   34.5059    0.0000 </r>
       <r>   34.7059    0.0000 </r>
       <r>   35.0736    0.0000 </r>
       <r>   36.4126    0.0000 </r>
       <r>   37.6193    0.0000 </r>
       <r>   38.5455    0.0000 </r>
       <r>   40.7033    0.0000 </r>
       <r>   40.9743    0.0000 </r>
       <r>   41.0702    0.0000 </r>
       <r>   42.4619    0.0000 </r>
       <r>   44.9309    0.0000 </r>
       <r>   45.3732    0.0000 </r>
       <r>   46.6000    0.0000 </r>
       <r>   48.2332    0.0000 </r>
       <r>   48.6098    0.0000 </r>
       <r>   50.1262    0.0000 </r>
       <r>   51.9766    0.0000 </r>
       <r>   53.3485    0.0000 </r>
       <r>   54.0932    0.0000 </r>
       <r>   54.4185    0.0000 </r>
       <r>   55.7621    0.0000 </r>
       <r>   56.7533    0.0000 </r>
       <r>   57.3547    0.0000 </r>
       <r>   58.4261    0.0000 </r>
       <r>   59.5852    0.0000 </r>
       <r>   61.4302    0.0000 </r>
       <r>   62.3369    0.0000 </r>
       <r>   62.4898    0.0000 </r>
       <r>   62.8075    0.0000 </r>
       <r>   64.4130    0.0000 </r>
       <r>   64.5437    0.0000 </r>
       <r>   66.1100    0.0000 </r>
       <r>   66.3152    0.0000 </r>
       <r>   66.7624    0.0000 </r>
       <r>   68.5355    0.0000 </r>
       <r>   68.7941    0.0000 </r>
       <r>   69.5590    0.0000 </r>
       <r>   70.3429    0.0000 </r>
       <r>   71.9486    0.0000 </r>
       <r>   72.2527    0.0000 </r>
       <r>   72.7661    0.0000 </r>
       <r>   73.4809    0.0000 </r>
       <r>   74.0877    0.0000 </r>
       <r>   76.0531    0.0000 </r>
       <r>   76.4660    0.0000 </r>
       <r>   77.5910    0.0000 </r>
       <r>   77.9745    0.0000 </r>
       <r>   78.8220    0.0000 </r>
       <r>   78.9964    0.0000 </r>
       <r>   80.7486    0.0000 </r>
       <r>   80.8033    0.0000 </r>
       <r>   81.1597    0.0000 </r>
       <r>   83.4850    0.0000 </r>
       <r>   86.9194    0.0000 </r>
       <r>   87.8427    0.0000 </r>
       <r>   87.8814    0.0000 </r>
       <r>   88.0092    0.0000 </r>
       <r>   89.6297    0.0000 </r>
       <r>   90.0904    0.0000 </r>
       <r>   90.1246    0.0000 </r>
       <r>   91.0211    0.0000 </r>
       <r>   92.3775    0.0000 </r>
       <r>   93.8142    0.0000 </r>
       <r>   94.2853    0.0000 </r>
       <r>   95.6064    0.0000 </r>
       <r>   96.6965    0.0000 </r>
       <r>   98.3614    0.0000 </r>
       <r>   99.9534    0.0000 </r>
       <r>  100.9052    0.0000 </r>
       <r>  101.6452    0.0000 </r>
       <r>  101.9758    0.0000 </r>
       <r>  102.4637    0.0000 </r>
       <r>  103.4877    0.0000 </r>
       <r>  103.4925    0.0000 </r>
       <r>  104.5285    0.0000 </r>
       <r>  106.5873    0.0000 </r>
       <r>  107.6477    0.0000 </r>
       <r>  108.9898    0.0000 </r>
       <r>  110.7366    0.0000 </r>
       <r>  111.2753    0.0000 </r>
       <r>  112.4406    0.0000 </r>
       <r>  113.0752    0.0000 </r>
       <r>  114.0928    0.0000 </r>
       <r>  118.3961    0.0000 </r>
       <r>  119.5206    0.0000 </r>
       <r>  119.6284    0.0000 </r>
       <r>  120.4757    0.0000 </r>
       <r>  120.5187    0.0000 </r>
       <r>  121.9653    0.0000 </r>
       <r>  122.0497    0.0000 </r>
       <r>  125.5032    0.0000 </r>
       <r>  127.5758    0.0000 </r>
       <r>  128.1641    0.0000 </r>
       <r>  128.5754    0.0000 </r>
       <r>  130.5869    0.0000 </r>
       <r>  132.1704    0.0000 </r>
       <r>  132.5115    0.0000 </r>
       <r>  132.9348    0.0000 </r>
       <r>  133.2217    0.0000 </r>
       <r>  134.7693    0.0000 </r>
       <r>  135.2527    0.0000 </r>
       <r>  141.2970    0.0000 </r>
       <r>  142.8577    0.0000 </r>
       <r>  155.2134    0.0000 </r>
       <r>  155.4577    0.0000 </r>
       <r>  157.7406    0.0000 </r>
      </set>
      <set comment="kpoint 11">
       <r>   -5.5018    1.0000 </r>
       <r>    0.8794    1.0000 </r>
       <r>    3.2766    1.0000 </r>
       <r>    4.8474    1.0000 </r>
       <r>    8.6966    0.0000 </r>
       <r>    9.6038    0.0000 </r>
       <r>    9.8256    0.0000 </r>
       <r>   12.4506    0.0000 </r>
       <r>   12.5425    0.0000 </r>
       <r>   16.2087    0.0000 </r>
       <r>   16.3804    0.0000 </r>
       <r>   18.8651    0.0000 </r>
       <r>   20.5001    0.0000 </r>
       <r>   22.0313    0.0000 </r>
       <r>   23.0474    0.0000 </r>
       <r>   24.8057    0.0000 </r>
       <r>   25.5681    0.0000 </r>
       <r>   28.4822    0.0000 </r>
       <r>   28.9005    0.0000 </r>
       <r>   29.8980    0.0000 </r>
       <r>   33.1237    0.0000 </r>
       <r>   33.6963    0.0000 </r>
       <r>   34.5202    0.0000 </r>
       <r>   36.7406    0.0000 </r>
       <r>   36.9328    0.0000 </r>
       <r>   38.3261    0.0000 </r>
       <r>   38.4459    0.0000 </r>
       <r>   39.5768    0.0000 </r>
       <r>   40.6325    0.0000 </r>
       <r>   41.7035    0.0000 </r>
       <r>   42.0469    0.0000 </r>
       <r>   44.7373    0.0000 </r>
       <r>   45.0709    0.0000 </r>
       <r>   46.1083    0.0000 </r>
       <r>   46.2110    0.0000 </r>
       <r>   47.6158    0.0000 </r>
       <r>   47.9962    0.0000 </r>
       <r>   49.3283    0.0000 </r>
       <r>   49.5315    0.0000 </r>
       <r>   51.7380    0.0000 </r>
       <r>   54.1093    0.0000 </r>
       <r>   54.1218    0.0000 </r>
       <r>   54.3247    0.0000 </r>
       <r>   55.1284    0.0000 </r>
       <r>   55.5810    0.0000 </r>
       <r>   56.5272    0.0000 </r>
       <r>   59.3151    0.0000 </r>
       <r>   59.6919    0.0000 </r>
       <r>   60.2368    0.0000 </r>
       <r>   61.3707    0.0000 </r>
       <r>   63.1410    0.0000 </r>
       <r>   63.1540    0.0000 </r>
       <r>   64.6791    0.0000 </r>
       <r>   65.2993    0.0000 </r>
       <r>   66.3720    0.0000 </r>
       <r>   67.0451    0.0000 </r>
       <r>   67.6378    0.0000 </r>
       <r>   67.9876    0.0000 </r>
       <r>   69.4694    0.0000 </r>
       <r>   69.8961    0.0000 </r>
       <r>   71.1341    0.0000 </r>
       <r>   71.3400    0.0000 </r>
       <r>   71.6260    0.0000 </r>
       <r>   74.0637    0.0000 </r>
       <r>   74.5791    0.0000 </r>
       <r>   76.1136    0.0000 </r>
       <r>   76.4206    0.0000 </r>
       <r>   77.7653    0.0000 </r>
       <r>   78.3915    0.0000 </r>
       <r>   81.4157    0.0000 </r>
       <r>   82.4179    0.0000 </r>
       <r>   83.4289    0.0000 </r>
       <r>   83.9187    0.0000 </r>
       <r>   84.3713    0.0000 </r>
       <r>   84.6819    0.0000 </r>
       <r>   86.2543    0.0000 </r>
       <r>   87.4882    0.0000 </r>
       <r>   88.6653    0.0000 </r>
       <r>   89.8379    0.0000 </r>
       <r>   90.3105    0.0000 </r>
       <r>   93.2809    0.0000 </r>
       <r>   93.3494    0.0000 </r>
       <r>   93.7482    0.0000 </r>
       <r>   94.4086    0.0000 </r>
       <r>   94.6059    0.0000 </r>
       <r>   95.2510    0.0000 </r>
       <r>   95.7583    0.0000 </r>
       <r>   96.8676    0.0000 </r>
       <r>   97.8404    0.0000 </r>
       <r>   99.5129    0.0000 </r>
       <r>   99.9542    0.0000 </r>
       <r>  100.2778    0.0000 </r>
       <r>  101.1220    0.0000 </r>
       <r>  101.3478    0.0000 </r>
       <r>  102.9336    0.0000 </r>
       <r>  104.4706    0.0000 </r>
       <r>  106.5914    0.0000 </r>
       <r>  107.9655    0.0000 </r>
       <r>  108.4639    0.0000 </r>
       <r>  108.5657    0.0000 </r>
       <r>  109.3035    0.0000 </r>
       <r>  112.2314    0.0000 </r>
       <r>  112.7263    0.0000 </r>
       <r>  113.1412    0.0000 </r>
       <r>  113.7642    0.0000 </r>
       <r>  116.8427    0.0000 </r>
       <r>  117.4438    0.0000 </r>
       <r>  117.8650    0.0000 </r>
       <r>  117.9694    0.0000 </r>
       <r>  120.8847    0.0000 </r>
       <r>  120.9966    0.0000 </r>
       <r>  121.1421    0.0000 </r>
       <r>  123.2390    0.0000 </r>
       <r>  124.2728    0.0000 </r>
       <r>  126.3113    0.0000 </r>
       <r>  126.8196    0.0000 </r>
       <r>  127.3281    0.0000 </r>
       <r>  128.8647    0.0000 </r>
       <r>  133.8585    0.0000 </r>
       <r>  134.2840    0.0000 </r>
       <r>  137.1556    0.0000 </r>
       <r>  138.7133    0.0000 </r>
       <r>  142.1684    0.0000 </r>
       <r>  142.9121    0.0000 </r>
       <r>  146.4279    0.0000 </r>
       <r>  146.8168    0.0000 </r>
       <r>  148.1676    0.0000 </r>
       <r>  155.5518    0.0000 </r>
      </set>
      <set comment="kpoint 12">
       <r>   -6.2441    1.0000 </r>
       <r>    2.9084    1.0000 </r>
       <r>    3.9817    1.0000 </r>
       <r>    5.3538    1.0000 </r>
       <r>    9.0112    0.0000 </r>
       <r>    9.0150    0.0000 </r>
       <r>    9.3050    0.0000 </r>
       <r>   11.6871    0.0000 </r>
       <r>   12.3974    0.0000 </r>
       <r>   14.2053    0.0000 </r>
       <r>   16.1572    0.0000 </r>
       <r>   17.5428    0.0000 </r>
       <r>   18.8409    0.0000 </r>
       <r>   21.0337    0.0000 </r>
       <r>   24.4129    0.0000 </r>
       <r>   24.7264    0.0000 </r>
       <r>   27.8322    0.0000 </r>
       <r>   28.0075    0.0000 </r>
       <r>   28.6591    0.0000 </r>
       <r>   30.0639    0.0000 </r>
       <r>   33.6903    0.0000 </r>
       <r>   33.9232    0.0000 </r>
       <r>   36.0237    0.0000 </r>
       <r>   37.6133    0.0000 </r>
       <r>   38.0344    0.0000 </r>
       <r>   39.5319    0.0000 </r>
       <r>   39.6231    0.0000 </r>
       <r>   41.2744    0.0000 </r>
       <r>   41.3185    0.0000 </r>
       <r>   41.9850    0.0000 </r>
       <r>   43.4538    0.0000 </r>
       <r>   43.4853    0.0000 </r>
       <r>   46.0965    0.0000 </r>
       <r>   46.6256    0.0000 </r>
       <r>   47.3454    0.0000 </r>
       <r>   48.7046    0.0000 </r>
       <r>   48.7989    0.0000 </r>
       <r>   49.8201    0.0000 </r>
       <r>   50.5339    0.0000 </r>
       <r>   51.4920    0.0000 </r>
       <r>   52.2342    0.0000 </r>
       <r>   53.0054    0.0000 </r>
       <r>   53.7278    0.0000 </r>
       <r>   53.9839    0.0000 </r>
       <r>   54.5888    0.0000 </r>
       <r>   55.4516    0.0000 </r>
       <r>   55.7249    0.0000 </r>
       <r>   56.0886    0.0000 </r>
       <r>   58.6516    0.0000 </r>
       <r>   60.2206    0.0000 </r>
       <r>   60.2305    0.0000 </r>
       <r>   60.8216    0.0000 </r>
       <r>   61.2657    0.0000 </r>
       <r>   63.2532    0.0000 </r>
       <r>   63.6423    0.0000 </r>
       <r>   63.8285    0.0000 </r>
       <r>   66.5721    0.0000 </r>
       <r>   68.0617    0.0000 </r>
       <r>   69.1960    0.0000 </r>
       <r>   70.4266    0.0000 </r>
       <r>   70.5725    0.0000 </r>
       <r>   72.0736    0.0000 </r>
       <r>   75.1000    0.0000 </r>
       <r>   76.1950    0.0000 </r>
       <r>   76.7123    0.0000 </r>
       <r>   76.7625    0.0000 </r>
       <r>   78.6359    0.0000 </r>
       <r>   79.7146    0.0000 </r>
       <r>   79.8712    0.0000 </r>
       <r>   80.1556    0.0000 </r>
       <r>   82.1796    0.0000 </r>
       <r>   84.2023    0.0000 </r>
       <r>   84.4706    0.0000 </r>
       <r>   86.4812    0.0000 </r>
       <r>   86.6934    0.0000 </r>
       <r>   87.2428    0.0000 </r>
       <r>   88.1954    0.0000 </r>
       <r>   88.6558    0.0000 </r>
       <r>   88.9825    0.0000 </r>
       <r>   89.5533    0.0000 </r>
       <r>   90.1512    0.0000 </r>
       <r>   90.4343    0.0000 </r>
       <r>   91.3337    0.0000 </r>
       <r>   92.0639    0.0000 </r>
       <r>   92.9177    0.0000 </r>
       <r>   94.4787    0.0000 </r>
       <r>   94.5577    0.0000 </r>
       <r>   94.7342    0.0000 </r>
       <r>   94.9689    0.0000 </r>
       <r>   95.1391    0.0000 </r>
       <r>   96.6677    0.0000 </r>
       <r>   97.3789    0.0000 </r>
       <r>   97.5822    0.0000 </r>
       <r>   97.6505    0.0000 </r>
       <r>   98.9964    0.0000 </r>
       <r>   99.8519    0.0000 </r>
       <r>  100.0190    0.0000 </r>
       <r>  100.6531    0.0000 </r>
       <r>  100.8476    0.0000 </r>
       <r>  101.8082    0.0000 </r>
       <r>  103.3305    0.0000 </r>
       <r>  103.9413    0.0000 </r>
       <r>  104.1915    0.0000 </r>
       <r>  104.8314    0.0000 </r>
       <r>  105.2158    0.0000 </r>
       <r>  105.2448    0.0000 </r>
       <r>  106.1960    0.0000 </r>
       <r>  107.3851    0.0000 </r>
       <r>  108.7001    0.0000 </r>
       <r>  109.3306    0.0000 </r>
       <r>  110.1723    0.0000 </r>
       <r>  110.2793    0.0000 </r>
       <r>  111.8109    0.0000 </r>
       <r>  112.6996    0.0000 </r>
[...]
        <r>  0.0199  0.0012  0.0004  0.0010  0.0000  0.0000  0.0000  0.0000  0.0000 </r>
       </set>
       <set comment="band 44">
        <r>  0.0201  0.0010  0.0007  0.0010  0.0000  0.0000  0.0000  0.0000  0.0000 </r>
        <r>  0.0201  0.0010  0.0007  0.0010  0.0000  0.0000  0.0000  0.0000  0.0000 </r>
       </set>
       <set comment="band 45">
        <r>  0.0000  0.0031  0.0147  0.0208  0.0000  0.0000  0.0000  0.0000  0.0000 </r>
        <r>  0.0000  0.0031  0.0147  0.0208  0.0000  0.0000  0.0000  0.0000  0.0000 </r>
       </set>
       <set comment="band 46">
        <r>  0.0001  0.0218  0.0121  0.0039  0.0000  0.0000  0.0000  0.0000  0.0000 </r>
        <r>  0.0001  0.0218  0.0121  0.0039  0.0000  0.0000  0.0000  0.0000  0.0000 </r>
       </set>
       <set comment="band 47">
        <r>  0.0346  0.0103  0.0078  0.0127  0.0000  0.0000  0.0000  0.0000  0.0000 </r>
        <r>  0.0345  0.0103  0.0079  0.0127  0.0000  0.0000  0.0000  0.0000  0.0000 </r>
       </set>
       <set comment="band 48">
        <r>  0.0354  0.0104  0.0077  0.0124  0.0000  0.0000  0.0000  0.0000  0.0000 </r>
        <r>  0.0355  0.0104  0.0077  0.0123  0.0000  0.0000  0.0000  0.0000  0.0000 </r>
       </set>
       <set comment="band 49">
        <r>  0.0000  0.0175  0.0160  0.0243  0.0000  0.0000  0.0000  0.0000  0.0000 </r>
        <r>  0.0000  0.0175  0.0160  0.0243  0.0000  0.0000  0.0000  0.0000  0.0000 </r>
       </set>
       <set comment="band 50">
        <r>  0.0001  0.0267  0.0111  0.0149  0.0000  0.0000  0.0000  0.0000  0.0000 </r>
        <r>  0.0001  0.0267  0.0111  0.0149  0.0000  0.0000  0.0000  0.0000  0.0000 </r>
       </set>
       <set comment="band 51">
        <r>  0.0001  0.0053  0.0042  0.0076  0.0000  0.0000  0.0000  0.0000  0.0000 </r>
        <r>  0.0001  0.0053  0.0042  0.0076  0.0000  0.0000  0.0000  0.0000  0.0000 </r>
       </set>
       <set comment="band 52">
        <r>  0.0010  0.0002  0.0075  0.0129  0.0000  0.0000  0.0000  0.0000  0.0000 </r>
        <r>  0.0010  0.0002  0.0075  0.0129  0.0000  0.0000  0.0000  0.0000  0.0000 </r>
       </set>
       <set comment="band 53">
        <r>  0.0007  0.0039  0.0122  0.0077  0.0000  0.0000  0.0000  0.0000  0.0000 </r>
        <r>  0.0007  0.0039  0.0122  0.0077  0.0000  0.0000  0.0000  0.0000  0.0000 </r>
       </set>
       <set comment="band 54">
        <r>  0.0000  0.0107  0.0075  0.0040  0.0000  0.0000  0.0000  0.0000  0.0000 </r>
        <r>  0.0000  0.0107  0.0075  0.0040  0.0000  0.0000  0.0000  0.0000  0.0000 </r>
       </set>
       <set comment="band 55">
        <r>  0.0105  0.0018  0.0000  0.0003  0.0000  0.0000  0.0000  0.0000  0.0000 </r>
        <r>  0.0105  0.0018  0.0000  0.0003  0.0000  0.0000  0.0000  0.0000  0.0000 </r>
       </set>
       <set comment="band 56">
        <r>  0.0035  0.0023  0.0039  0.0004  0.0000  0.0000  0.0000  0.0000  0.0000 </r>
        <r>  0.0035  0.0023  0.0039  0.0004  0.0000  0.0000  0.0000  0.0000  0.0000 </r>
       </set>
       <set comment="band 57">
        <r>  0.0014  0.0051  0.0008  0.0044  0.0000  0.0000  0.0000  0.0000  0.0000 </r>
        <r>  0.0014  0.0051  0.0008  0.0044  0.0000  0.0000  0.0000  0.0000  0.0000 </r>
       </set>
       <set comment="band 58">
        <r>  0.0004  0.0004  0.0074  0.0155  0.0000  0.0000  0.0000  0.0000  0.0000 </r>
        <r>  0.0004  0.0004  0.0074  0.0155  0.0000  0.0000  0.0000  0.0000  0.0000 </r>
       </set>
       <set comment="band 59">
        <r>  0.0748  0.0203  0.0128  0.0218  0.0000  0.0000  0.0000  0.0000  0.0000 </r>
        <r>  0.0748  0.0203  0.0128  0.0218  0.0000  0.0000  0.0000  0.0000  0.0000 </r>
       </set>
       <set comment="band 60">
        <r>  0.0711  0.0219  0.0094  0.0116  0.0000  0.0000  0.0000  0.0000  0.0000 </r>
        <r>  0.0711  0.0219  0.0094  0.0116  0.0000  0.0000  0.0000  0.0000  0.0000 </r>
       </set>
       <set comment="band 61">
        <r>  0.0005  0.0075  0.0109  0.0053  0.0000  0.0000  0.0000  0.0000  0.0000 </r>
        <r>  0.0005  0.0075  0.0109  0.0053  0.0000  0.0000  0.0000  0.0000  0.0000 </r>
       </set>
       <set comment="band 62">
        <r>  0.0157  0.0147  0.0033  0.0019  0.0000  0.0000  0.0000  0.0000  0.0000 </r>
        <r>  0.0158  0.0147  0.0033  0.0019  0.0000  0.0000  0.0000  0.0000  0.0000 </r>
       </set>
       <set comment="band 63">
        <r>  0.0078  0.0078  0.0174  0.0167  0.0000  0.0000  0.0000  0.0000  0.0000 </r>
        <r>  0.0078  0.0078  0.0174  0.0167  0.0000  0.0000  0.0000  0.0000  0.0000 </r>
       </set>
       <set comment="band 64">
        <r>  0.0047  0.0016  0.0226  0.0310  0.0000  0.0000  0.0000  0.0000  0.0000 </r>
        <r>  0.0047  0.0016  0.0226  0.0310  0.0000  0.0000  0.0000  0.0000  0.0000 </r>
       </set>
       <set comment="band 65">
        <r>  0.0093  0.0094  0.0698  0.0274  0.0000  0.0000  0.0000  0.0000  0.0000 </r>
        <r>  0.0093  0.0094  0.0698  0.0274  0.0000  0.0000  0.0000  0.0000  0.0000 </r>
       </set>
       <set comment="band 66">
        <r>  0.0222  0.0678  0.0079  0.0133  0.0000  0.0000  0.0000  0.0000  0.0000 </r>
        <r>  0.0223  0.0678  0.0079  0.0133  0.0000  0.0000  0.0000  0.0000  0.0000 </r>
       </set>
       <set comment="band 67">
        <r>  0.0510  0.0031  0.0075  0.0002  0.0000  0.0000  0.0000  0.0000  0.0000 </r>
        <r>  0.0510  0.0031  0.0075  0.0002  0.0000  0.0000  0.0000  0.0000  0.0000 </r>
       </set>
       <set comment="band 68">
        <r>  0.0159  0.0132  0.0039  0.0165  0.0000  0.0000  0.0000  0.0000  0.0000 </r>
        <r>  0.0159  0.0132  0.0039  0.0165  0.0000  0.0000  0.0000  0.0000  0.0000 </r>
       </set>
       <set comment="band 69">
        <r>  0.0047  0.0111  0.0080  0.0099  0.0000  0.0000  0.0000  0.0000  0.0000 </r>
        <r>  0.0047  0.0111  0.0079  0.0099  0.0000  0.0000  0.0000  0.0000  0.0000 </r>
       </set>
       <set comment="band 70">
        <r>  0.0009  0.0365  0.0261  0.0014  0.0000  0.0000  0.0000  0.0000  0.0000 </r>
        <r>  0.0009  0.0365  0.0261  0.0014  0.0000  0.0000  0.0000  0.0000  0.0000 </r>
       </set>
       <set comment="band 71">
        <r>  0.0180  0.0041  0.0009  0.0085  0.0000  0.0000  0.0000  0.0000  0.0000 </r>
        <r>  0.0180  0.0041  0.0009  0.0085  0.0000  0.0000  0.0000  0.0000  0.0000 </r>
       </set>
       <set comment="band 72">
        <r>  0.0062  0.0108  0.0034  0.0076  0.0000  0.0000  0.0000  0.0000  0.0000 </r>
        <r>  0.0062  0.0108  0.0034  0.0076  0.0000  0.0000  0.0000  0.0000  0.0000 </r>
       </set>
       <set comment="band 73">
        <r>  0.0063  0.0051  0.0036  0.0003  0.0000  0.0000  0.0000  0.0000  0.0000 </r>
        <r>  0.0063  0.0051  0.0036  0.0003  0.0000  0.0000  0.0000  0.0000  0.0000 </r>
       </set>
       <set comment="band 74">
        <r>  0.0347  0.0055  0.0163  0.0071  0.0000  0.0000  0.0000  0.0000  0.0000 </r>
        <r>  0.0347  0.0055  0.0163  0.0071  0.0000  0.0000  0.0000  0.0000  0.0000 </r>
       </set>
       <set comment="band 75">
        <r>  0.0255  0.0143  0.0212  0.0080  0.0000  0.0000  0.0000  0.0000  0.0000 </r>
        <r>  0.0255  0.0143  0.0212  0.0080  0.0000  0.0000  0.0000  0.0000  0.0000 </r>
       </set>
       <set comment="band 76">
        <r>  0.0028  0.0179  0.0366  0.0032  0.0000  0.0000  0.0000  0.0000  0.0000 </r>
        <r>  0.0028  0.0179  0.0366  0.0032  0.0000  0.0000  0.0000  0.0000  0.0000 </r>
       </set>
       <set comment="band 77">
        <r>  0.0008  0.0115  0.0007  0.0568  0.0000  0.0000  0.0000  0.0000  0.0000 </r>
        <r>  0.0008  0.0115  0.0007  0.0568  0.0000  0.0000  0.0000  0.0000  0.0000 </r>
       </set>
       <set comment="band 78">
        <r>  0.0295  0.0025  0.0242  0.0528  0.0000  0.0000  0.0000  0.0000  0.0000 </r>
        <r>  0.0296  0.0025  0.0242  0.0528  0.0000  0.0000  0.0000  0.0000  0.0000 </r>
       </set>
       <set comment="band 79">
        <r>  0.0302  0.0426  0.0019  0.0012  0.0000  0.0000  0.0000  0.0000  0.0000 </r>
        <r>  0.0302  0.0426  0.0019  0.0012  0.0000  0.0000  0.0000  0.0000  0.0000 </r>
       </set>
       <set comment="band 80">
        <r>  0.0889  0.0079  0.0364  0.0041  0.0000  0.0000  0.0000  0.0000  0.0000 </r>
        <r>  0.0889  0.0079  0.0364  0.0041  0.0000  0.0000  0.0000  0.0000  0.0000 </r>
       </set>
       <set comment="band 81">
        <r>  0.0356  0.0048  0.0013  0.0035  0.0000  0.0000  0.0000  0.0000  0.0000 </r>
        <r>  0.0356  0.0048  0.0013  0.0035  0.0000  0.0000  0.0000  0.0000  0.0000 </r>
       </set>
       <set comment="band 82">
        <r>  0.0145  0.0124  0.0185  0.0052  0.0000  0.0000  0.0000  0.0000  0.0000 </r>
        <r>  0.0145  0.0124  0.0185  0.0052  0.0000  0.0000  0.0000  0.0000  0.0000 </r>
       </set>
       <set comment="band 83">
        <r>  0.0103  0.0088  0.0061  0.0028  0.0000  0.0000  0.0000  0.0000  0.0000 </r>
        <r>  0.0103  0.0088  0.0061  0.0028  0.0000  0.0000  0.0000  0.0000  0.0000 </r>
       </set>
       <set comment="band 84">
        <r>  0.1192  0.0034  0.0161  0.0539  0.0000  0.0000  0.0000  0.0000  0.0000 </r>
        <r>  0.1193  0.0033  0.0162  0.0539  0.0000  0.0000  0.0000  0.0000  0.0000 </r>
       </set>
       <set comment="band 85">
        <r>  0.1451  0.0091  0.0680  0.0449  0.0000  0.0000  0.0000  0.0000  0.0000 </r>
        <r>  0.1450  0.0091  0.0681  0.0448  0.0000  0.0000  0.0000  0.0000  0.0000 </r>
       </set>
       <set comment="band 86">
        <r>  0.0254  0.0206  0.0282  0.0107  0.0000  0.0000  0.0000  0.0000  0.0000 </r>
        <r>  0.0253  0.0206  0.0281  0.0107  0.0000  0.0000  0.0000  0.0000  0.0000 </r>
       </set>
       <set comment="band 87">
        <r>  0.0483  0.0062  0.0101  0.0577  0.0000  0.0000  0.0000  0.0000  0.0000 </r>
        <r>  0.0486  0.0062  0.0101  0.0577  0.0000  0.0000  0.0000  0.0000  0.0000 </r>
       </set>
       <set comment="band 88">
        <r>  0.1050  0.0230  0.0032  0.0030  0.0000  0.0000  0.0000  0.0000  0.0000 </r>
        <r>  0.1049  0.0230  0.0032  0.0030  0.0000  0.0000  0.0000  0.0000  0.0000 </r>
       </set>
       <set comment="band 89">
        <r>  0.0231  0.0178  0.0085  0.0018  0.0000  0.0000  0.0000  0.0000  0.0000 </r>
        <r>  0.0231  0.0179  0.0084  0.0019  0.0000  0.0000  0.0000  0.0000  0.0000 </r>
       </set>
       <set comment="band 90">
        <r>  0.0340  0.0662  0.0116  0.0191  0.0000  0.0000  0.0000  0.0000  0.0000 </r>
        <r>  0.0339  0.0661  0.0116  0.0190  0.0000  0.0000  0.0000  0.0000  0.0000 </r>
       </set>
       <set comment="band 91">
        <r>  0.0202  0.0010  0.0094  0.0018  0.0000  0.0000  0.0000  0.0000  0.0000 </r>
        <r>  0.0201  0.0010  0.0094  0.0018  0.0000  0.0000  0.0000  0.0000  0.0000 </r>
       </set>
       <set comment="band 92">
        <r>  0.0551  0.0038  0.0142  0.0683  0.0000  0.0000  0.0000  0.0000  0.0000 </r>
        <r>  0.0554  0.0038  0.0142  0.0686  0.0000  0.0000  0.0000  0.0000  0.0000 </r>
       </set>
       <set comment="band 93">
        <r>  0.0714  0.0310  0.0258  0.0302  0.0000  0.0000  0.0000  0.0000  0.0000 </r>
        <r>  0.0709  0.0309  0.0259  0.0303  0.0000  0.0000  0.0000  0.0000  0.0000 </r>
       </set>
       <set comment="band 94">
        <r>  0.0490  0.0100  0.0082  0.0495  0.0000  0.0000  0.0000  0.0000  0.0000 </r>
        <r>  0.0492  0.0099  0.0082  0.0494  0.0000  0.0000  0.0000  0.0000  0.0000 </r>
       </set>
       <set comment="band 95">
        <r>  0.0485  0.0722  0.0445  0.0341  0.0000  0.0000  0.0000  0.0000  0.0000 </r>
        <r>  0.0484  0.0722  0.0443  0.0340  0.0000  0.0000  0.0000  0.0000  0.0000 </r>
       </set>
       <set comment="band 96">
        <r>  0.0325  0.0173  0.0024  0.0083  0.0000  0.0000  0.0000  0.0000  0.0000 </r>
        <r>  0.0323  0.0175  0.0025  0.0081  0.0000  0.0000  0.0000  0.0000  0.0000 </r>
       </set>
       <set comment="band 97">
        <r>  0.1723  0.0833  0.0068  0.0137  0.0000  0.0000  0.0000  0.0000  0.0000 </r>
        <r>  0.1725  0.0827  0.0066  0.0139  0.0000  0.0000  0.0000  0.0000  0.0000 </r>
       </set>
       <set comment="band 98">
        <r>  0.0417  0.0166  0.0085  0.0444  0.0000  0.0000  0.0000  0.0000  0.0000 </r>
        <r>  0.0437  0.0172  0.0084  0.0446  0.0000  0.0000  0.0000  0.0000  0.0000 </r>
       </set>
       <set comment="band 99">
        <r>  0.3200  0.0213  0.0127  0.0522  0.0000  0.0000  0.0000  0.0000  0.0000 </r>
        <r>  0.3201  0.0214  0.0130  0.0524  0.0000  0.0000  0.0000  0.0000  0.0000 </r>
       </set>
       <set comment="band 100">
        <r>  0.3590  0.0427  0.0837  0.0362  0.0000  0.0000  0.0000  0.0000  0.0000 </r>
        <r>  0.3576  0.0428  0.0837  0.0359  0.0000  0.0000  0.0000  0.0000  0.0000 </r>
       </set>
       <set comment="band 101">
        <r>  0.1706  0.0105  0.0839  0.0788  0.0000  0.0000  0.0000  0.0000  0.0000 </r>
        <r>  0.1690  0.0104  0.0838  0.0785  0.0000  0.0000  0.0000  0.0000  0.0000 </r>
       </set>
       <set comment="band 102">
        <r>  0.0624  0.0191  0.0038  0.0026  0.0000  0.0000  0.0000  0.0000  0.0000 </r>
        <r>  0.0623  0.0190  0.0038  0.0026  0.0000  0.0000  0.0000  0.0000  0.0000 </r>
       </set>
       <set comment="band 103">
        <r>  0.0792  0.0239  0.0367  0.0154  0.0000  0.0000  0.0000  0.0000  0.0000 </r>
        <r>  0.0785  0.0238  0.0366  0.0154  0.0000  0.0000  0.0000  0.0000  0.0000 </r>
       </set>
       <set comment="band 104">
        <r>  0.1632  0.0082  0.0911  0.0165  0.0000  0.0000  0.0000  0.0000  0.0000 </r>
        <r>  0.1594  0.0085  0.0901  0.0167  0.0000  0.0000  0.0000  0.0000  0.0000 </r>
       </set>
       <set comment="band 105">
        <r>  0.1406  0.0110  0.0061  0.0479  0.0000  0.0000  0.0000  0.0000  0.0000 </r>
        <r>  0.1398  0.0110  0.0061  0.0480  0.0000  0.0000  0.0000  0.0000  0.0000 </r>
       </set>
       <set comment="band 106">
        <r>  0.0359  0.0174  0.0097  0.0073  0.0000  0.0000  0.0000  0.0000  0.0000 </r>
        <r>  0.0361  0.0175  0.0096  0.0072  0.0000  0.0000  0.0000  0.0000  0.0000 </r>
       </set>
       <set comment="band 107">
        <r>  0.1058  0.0284  0.0314  0.0142  0.0000  0.0000  0.0000  0.0000  0.0000 </r>
        <r>  0.1083  0.0280  0.0321  0.0140  0.0000  0.0000  0.0000  0.0000  0.0000 </r>
       </set>
       <set comment="band 108">
        <r>  0.0130  0.0195  0.0096  0.0169  0.0000  0.0000  0.0000  0.0000  0.0000 </r>
        <r>  0.0129  0.0194  0.0096  0.0170  0.0000  0.0000  0.0000  0.0000  0.0000 </r>
       </set>
       <set comment="band 109">
        <r>  0.0978  0.0199  0.0516  0.0832  0.0000  0.0000  0.0000  0.0000  0.0000 </r>
        <r>  0.0976  0.0199  0.0516  0.0829  0.0000  0.0000  0.0000  0.0000  0.0000 </r>
       </set>
       <set comment="band 110">
        <r>  0.1837  0.0244  0.0793  0.0468  0.0000  0.0000  0.0000  0.0000  0.0000 </r>
        <r>  0.1831  0.0245  0.0786  0.0464  0.0000  0.0000  0.0000  0.0000  0.0000 </r>
       </set>
       <set comment="band 111">
        <r>  0.0212  0.0007  0.0498  0.0075  0.0000  0.0000  0.0000  0.0000  0.0000 </r>
        <r>  0.0209  0.0007  0.0501  0.0074  0.0000  0.0000  0.0000  0.0000  0.0000 </r>
       </set>
       <set comment="band 112">
        <r>  0.0891  0.0185  0.0054  0.0083  0.0000  0.0000  0.0000  0.0000  0.0000 </r>
        <r>  0.0900  0.0184  0.0054  0.0083  0.0000  0.0000  0.0000  0.0000  0.0000 </r>
       </set>
       <set comment="band 113">
        <r>  0.0269  0.0063  0.0467  0.0022  0.0000  0.0000  0.0000  0.0000  0.0000 </r>
        <r>  0.0274  0.0062  0.0468  0.0021  0.0000  0.0000  0.0000  0.0000  0.0000 </r>
       </set>
       <set comment="band 114">
        <r>  0.1390  0.0172  0.0052  0.0720  0.0000  0.0000  0.0000  0.0000  0.0000 </r>
        <r>  0.1390  0.0172  0.0052  0.0720  0.0000  0.0000  0.0000  0.0000  0.0000 </r>
       </set>
       <set comment="band 115">
        <r>  0.2063  0.0858  0.0115  0.0350  0.0000  0.0000  0.0000  0.0000  0.0000 </r>
        <r>  0.2064  0.0859  0.0114  0.0351  0.0000  0.0000  0.0000  0.0000  0.0000 </r>
       </set>
       <set comment="band 116">
        <r>  0.4732  0.0172  0.0026  0.0607  0.0000  0.0000  0.0000  0.0000  0.0000 </r>
        <r>  0.4746  0.0172  0.0026  0.0609  0.0000  0.0000  0.0000  0.0000  0.0000 </r>
       </set>
       <set comment="band 117">
        <r>  0.1356  0.0333  0.0062  0.0318  0.0000  0.0000  0.0000  0.0000  0.0000 </r>
        <r>  0.1353  0.0333  0.0061  0.0317  0.0000  0.0000  0.0000  0.0000  0.0000 </r>
       </set>
       <set comment="band 118">
        <r>  0.0253  0.0006  0.0198  0.0048  0.0000  0.0000  0.0000  0.0000  0.0000 </r>
        <r>  0.0254  0.0006  0.0198  0.0048  0.0000  0.0000  0.0000  0.0000  0.0000 </r>
       </set>
       <set comment="band 119">
        <r>  0.2294  0.0292  0.0037  0.0659  0.0000  0.0000  0.0000  0.0000  0.0000 </r>
        <r>  0.2291  0.0292  0.0037  0.0659  0.0000  0.0000  0.0000  0.0000  0.0000 </r>
       </set>
       <set comment="band 120">
        <r>  0.0107  0.0025  0.0085  0.0010  0.0000  0.0000  0.0000  0.0000  0.0000 </r>
        <r>  0.0109  0.0025  0.0085  0.0011  0.0000  0.0000  0.0000  0.0000  0.0000 </r>
       </set>
       <set comment="band 121">
        <r>  0.1336  0.0072  0.0070  0.0078  0.0000  0.0000  0.0000  0.0000  0.0000 </r>
        <r>  0.1338  0.0072  0.0070  0.0078  0.0000  0.0000  0.0000  0.0000  0.0000 </r>
       </set>
       <set comment="band 122">
        <r>  0.0730  0.0128  0.0039  0.0011  0.0000  0.0000  0.0000  0.0000  0.0000 </r>
        <r>  0.0729  0.0129  0.0039  0.0011  0.0000  0.0000  0.0000  0.0000  0.0000 </r>
       </set>
       <set comment="band 123">
        <r>  0.0454  0.0035  0.0016  0.0133  0.0000  0.0000  0.0000  0.0000  0.0000 </r>
        <r>  0.0442  0.0035  0.0016  0.0132  0.0000  0.0000  0.0000  0.0000  0.0000 </r>
       </set>
       <set comment="band 124">
        <r>  0.0413  0.0084  0.0053  0.0031  0.0000  0.0000  0.0000  0.0000  0.0000 </r>
        <r>  0.0412  0.0084  0.0053  0.0031  0.0000  0.0000  0.0000  0.0000  0.0000 </r>
       </set>
       <set comment="band 125">
        <r>  0.1248  0.0059  0.0009  0.0092  0.0000  0.0000  0.0000  0.0000  0.0000 </r>
        <r>  0.1264  0.0059  0.0009  0.0093  0.0000  0.0000  0.0000  0.0000  0.0000 </r>
       </set>
       <set comment="band 126">
        <r>  0.1180  0.0024  0.0052  0.0015  0.0000  0.0000  0.0000  0.0000  0.0000 </r>
        <r>  0.1181  0.0024  0.0051  0.0015  0.0000  0.0000  0.0000  0.0000  0.0000 </r>
       </set>
       <set comment="band 127">
        <r>  0.0876  0.0125  0.0007  0.0041  0.0000  0.0000  0.0000  0.0000  0.0000 </r>
        <r>  0.0879  0.0125  0.0007  0.0042  0.0000  0.0000  0.0000  0.0000  0.0000 </r>
       </set>
       <set comment="band 128">
        <r>  0.0360  0.0079  0.0071  0.0024  0.0000  0.0000  0.0000  0.0000  0.0000 </r>
        <r>  0.0362  0.0079  0.0070  0.0024  0.0000  0.0000  0.0000  0.0000  0.0000 </r>
       </set>
      </set>
     </set>
    </set>
   </array>
  </projected>
 </calculation>
 <structure name="finalpos" >
  <crystal>
   <varray name="basis" >
    <v>       3.33357300       0.00000000       1.92463900 </v>
    <v>       1.11119100       3.14292400       1.92463900 </v>
    <v>       0.00000000       0.00000000       3.84927800 </v>
   </varray>
   <i name="volume">     40.32952685 </i>
   <varray name="rec_basis" >
    <v>       0.29997843      -0.10605835       0.00000000 </v>
    <v>       0.00000000       0.31817505       0.00000000 </v>
    <v>      -0.14998922      -0.10605835       0.25978898 </v>
   </varray>
  </crystal>
  <varray name="positions" >
   <v>       0.87500000       0.87500000       0.87500000 </v>
   <v>       0.12500000       0.12500000       0.12500000 </v>
  </varray>
 </structure>
</modeling>
