 vasp.6.1.2 22Jul20 (build Dec 10 2020 10:33:42) complex                        
  
 executed on             LinuxIFC date 2022.08.31  11:34:52
 running on  192 total cores
 distrk:  each k-point on  192 cores,    1 groups
 distr:  one band on NCORE=  48 cores,    4 groups


--------------------------------------------------------------------------------------------------------


 INCAR:
 POTCAR:    PAW_PBE Si 05Jan2001                  
 WARNING: For LVTOT=.TRUE., VASP.5.x writes the TOTAL local potential to the
     file LOCPOT. If you want only the Hartree contributions, use LVHAR=.TRUE.
     instead. 

 -----------------------------------------------------------------------------
|                                                                             |
|           W    W    AA    RRRRR   N    N  II  N    N   GGGG   !!!           |
|           W    W   A  A   R    R  NN   N  II  NN   N  G    G  !!!           |
|           W    W  A    A  R    R  N N  N  II  N N  N  G       !!!           |
|           W WW W  AAAAAA  RRRRR   N  N N  II  N  N N  G  GGG   !            |
|           WW  WW  A    A  R   R   N   NN  II  N   NN  G    G                |
|           W    W  A    A  R    R  N    N  II  N    N   GGGG   !!!           |
|                                                                             |
|     For optimal performance we recommend to set                             |
|       NCORE = 4 - approx SQRT(number of cores).                             |
|     NCORE specifies how many cores store one orbital (NPAR=cpu/NCORE).      |
|     This setting can greatly improve the performance of VASP for DFT.       |
|     The default, NCORE=1 might be grossly inefficient on modern             |
|     multi-core architectures or massively parallel machines. Do your        |
|     own testing!!!!                                                         |
|     Unfortunately you need to use the default for GW and RPA                |
|     calculations (for HF NCORE is supported but not extensively tested      |
|     yet).                                                                   |
|                                                                             |
 -----------------------------------------------------------------------------

 POTCAR:    PAW_PBE Si 05Jan2001                  
   VRHFIN =Si: s2p2                                                                                 
   LEXCH  = PE                                                                                      
   EATOM  =   103.0669 eV,    7.5752 Ry                                                             
                                                                                                    
   TITEL  = PAW_PBE Si 05Jan2001                                                                    
   LULTRA =        F    use ultrasoft PP ?                                                          
   IUNSCR =        1    unscreen: 0-lin 1-nonlin 2-no                                               
   RPACOR =    1.500    partial core radius                                                         
   POMASS =   28.085; ZVAL   =    4.000    mass and valenz                                          
   RCORE  =    1.900    outmost cutoff radius                                                       
   RWIGS  =    2.480; RWIGS  =    1.312    wigner-seitz radius (au A)                               
   ENMAX  =  245.345; ENMIN  =  184.009 eV                                                          
   ICORE  =        2    local potential                                                             
   LCOR   =        T    correct aug charges                                                         
   LPAW   =        T    paw PP                                                                      
   EAUG   =  322.069                                                                                
   DEXC   =    0.000                                                                                
   RMAX   =    1.950    core radius for proj-oper                                                   
   RAUG   =    1.300    factor for augmentation sphere                                              
   RDEP   =    1.993    radius for radial grids                                                     
   RDEPT  =    1.837    core radius for aug-charge                                                  
                                                                                                    
   Atomic configuration                                                                             
    6 entries                                                                                       
     n  l   j            E        occ.                                                              
     1  0  0.50     -1785.8828   2.0000                                                             
     2  0  0.50      -139.4969   2.0000                                                             
     2  1  1.50       -95.5546   6.0000                                                             
     3  0  0.50       -10.8127   2.0000                                                             
     3  1  0.50        -4.0811   2.0000                                                             
     3  2  1.50        -4.0817   0.0000                                                             
   Description                                                                                      
     l       E           TYP  RCUT    TYP  RCUT                                                     
     0    -10.8127223     23  1.900                                                                 
     0     -7.6451159     23  1.900                                                                 
     1     -4.0811372     23  1.900                                                                 
     1      2.4879257     23  1.900                                                                 
     2     -4.0817478      7  1.900                                                                 
  local pseudopotential read in
  partial core-charges read in
  partial kinetic energy density read in
  atomic valenz-charges read in
  non local Contribution for L=           0  read in
    real space projection operators read in
  non local Contribution for L=           0  read in
    real space projection operators read in
  non local Contribution for L=           1  read in
    real space projection operators read in
  non local Contribution for L=           1  read in
    real space projection operators read in
    PAW grid and wavefunctions read in
 
   number of l-projection  operators is LMAX  =           4
   number of lm-projection operators is LMMAX =           8
 
 -----------------------------------------------------------------------------
|                                                                             |
|               ----> ADVICE to this user running VASP <----                  |
|                                                                             |
|     You enforced a specific xc type in the INCAR file but a different       |
|     type was found in the POTCAR file.                                      |
|     I HOPE YOU KNOW WHAT YOU ARE DOING!                                     |
|                                                                             |
 -----------------------------------------------------------------------------

  PAW_PBE Si 05Jan2001                  :
 energy of atom  1       EATOM= -103.0669
 kinetic energy error for atom=    0.0003 (will be added to EATOM!!)
 
 
 POSCAR: Si8
  positions in direct lattice
  No initial velocities read in
 exchange correlation table for  LEXCH =       14
   RHO(1)=    0.500       N(1)  =     2000
   RHO(2)=  100.500       N(2)  =     4000

 VTST: version 3.2, (02/03/18)

 CHAIN: initializing optimizer
 
 OPT: Using VASP Dynamics algorithm
 CHAIN: Read ICHAIN            0
 
 POSCAR: Si8
  positions in direct lattice
  No initial velocities read in
 


--------------------------------------------------------------------------------------------------------


 ion  position               nearest neighbor table
   1  0.000  0.000  0.500-   2 2.36   6 2.36   8 2.36   4 2.36
   2  0.250  0.750  0.250-   1 2.36   5 2.36   7 2.36   3 2.36
   3  0.000  0.500  0.000-   4 2.36   6 2.36   8 2.36   2 2.36
   4  0.250  0.250  0.750-   3 2.36   5 2.36   7 2.36   1 2.36
   5  0.500  0.000  0.000-   2 2.36   4 2.36   6 2.36   8 2.36
   6  0.750  0.750  0.750-   1 2.36   3 2.36   5 2.36   7 2.36
   7  0.500  0.500  0.500-   2 2.36   4 2.36   8 2.36   6 2.36
   8  0.750  0.250  0.250-   1 2.36   3 2.36   7 2.36   5 2.36
 
  LATTYP: Found a simple cubic cell.
 ALAT       =     5.4600000000
  
  Lattice vectors:
  
 A1 = (   5.4600000000,   0.0000000000,   0.0000000000)
 A2 = (  -0.0000000000,   5.4600000000,   0.0000000000)
 A3 = (   0.0000000000,   0.0000000000,   5.4600000000)


Analysis of symmetry for initial positions (statically):
=====================================================================
 Subroutine PRICEL returns following result:
 
  LATTYP: Found a face centered cubic cell.
 ALAT       =     5.4600000000
  
  Lattice vectors:
  
 A1 = (   2.7300000000,   2.7300000000,   0.0000000000)
 A2 = (   2.7300000000,   0.0000000000,  -2.7300000000)
 A3 = (   0.0000000000,   2.7300000000,  -2.7300000000)
 
   4 primitive cells build up your supercell.
 

 Routine SETGRP: Setting up the symmetry group for a 
 simple cubic supercell.


 Subroutine GETGRP returns: Found 48 space group operations
 (whereof 24 operations were pure point group operations)
 out of a pool of 48 trial point group operations.


The static configuration has the point symmetry T_d .
 The point group associated with its full space group is O_h .


Analysis of symmetry for dynamics (positions and initial velocities):
=====================================================================
 Subroutine PRICEL returns following result:
 
  LATTYP: Found a face centered cubic cell.
 ALAT       =     5.4600000000
  
  Lattice vectors:
  
 A1 = (   2.7300000000,   2.7300000000,   0.0000000000)
 A2 = (   2.7300000000,   0.0000000000,  -2.7300000000)
 A3 = (   0.0000000000,   2.7300000000,  -2.7300000000)
 
   4 primitive cells build up your supercell.
 

 Routine SETGRP: Setting up the symmetry group for a 
 simple cubic supercell.


 Subroutine GETGRP returns: Found 48 space group operations
 (whereof 24 operations were pure point group operations)
 out of a pool of 48 trial point group operations.


The dynamic configuration has the point symmetry T_d .
 The point group associated with its full space group is O_h .


Analysis of structural, dynamic, and magnetic symmetry:
=====================================================================
 Subroutine PRICEL returns following result:
 
  LATTYP: Found a face centered cubic cell.
 ALAT       =     5.4600000000
  
  Lattice vectors:
  
 A1 = (   2.7300000000,   2.7300000000,   0.0000000000)
 A2 = (   2.7300000000,   0.0000000000,  -2.7300000000)
 A3 = (   0.0000000000,   2.7300000000,  -2.7300000000)
 
   4 primitive cells build up your supercell.
 

 Routine SETGRP: Setting up the symmetry group for a 
 simple cubic supercell.


 Subroutine GETGRP returns: Found 48 space group operations
 (whereof 24 operations were pure point group operations)
 out of a pool of 48 trial point group operations.


The magnetic configuration has the point symmetry T_d .
 The point group associated with its full space group is O_h .


 Subroutine INISYM returns: Found 48 space group operations
 (whereof 24 operations are pure point group operations),
 and found     4 'primitive' translations


----------------------------------------------------------------------------------------

                                     Primitive cell                                     

  volume of cell :      40.6928

  direct lattice vectors                    reciprocal lattice vectors
     2.730000000  2.730000000  0.000000000     0.183150183  0.183150183  0.183150183
     2.730000000  0.000000000 -2.730000000     0.183150183 -0.183150183 -0.183150183
     0.000000000  2.730000000 -2.730000000    -0.183150183  0.183150183 -0.183150183

  length of vectors
     3.860803025  3.860803025  3.860803025     0.317225423  0.317225423  0.317225423

  position of ions in fractional coordinates (direct lattice)
     0.500000000  0.500000000  0.500000000
     0.250000000  0.250000000  0.250000000

  ion indices of the primitive-cell ions
   primitive index   ion index
                 1           1
                 2           6

----------------------------------------------------------------------------------------

 
 

Automatic generation of k-mesh.
 generate k-points for:    6    6    6
Space group operators:
 irot       det(A)        alpha          n_x          n_y          n_z        tau_x        tau_y        tau_z
    1     1.000000     0.000000     1.000000     0.000000     0.000000     0.000000     0.000000     0.000000
    2     1.000000   120.000000    -0.577350    -0.577350    -0.577350     0.000000     0.000000     0.000000
    3     1.000000   120.000000     0.577350     0.577350     0.577350     0.000000     0.000000     0.000000
    4    -1.000000    90.000000     0.000000    -0.000000    -1.000000     0.000000     0.000000     0.000000
    5    -1.000000   180.000000     0.000000    -0.707107    -0.707107     0.000000     0.000000     0.000000
    6    -1.000000    90.000000    -0.000000     1.000000     0.000000     0.000000     0.000000     0.000000
    7     1.000000   180.000000    -0.000000    -0.000000     1.000000     0.000000     0.000000     0.000000
    8     1.000000   120.000000    -0.577350     0.577350     0.577350     0.000000     0.000000     0.000000
    9     1.000000   120.000000    -0.577350     0.577350    -0.577350     0.000000     0.000000     0.000000
   10    -1.000000    90.000000     0.000000    -0.000000     1.000000     0.000000     0.000000     0.000000
   11    -1.000000    90.000000    -1.000000     0.000000     0.000000     0.000000     0.000000     0.000000
   12    -1.000000   180.000000    -0.707107     0.000000    -0.707107     0.000000     0.000000     0.000000
   13     1.000000   120.000000     0.577350    -0.577350     0.577350     0.000000     0.000000     0.000000
   14     1.000000   120.000000    -0.577350    -0.577350     0.577350     0.000000     0.000000     0.000000
   15     1.000000   180.000000     1.000000     0.000000     0.000000     0.000000     0.000000     0.000000
   16    -1.000000    90.000000     0.000000    -1.000000    -0.000000     0.000000     0.000000     0.000000
   17    -1.000000   180.000000    -0.707107    -0.707107     0.000000     0.000000     0.000000     0.000000
   18    -1.000000    90.000000     1.000000     0.000000     0.000000     0.000000     0.000000     0.000000
   19     1.000000   120.000000     0.577350    -0.577350    -0.577350     0.000000     0.000000     0.000000
   20     1.000000   180.000000     0.000000     1.000000     0.000000     0.000000     0.000000     0.000000
   21     1.000000   120.000000     0.577350     0.577350    -0.577350     0.000000     0.000000     0.000000
   22    -1.000000   180.000000    -0.000000    -0.707107     0.707107     0.000000     0.000000     0.000000
   23    -1.000000   180.000000     0.707107    -0.707107     0.000000     0.000000     0.000000     0.000000
   24    -1.000000   180.000000     0.707107     0.000000    -0.707107     0.000000     0.000000     0.000000
   25    -1.000000     0.000000     1.000000     0.000000     0.000000    -0.250000    -0.250000     0.250000
   26    -1.000000   120.000000    -0.577350    -0.577350    -0.577350    -0.250000    -0.250000     0.250000
   27    -1.000000   120.000000     0.577350     0.577350     0.577350    -0.250000    -0.250000     0.250000
   28     1.000000    90.000000     0.000000    -0.000000    -1.000000    -0.250000    -0.250000     0.250000
   29     1.000000   180.000000     0.000000    -0.707107    -0.707107    -0.250000    -0.250000     0.250000
   30     1.000000    90.000000    -0.000000     1.000000     0.000000    -0.250000    -0.250000     0.250000
   31    -1.000000   180.000000    -0.000000    -0.000000     1.000000    -0.250000    -0.250000     0.250000
   32    -1.000000   120.000000    -0.577350     0.577350     0.577350    -0.250000    -0.250000     0.250000
   33    -1.000000   120.000000    -0.577350     0.577350    -0.577350    -0.250000    -0.250000     0.250000
   34     1.000000    90.000000     0.000000    -0.000000     1.000000    -0.250000    -0.250000     0.250000
   35     1.000000    90.000000    -1.000000     0.000000     0.000000    -0.250000    -0.250000     0.250000
   36     1.000000   180.000000    -0.707107     0.000000    -0.707107    -0.250000    -0.250000     0.250000
   37    -1.000000   120.000000     0.577350    -0.577350     0.577350    -0.250000    -0.250000     0.250000
   38    -1.000000   120.000000    -0.577350    -0.577350     0.577350    -0.250000    -0.250000     0.250000
   39    -1.000000   180.000000     1.000000     0.000000     0.000000    -0.250000    -0.250000     0.250000
   40     1.000000    90.000000     0.000000    -1.000000    -0.000000    -0.250000    -0.250000     0.250000
   41     1.000000   180.000000    -0.707107    -0.707107     0.000000    -0.250000    -0.250000     0.250000
   42     1.000000    90.000000     1.000000     0.000000     0.000000    -0.250000    -0.250000     0.250000
   43    -1.000000   120.000000     0.577350    -0.577350    -0.577350    -0.250000    -0.250000     0.250000
   44    -1.000000   180.000000     0.000000     1.000000     0.000000    -0.250000    -0.250000     0.250000
   45    -1.000000   120.000000     0.577350     0.577350    -0.577350    -0.250000    -0.250000     0.250000
   46     1.000000   180.000000    -0.000000    -0.707107     0.707107    -0.250000    -0.250000     0.250000
   47     1.000000   180.000000     0.707107    -0.707107     0.000000    -0.250000    -0.250000     0.250000
   48     1.000000   180.000000     0.707107     0.000000    -0.707107    -0.250000    -0.250000     0.250000
 TETIRR: Found    104 inequivalent tetrahedra from     1296
 
 Subroutine IBZKPT returns following result:
 ===========================================
 
 Found     20 irreducible k-points:
 
 Following reciprocal coordinates:
            Coordinates               Weight
  0.000000  0.000000  0.000000      1.000000
  0.166667  0.000000  0.000000      6.000000
  0.333333  0.000000  0.000000      6.000000
  0.500000  0.000000  0.000000      3.000000
  0.166667  0.166667  0.000000     12.000000
  0.333333  0.166667  0.000000     24.000000
  0.500000  0.166667  0.000000     12.000000
  0.333333  0.333333  0.000000     12.000000
  0.500000  0.333333  0.000000     12.000000
  0.500000  0.500000  0.000000      3.000000
  0.166667  0.166667  0.166667      8.000000
  0.333333  0.166667  0.166667     24.000000
  0.500000  0.166667  0.166667     12.000000
  0.333333  0.333333  0.166667     24.000000
  0.500000  0.333333  0.166667     24.000000
  0.500000  0.500000  0.166667      6.000000
  0.333333  0.333333  0.333333      8.000000
  0.500000  0.333333  0.333333     12.000000
  0.500000  0.500000  0.333333      6.000000
  0.500000  0.500000  0.500000      1.000000
 
 Following cartesian coordinates:
            Coordinates               Weight
  0.000000  0.000000  0.000000      1.000000
  0.030525  0.000000  0.000000      6.000000
  0.061050  0.000000  0.000000      6.000000
  0.091575  0.000000  0.000000      3.000000
  0.030525  0.030525  0.000000     12.000000
  0.061050  0.030525  0.000000     24.000000
  0.091575  0.030525  0.000000     12.000000
  0.061050  0.061050  0.000000     12.000000
  0.091575  0.061050  0.000000     12.000000
  0.091575  0.091575  0.000000      3.000000
  0.030525  0.030525  0.030525      8.000000
  0.061050  0.030525  0.030525     24.000000
  0.091575  0.030525  0.030525     12.000000
  0.061050  0.061050  0.030525     24.000000
  0.091575  0.061050  0.030525     24.000000
  0.091575  0.091575  0.030525      6.000000
  0.061050  0.061050  0.061050      8.000000
  0.091575  0.061050  0.061050     12.000000
  0.091575  0.091575  0.061050      6.000000
  0.091575  0.091575  0.091575      1.000000
 


--------------------------------------------------------------------------------------------------------




 Dimension of arrays:
   k-points           NKPTS =     20   k-points in BZ     NKDIM =     20   number of bands    NBANDS=     24
   number of dos      NEDOS =    301   number of ions     NIONS =      8
   non local maximal  LDIM  =      4   non local SUM 2l+1 LMDIM =      8
   total plane-waves  NPLWV = 110592
   max r-space proj   IRMAX =      1   max aug-charges    IRDMAX=  22914
   dimension x,y,z NGX =    48 NGY =   48 NGZ =   48
   dimension x,y,z NGXF=    96 NGYF=   96 NGZF=   96
   support grid    NGXF=    96 NGYF=   96 NGZF=   96
   ions per type =               8
   NGX,Y,Z   is equivalent  to a cutoff of  14.62, 14.62, 14.62 a.u.
   NGXF,Y,Z  is equivalent  to a cutoff of  29.23, 29.23, 29.23 a.u.

 SYSTEM =  unknown system                          
 POSCAR =  Si8                                     

 Startparameter for this run:
   NWRITE =      2    write-flag & timer
   PREC   = accura    normal or accurate (medium, high low for compatibility)
   ISTART =      0    job   : 0-new  1-cont  2-samecut
   ICHARG =      2    charge: 1-file 2-atom 10-const
   ISPIN  =      2    spin polarized calculation?
   LNONCOLLINEAR =      F non collinear calculations
   LSORBIT =      F    spin-orbit coupling
   INIWAV =      1    electr: 0-lowe 1-rand  2-diag
   LASPH  =      T    aspherical Exc in radial PAW
   METAGGA=      F    non-selfconsistent MetaGGA calc.

 Electronic Relaxation 1
   ENCUT  =  680.0 eV  49.98 Ry    7.07 a.u.  11.61 11.61 11.61*2*pi/ulx,y,z
   ENINI  =  680.0     initial cutoff
   ENAUG  = 1360.0 eV  augmentation charge cutoff
   NELM   =    200;   NELMIN=  2; NELMDL= -5     # of ELM steps 
   EDIFF  = 0.1E-04   stopping-criterion for ELM
   LREAL  =      F    real-space projection
   NLSPLINE    = F    spline interpolate recip. space projectors
   LCOMPAT=      F    compatible to vasp.4.4
   GGA_COMPAT  = T    GGA compatible to vasp.4.4-vasp.4.6
   LMAXPAW     = -100 max onsite density
   LMAXMIX     =    2 max onsite mixed and CHGCAR
   VOSKOWN=      0    Vosko Wilk Nusair interpolation
   ROPT   =    0.00000
 Ionic relaxation
   EDIFFG = 0.1E-03   stopping-criterion for IOM
   NSW    =      0    number of steps for IOM
   NBLOCK =      1;   KBLOCK =      1    inner block; outer block 
   IBRION =     -1    ionic relax: 0-MD 1-quasi-New 2-CG
   NFREE  =      0    steps in history (QN), initial steepest desc. (CG)
   ISIF   =      2    stress and relaxation
   IWAVPR =     10    prediction:  0-non 1-charg 2-wave 3-comb
   ISYM   =      2    0-nonsym 1-usesym 2-fastsym
   LCORR  =      T    Harris-Foulkes like correction to forces

   POTIM  = 0.5000    time-step for ionic-motion
   TEIN   =    0.0    initial temperature
   TEBEG  =    0.0;   TEEND  =   0.0 temperature during run
   SMASS  =  -3.00    Nose mass-parameter (am)
   estimated Nose-frequenzy (Omega)   =  0.10E-29 period in steps = 0.13E+47 mass=  -0.681E-27a.u.
   SCALEE = 1.0000    scale energy and forces
   NPACO  =    256;   APACO  = 16.0  distance and # of slots for P.C.
   PSTRESS=    0.0 pullay stress

  Mass of Ions in am
   POMASS =  28.09
  Ionic Valenz
   ZVAL   =   4.00
  Atomic Wigner-Seitz radii
   RWIGS  =  -1.00
  virtual crystal weights 
   VCA    =   1.00
   NELECT =      32.0000    total number of electrons
   NUPDOWN=      -1.0000    fix difference up-down

 DOS related values:
   EMIN   =  10.00;   EMAX   =-10.00  energy-range for DOS
   EFERMI =   0.00
   ISMEAR =    -5;   SIGMA  =   0.20  broadening in eV -4-tet -1-fermi 0-gaus

 Electronic relaxation 2 (details)
   IALGO  =     68    algorithm
   LDIAG  =      T    sub-space diagonalisation (order eigenvalues)
   LSUBROT=      F    optimize rotation matrix (better conditioning)
   TURBO    =      0    0=normal 1=particle mesh
   IRESTART =      0    0=no restart 2=restart with 2 vectors
   NREBOOT  =      0    no. of reboots
   NMIN     =      0    reboot dimension
   EREF     =   0.00    reference energy to select bands
   IMIX   =      4    mixing-type and parameters
     AMIX     =   0.40;   BMIX     =  1.00
     AMIX_MAG =   1.60;   BMIX_MAG =  1.00
     AMIN     =   0.10
     WC   =   100.;   INIMIX=   1;  MIXPRE=   1;  MAXMIX= -45

 Intra band minimization:
   WEIMIN = 0.0000     energy-eigenvalue tresh-hold
   EBREAK =  0.10E-06  absolut break condition
   DEPER  =   0.30     relativ break condition  

   TIME   =   0.40     timestep for ELM

  volume/ion in A,a.u.               =      20.35       137.30
  Fermi-wavevector in a.u.,A,eV,Ry     =   0.951916  1.798861 12.328851  0.906145
  Thomas-Fermi vector in A             =   2.080431
 
 Write flags
   LWAVE        =      F    write WAVECAR
   LDOWNSAMPLE  =      F    k-point downsampling of WAVECAR
   LCHARG       =      T    write CHGCAR
   LVTOT        =      T    write LOCPOT, total local potential
   LVHAR        =      F    write LOCPOT, Hartree potential only
   LELF         =      F    write electronic localiz. function (ELF)
   LORBIT       =     11    0 simple, 1 ext, 2 COOP (PROOUT), +10 PAW based schemes


 Dipole corrections
   LMONO  =      F    monopole corrections only (constant potential shift)
   LDIPOL =      F    correct potential (dipole corrections)
   IDIPOL =      0    1-x, 2-y, 3-z, 4-all directions 
   EPSILON=  1.0000000 bulk dielectric constant

 Exchange correlation treatment:
   GGA     =    PS    GGA type
   LEXCH   =    14    internal setting for exchange type
   VOSKOWN=      0    Vosko Wilk Nusair interpolation
   LHFCALC =     F    Hartree Fock is set to
   LHFONE  =     F    Hartree Fock one center treatment
   AEXX    =    0.0000 exact exchange contribution

 Linear response parameters
   LEPSILON=     F    determine dielectric tensor
   LRPA    =     F    only Hartree local field effects (RPA)
   LNABLA  =     F    use nabla operator in PAW spheres
   LVEL    =     F    velocity operator in full k-point grid
   LINTERFAST=   F  fast interpolation
   KINTER  =     0    interpolate to denser k-point grid
   CSHIFT  =0.1000    complex shift for real part using Kramers Kronig
   OMEGAMAX=  -1.0    maximum frequency
   DEG_THRESHOLD= 0.2000000E-02 threshold for treating states as degnerate
   RTIME   =   -0.100 relaxation time in fs
  (WPLASMAI=    0.000 imaginary part of plasma frequency in eV, 0.658/RTIME)
   DFIELD  = 0.0000000 0.0000000 0.0000000 field for delta impulse in time
 
 Orbital magnetization related:
   ORBITALMAG=     F  switch on orbital magnetization
   LCHIMAG   =     F  perturbation theory with respect to B field
   DQ        =  0.001000  dq finite difference perturbation B field
   LLRAUG    =     F  two centre corrections for induced B field



--------------------------------------------------------------------------------------------------------


 Static calculation
 charge density and potential will be updated during run
 spin polarized calculation
 RMM-DIIS sequential band-by-band and
  variant of blocked Davidson during initial phase
 perform sub-space diagonalisation
    before iterative eigenvector-optimisation
 modified Broyden-mixing scheme, WC =      100.0
 initial mixing is a Kerker type mixing with AMIX =  0.4000 and BMIX =      1.0000
 Hartree-type preconditioning will be used
 using additional bands            8
 reciprocal scheme for non local part
 use partial core corrections
 calculate Harris-corrections to forces 
   (improved forces if not selfconsistent)
 use gradient corrections 
 use of overlap-Matrix (Vanderbilt PP)
 Fermi weights with tetrahedron method with Bloechl corrections


--------------------------------------------------------------------------------------------------------


  energy-cutoff  :      680.00
  volume of cell :      162.77
      direct lattice vectors                 reciprocal lattice vectors
     5.460000000  0.000000000  0.000000000     0.183150183  0.000000000  0.000000000
    -0.000000000  5.460000000  0.000000000     0.000000000  0.183150183  0.000000000
     0.000000000  0.000000000  5.460000000    -0.000000000 -0.000000000  0.183150183

  length of vectors
     5.460000000  5.460000000  5.460000000     0.183150183  0.183150183  0.183150183


 
 k-points in units of 2pi/SCALE and weight: read from INCAR                         
   0.00000000  0.00000000  0.00000000       0.005
   0.03052503  0.00000000  0.00000000       0.028
   0.06105006  0.00000000  0.00000000       0.028
   0.09157509  0.00000000  0.00000000       0.014
   0.03052503  0.03052503  0.00000000       0.056
   0.06105006  0.03052503  0.00000000       0.111
   0.09157509  0.03052503  0.00000000       0.056
   0.06105006  0.06105006  0.00000000       0.056
   0.09157509  0.06105006  0.00000000       0.056
   0.09157509  0.09157509  0.00000000       0.014
   0.03052503  0.03052503  0.03052503       0.037
   0.06105006  0.03052503  0.03052503       0.111
   0.09157509  0.03052503  0.03052503       0.056
   0.06105006  0.06105006  0.03052503       0.111
   0.09157509  0.06105006  0.03052503       0.111
   0.09157509  0.09157509  0.03052503       0.028
   0.06105006  0.06105006  0.06105006       0.037
   0.09157509  0.06105006  0.06105006       0.056
   0.09157509  0.09157509  0.06105006       0.028
   0.09157509  0.09157509  0.09157509       0.005
 
 k-points in reciprocal lattice and weights: read from INCAR                         
   0.00000000  0.00000000  0.00000000       0.005
   0.16666667  0.00000000  0.00000000       0.028
   0.33333333  0.00000000  0.00000000       0.028
   0.50000000  0.00000000  0.00000000       0.014
   0.16666667  0.16666667  0.00000000       0.056
   0.33333333  0.16666667  0.00000000       0.111
   0.50000000  0.16666667  0.00000000       0.056
   0.33333333  0.33333333  0.00000000       0.056
   0.50000000  0.33333333  0.00000000       0.056
   0.50000000  0.50000000  0.00000000       0.014
   0.16666667  0.16666667  0.16666667       0.037
   0.33333333  0.16666667  0.16666667       0.111
   0.50000000  0.16666667  0.16666667       0.056
   0.33333333  0.33333333  0.16666667       0.111
   0.50000000  0.33333333  0.16666667       0.111
   0.50000000  0.50000000  0.16666667       0.028
   0.33333333  0.33333333  0.33333333       0.037
   0.50000000  0.33333333  0.33333333       0.056
   0.50000000  0.50000000  0.33333333       0.028
   0.50000000  0.50000000  0.50000000       0.005
 
 position of ions in fractional coordinates (direct lattice) 
   0.00000000  0.00000000  0.50000000
   0.25000000  0.75000000  0.25000000
   0.00000000  0.50000000  0.00000000
   0.25000000  0.25000000  0.75000000
   0.50000000  0.00000000  0.00000000
   0.75000000  0.75000000  0.75000000
   0.50000000  0.50000000  0.50000000
   0.75000000  0.25000000  0.25000000
 
 position of ions in cartesian coordinates  (Angst):
   0.00000000  0.00000000  2.73000000
   1.36500000  4.09500000  1.36500000
  -0.00000000  2.73000000  0.00000000
   1.36500000  1.36500000  4.09500000
   2.73000000  0.00000000  0.00000000
   4.09500000  4.09500000  4.09500000
   2.73000000  2.73000000  2.73000000
   4.09500000  1.36500000  1.36500000
 


--------------------------------------------------------------------------------------------------------


 k-point   1 :   0.0000 0.0000 0.0000  plane waves:    6619
 k-point   2 :   0.1667 0.0000 0.0000  plane waves:    6579
 k-point   3 :   0.3333 0.0000 0.0000  plane waves:    6559
 k-point   4 :   0.5000 0.0000 0.0000  plane waves:    6528
 k-point   5 :   0.1667 0.1667 0.0000  plane waves:    6597
 k-point   6 :   0.3333 0.1667 0.0000  plane waves:    6561
 k-point   7 :   0.5000 0.1667 0.0000  plane waves:    6560
 k-point   8 :   0.3333 0.3333 0.0000  plane waves:    6540
 k-point   9 :   0.5000 0.3333 0.0000  plane waves:    6550
 k-point  10 :   0.5000 0.5000 0.0000  plane waves:    6536
 k-point  11 :   0.1667 0.1667 0.1667  plane waves:    6580
 k-point  12 :   0.3333 0.1667 0.1667  plane waves:    6544
 k-point  13 :   0.5000 0.1667 0.1667  plane waves:    6546
 k-point  14 :   0.3333 0.3333 0.1667  plane waves:    6544
 k-point  15 :   0.5000 0.3333 0.1667  plane waves:    6556
 k-point  16 :   0.5000 0.5000 0.1667  plane waves:    6544
 k-point  17 :   0.3333 0.3333 0.3333  plane waves:    6557
 k-point  18 :   0.5000 0.3333 0.3333  plane waves:    6538
 k-point  19 :   0.5000 0.5000 0.3333  plane waves:    6560
 k-point  20 :   0.5000 0.5000 0.5000  plane waves:    6704

 maximum and minimum number of plane-waves per node :       152      120

 maximum number of plane-waves:      6704
 maximum index in each direction: 
   IXMAX=   11   IYMAX=   11   IZMAX=   11
   IXMIN=  -12   IYMIN=  -12   IZMIN=  -12


 parallel 3D FFT for wavefunctions:
    minimum data exchange during FFTs selected (reduces bandwidth)
 parallel 3D FFT for charge:
    minimum data exchange during FFTs selected (reduces bandwidth)


 total amount of memory used by VASP MPI-rank0    32061. kBytes
=======================================================================

   base      :      30000. kBytes
   nonl-proj :        202. kBytes
   fftplans  :        410. kBytes
   grid      :        860. kBytes
   one-center:          6. kBytes
   wavefun   :        583. kBytes
 
     INWAV:  cpu time    0.0000: real time    0.0000
 Broyden mixing: mesh for mixing (old mesh)
   NGX = 23   NGY = 23   NGZ = 23
  (NGX  = 96   NGY  = 96   NGZ  = 96)
  gives a total of  12167 points

 initial charge density was supplied:
 charge density of overlapping atoms calculated
 number of electron      32.0000000 magnetization       4.8000000
 keeping initial charge density in first step


--------------------------------------------------------------------------------------------------------


 Maximum index for augmentation-charges          949 (set IRDMAX)


--------------------------------------------------------------------------------------------------------


 First call to EWALD:  gamma=   0.325
 Maximum number of real-space cells 3x 3x 3
 Maximum number of reciprocal cells 3x 3x 3

    FEWALD:  cpu time    0.0021: real time    0.0021


--------------------------------------- Iteration      1(   1)  ---------------------------------------


    POTLOK:  cpu time    0.0301: real time    0.0344
    SETDIJ:  cpu time    0.1916: real time    0.1920
     EDDAV:  cpu time    0.4712: real time    0.4763
 BZINTS: Fermi energy:   12.426219;   32.000000 electrons
         Band energy: 0.135130E+03;  BLOECHL correction:   -0.159030
       DOS:  cpu time    0.0111: real time    0.0111
    --------------------------------------------
      LOOP:  cpu time    0.7040: real time    0.7139

 eigenvalue-minimisations  :  1920
 total energy-change (2. order) : 0.8329549E+02  (-0.1411819E+04)
 number of electron      32.0000000 magnetization       4.8000000
 augmentation part       32.0000000 magnetization       4.8000000

 Free energy of the ion-electron system (eV)
  ---------------------------------------------------
  alpha Z        PSCENC =        13.23599366
  Ewald energy   TEWEN  =      -909.23075819
  -Hartree energ DENC   =       -45.00218016
  -exchange      EXHF   =         0.00000000
  -V(xc)+E(xc)   XCENC  =       -69.76117887
  PAW double counting   =       699.59382407     -561.27664189
  entropy T*S    EENTRO =         0.00000000
  eigenvalues    EBANDS =       135.13002989
  atomic energy  EATOM  =       820.60640024
  Solvation  Ediel_sol  =         0.00000000
  ---------------------------------------------------
  free energy    TOTEN  =        83.29548875 eV

  energy without entropy =       83.29548875  energy(sigma->0) =       83.29548875


--------------------------------------------------------------------------------------------------------




--------------------------------------- Iteration      1(   2)  ---------------------------------------


     EDDAV:  cpu time    0.5007: real time    0.5015
 BZINTS: Fermi energy:    5.890756;   32.000000 electrons
         Band energy: 0.119616E+02;  BLOECHL correction:   -0.002384
       DOS:  cpu time    0.0087: real time    0.0087
    --------------------------------------------
      LOOP:  cpu time    0.5094: real time    0.5102

 eigenvalue-minimisations  :  2544
 total energy-change (2. order) :-0.1231685E+03  (-0.1140388E+03)
 number of electron      32.0000000 magnetization       4.8000000
 augmentation part       32.0000000 magnetization       4.8000000

 Free energy of the ion-electron system (eV)
  ---------------------------------------------------
  alpha Z        PSCENC =        13.23599366
  Ewald energy   TEWEN  =      -909.23075819
  -Hartree energ DENC   =       -45.00218016
  -exchange      EXHF   =         0.00000000
  -V(xc)+E(xc)   XCENC  =       -69.76117887
  PAW double counting   =       699.59382407     -561.27664189
  entropy T*S    EENTRO =         0.00000000
  eigenvalues    EBANDS =        11.96156624
  atomic energy  EATOM  =       820.60640024
  Solvation  Ediel_sol  =         0.00000000
  ---------------------------------------------------
  free energy    TOTEN  =       -39.87297489 eV

  energy without entropy =      -39.87297489  energy(sigma->0) =      -39.87297489


--------------------------------------------------------------------------------------------------------




--------------------------------------- Iteration      1(   3)  ---------------------------------------


     EDDAV:  cpu time    0.4910: real time    0.4921
 BZINTS: Fermi energy:    5.481262;   32.000000 electrons
         Band energy: 0.587634E+01;  BLOECHL correction:   -0.000000
       DOS:  cpu time    0.0053: real time    0.0053
    --------------------------------------------
      LOOP:  cpu time    0.4963: real time    0.4973

 eigenvalue-minimisations  :  2480
 total energy-change (2. order) :-0.6085225E+01  (-0.6000036E+01)
 number of electron      32.0000000 magnetization       4.8000000
 augmentation part       32.0000000 magnetization       4.8000000

 Free energy of the ion-electron system (eV)
  ---------------------------------------------------
  alpha Z        PSCENC =        13.23599366
  Ewald energy   TEWEN  =      -909.23075819
  -Hartree energ DENC   =       -45.00218016
  -exchange      EXHF   =         0.00000000
  -V(xc)+E(xc)   XCENC  =       -69.76117887
  PAW double counting   =       699.59382407     -561.27664189
  entropy T*S    EENTRO =         0.00000000
  eigenvalues    EBANDS =         5.87634152
  atomic energy  EATOM  =       820.60640024
  Solvation  Ediel_sol  =         0.00000000
  ---------------------------------------------------
  free energy    TOTEN  =       -45.95819961 eV

  energy without entropy =      -45.95819961  energy(sigma->0) =      -45.95819961


--------------------------------------------------------------------------------------------------------




--------------------------------------- Iteration      1(   4)  ---------------------------------------


     EDDAV:  cpu time    0.4935: real time    0.4945
 BZINTS: Fermi energy:    5.439774;   32.000000 electrons
         Band energy: 0.576975E+01;  BLOECHL correction:   -0.000000
       DOS:  cpu time    0.0053: real time    0.0053
    --------------------------------------------
      LOOP:  cpu time    0.4988: real time    0.4998

 eigenvalue-minimisations  :  2488
 total energy-change (2. order) :-0.1065924E+00  (-0.1063264E+00)
 number of electron      32.0000000 magnetization       4.8000000
 augmentation part       32.0000000 magnetization       4.8000000

 Free energy of the ion-electron system (eV)
  ---------------------------------------------------
  alpha Z        PSCENC =        13.23599366
  Ewald energy   TEWEN  =      -909.23075819
  -Hartree energ DENC   =       -45.00218016
  -exchange      EXHF   =         0.00000000
  -V(xc)+E(xc)   XCENC  =       -69.76117887
  PAW double counting   =       699.59382407     -561.27664189
  entropy T*S    EENTRO =         0.00000000
  eigenvalues    EBANDS =         5.76974909
  atomic energy  EATOM  =       820.60640024
  Solvation  Ediel_sol  =         0.00000000
  ---------------------------------------------------
  free energy    TOTEN  =       -46.06479204 eV

  energy without entropy =      -46.06479204  energy(sigma->0) =      -46.06479204


--------------------------------------------------------------------------------------------------------




--------------------------------------- Iteration      1(   5)  ---------------------------------------


     EDDAV:  cpu time    0.4910: real time    0.4914
 BZINTS: Fermi energy:    5.436002;   32.000000 electrons
         Band energy: 0.576718E+01;  BLOECHL correction:   -0.000000
       DOS:  cpu time    0.0053: real time    0.0053
    CHARGE:  cpu time    0.0599: real time    0.0605
    MIXING:  cpu time    0.0018: real time    0.0024
    --------------------------------------------
      LOOP:  cpu time    0.5579: real time    0.5595

 eigenvalue-minimisations  :  2448
 total energy-change (2. order) :-0.2568018E-02  (-0.2567153E-02)
 number of electron      31.9999999 magnetization       0.4242723
 augmentation part       -1.8691110 magnetization       0.4311028

 Broyden mixing:
  rms(total) = 0.10656E+01    rms(broyden)= 0.10656E+01
  rms(prec ) = 0.13993E+01
  weight for this iteration     100.00

 Free energy of the ion-electron system (eV)
  ---------------------------------------------------
  alpha Z        PSCENC =        13.23599366
  Ewald energy   TEWEN  =      -909.23075819
  -Hartree energ DENC   =       -45.00218016
  -exchange      EXHF   =         0.00000000
  -V(xc)+E(xc)   XCENC  =       -69.76117887
  PAW double counting   =       699.59382407     -561.27664189
  entropy T*S    EENTRO =         0.00000000
  eigenvalues    EBANDS =         5.76718108
  atomic energy  EATOM  =       820.60640024
  Solvation  Ediel_sol  =         0.00000000
  ---------------------------------------------------
  free energy    TOTEN  =       -46.06736006 eV

  energy without entropy =      -46.06736006  energy(sigma->0) =      -46.06736006


--------------------------------------------------------------------------------------------------------




--------------------------------------- Iteration      1(   6)  ---------------------------------------


    POTLOK:  cpu time    0.0204: real time    0.0214
    SETDIJ:  cpu time    0.1914: real time    0.1914
    EDDIAG:  cpu time    0.1917: real time    0.1924
  RMM-DIIS:  cpu time    0.1215: real time    0.1224
    ORTHCH:  cpu time    0.0109: real time    0.0109
 BZINTS: Fermi energy:    5.319902;   32.000000 electrons
         Band energy: 0.110658E+02;  BLOECHL correction:   -0.000000
       DOS:  cpu time    0.0053: real time    0.0053
    CHARGE:  cpu time    0.0579: real time    0.0570
    MIXING:  cpu time    0.0008: real time    0.0013
    --------------------------------------------
      LOOP:  cpu time    0.6000: real time    0.6021

 eigenvalue-minimisations  :  1921
 total energy-change (2. order) :-0.1293418E+00  (-0.4036929E-01)
 number of electron      31.9999999 magnetization      -0.2854966
 augmentation part       -1.8477796 magnetization      -0.2738317

 Broyden mixing:
  rms(total) = 0.59652E+00    rms(broyden)= 0.59652E+00
  rms(prec ) = 0.79893E+00
  weight for this iteration     100.00

 eigenvalues of (default mixing * dielectric matrix)
  average eigenvalue GAMMA=   1.2287
  1.2287

 Free energy of the ion-electron system (eV)
  ---------------------------------------------------
  alpha Z        PSCENC =        13.23599366
  Ewald energy   TEWEN  =      -909.23075819
  -Hartree energ DENC   =       -50.64069386
  -exchange      EXHF   =         0.00000000
  -V(xc)+E(xc)   XCENC  =       -69.15872336
  PAW double counting   =      1509.99986723    -1372.07455359
  entropy T*S    EENTRO =         0.00000000
  eigenvalues    EBANDS =        11.06576602
  atomic energy  EATOM  =       820.60640024
  Solvation  Ediel_sol  =         0.00000000
  ---------------------------------------------------
  free energy    TOTEN  =       -46.19670186 eV

  energy without entropy =      -46.19670186  energy(sigma->0) =      -46.19670186


--------------------------------------------------------------------------------------------------------




--------------------------------------- Iteration      1(   7)  ---------------------------------------


    POTLOK:  cpu time    0.0206: real time    0.0215
    SETDIJ:  cpu time    0.1909: real time    0.1909
    EDDIAG:  cpu time    0.1879: real time    0.1878
  RMM-DIIS:  cpu time    0.1292: real time    0.1292
    ORTHCH:  cpu time    0.0110: real time    0.0111
 BZINTS: Fermi energy:    5.571702;   32.000000 electrons
         Band energy: 0.172976E+02;  BLOECHL correction:   -0.000000
       DOS:  cpu time    0.0052: real time    0.0052
    CHARGE:  cpu time    0.0585: real time    0.0575
    MIXING:  cpu time    0.0004: real time    0.0004
    --------------------------------------------
      LOOP:  cpu time    0.6038: real time    0.6037

 eigenvalue-minimisations  :  2018
 total energy-change (2. order) : 0.2525845E+00  (-0.5704542E-01)
 number of electron      31.9999999 magnetization      -0.1158926
 augmentation part       -1.8302925 magnetization      -0.1226670

 Broyden mixing:
  rms(total) = 0.21011E+00    rms(broyden)= 0.21011E+00
  rms(prec ) = 0.24586E+00
  weight for this iteration     100.00

 eigenvalues of (default mixing * dielectric matrix)
  average eigenvalue GAMMA=   1.3571
  0.7752  1.9391

 Free energy of the ion-electron system (eV)
  ---------------------------------------------------
  alpha Z        PSCENC =        13.23599366
  Ewald energy   TEWEN  =      -909.23075819
  -Hartree energ DENC   =       -57.35650586
  -exchange      EXHF   =         0.00000000
  -V(xc)+E(xc)   XCENC  =       -68.04583609
  PAW double counting   =      2862.31279624    -2724.76385363
  entropy T*S    EENTRO =         0.00000000
  eigenvalues    EBANDS =        17.29764625
  atomic energy  EATOM  =       820.60640024
  Solvation  Ediel_sol  =         0.00000000
  ---------------------------------------------------
  free energy    TOTEN  =       -45.94411738 eV

  energy without entropy =      -45.94411738  energy(sigma->0) =      -45.94411738


--------------------------------------------------------------------------------------------------------




--------------------------------------- Iteration      1(   8)  ---------------------------------------


    POTLOK:  cpu time    0.0208: real time    0.0222
    SETDIJ:  cpu time    0.1907: real time    0.1907
    EDDIAG:  cpu time    0.1875: real time    0.1874
  RMM-DIIS:  cpu time    0.1330: real time    0.1330
    ORTHCH:  cpu time    0.0110: real time    0.0110
 BZINTS: Fermi energy:    5.637995;   32.000000 electrons
         Band energy: 0.189360E+02;  BLOECHL correction:   -0.000000
       DOS:  cpu time    0.0053: real time    0.0053
    CHARGE:  cpu time    0.0572: real time    0.0568
    MIXING:  cpu time    0.0004: real time    0.0004
    --------------------------------------------
      LOOP:  cpu time    0.6058: real time    0.6068

 eigenvalue-minimisations  :  2039
 total energy-change (2. order) :-0.1497978E-01  (-0.1162630E-01)
 number of electron      31.9999999 magnetization      -0.0176630
 augmentation part       -1.8265733 magnetization      -0.0183184

 Broyden mixing:
  rms(total) = 0.77226E-01    rms(broyden)= 0.77226E-01
  rms(prec ) = 0.83136E-01
  weight for this iteration     100.00

 eigenvalues of (default mixing * dielectric matrix)
  average eigenvalue GAMMA=   1.3267
  2.3857  0.9675  0.6268

 Free energy of the ion-electron system (eV)
  ---------------------------------------------------
  alpha Z        PSCENC =        13.23599366
  Ewald energy   TEWEN  =      -909.23075819
  -Hartree energ DENC   =       -59.23956073
  -exchange      EXHF   =         0.00000000
  -V(xc)+E(xc)   XCENC  =       -67.72342248
  PAW double counting   =      3328.47346916    -3191.01718155
  entropy T*S    EENTRO =         0.00000000
  eigenvalues    EBANDS =        18.93596274
  atomic energy  EATOM  =       820.60640024
  Solvation  Ediel_sol  =         0.00000000
  ---------------------------------------------------
  free energy    TOTEN  =       -45.95909715 eV

  energy without entropy =      -45.95909715  energy(sigma->0) =      -45.95909715


--------------------------------------------------------------------------------------------------------




--------------------------------------- Iteration      1(   9)  ---------------------------------------


    POTLOK:  cpu time    0.0213: real time    0.0224
    SETDIJ:  cpu time    0.1913: real time    0.1913
    EDDIAG:  cpu time    0.1879: real time    0.1878
  RMM-DIIS:  cpu time    0.1369: real time    0.1369
    ORTHCH:  cpu time    0.0124: real time    0.0124
 BZINTS: Fermi energy:    5.638670;   32.000000 electrons
         Band energy: 0.190278E+02;  BLOECHL correction:    0.000000
       DOS:  cpu time    0.0052: real time    0.0052
    CHARGE:  cpu time    0.0594: real time    0.0590
    MIXING:  cpu time    0.0005: real time    0.0005
    --------------------------------------------
      LOOP:  cpu time    0.6148: real time    0.6156

 eigenvalue-minimisations  :  2120
 total energy-change (2. order) :-0.4641902E-02  (-0.2221355E-02)
 number of electron      31.9999999 magnetization       0.0042213
 augmentation part       -1.8273093 magnetization       0.0048132

 Broyden mixing:
  rms(total) = 0.23033E-01    rms(broyden)= 0.23033E-01
  rms(prec ) = 0.33056E-01
  weight for this iteration     100.00

 eigenvalues of (default mixing * dielectric matrix)
  average eigenvalue GAMMA=   1.2375
  2.3866  1.0225  0.9121  0.6287

 Free energy of the ion-electron system (eV)
  ---------------------------------------------------
  alpha Z        PSCENC =        13.23599366
  Ewald energy   TEWEN  =      -909.23075819
  -Hartree energ DENC   =       -59.38298256
  -exchange      EXHF   =         0.00000000
  -V(xc)+E(xc)   XCENC  =       -67.68185850
  PAW double counting   =      3396.16861126    -3258.70693386
  entropy T*S    EENTRO =         0.00000000
  eigenvalues    EBANDS =        19.02778889
  atomic energy  EATOM  =       820.60640024
  Solvation  Ediel_sol  =         0.00000000
  ---------------------------------------------------
  free energy    TOTEN  =       -45.96373905 eV

  energy without entropy =      -45.96373905  energy(sigma->0) =      -45.96373905


--------------------------------------------------------------------------------------------------------




--------------------------------------- Iteration      1(  10)  ---------------------------------------


    POTLOK:  cpu time    0.0213: real time    0.0222
    SETDIJ:  cpu time    0.1911: real time    0.1911
    EDDIAG:  cpu time    0.1881: real time    0.1881
  RMM-DIIS:  cpu time    0.1403: real time    0.1402
    ORTHCH:  cpu time    0.0110: real time    0.0110
 BZINTS: Fermi energy:    5.630347;   32.000000 electrons
         Band energy: 0.188370E+02;  BLOECHL correction:   -0.000000
       DOS:  cpu time    0.0053: real time    0.0053
    CHARGE:  cpu time    0.0572: real time    0.0570
    MIXING:  cpu time    0.0004: real time    0.0004
    --------------------------------------------
      LOOP:  cpu time    0.6146: real time    0.6152

 eigenvalue-minimisations  :  2187
 total energy-change (2. order) :-0.3129687E-03  (-0.3193732E-03)
 number of electron      31.9999999 magnetization       0.0009076
 augmentation part       -1.8292036 magnetization       0.0009912

 Broyden mixing:
  rms(total) = 0.16888E-01    rms(broyden)= 0.16888E-01
  rms(prec ) = 0.20708E-01
  weight for this iteration     100.00

 eigenvalues of (default mixing * dielectric matrix)
  average eigenvalue GAMMA=   1.2260
  2.3026  1.3064  1.0376  0.8689  0.6144

 Free energy of the ion-electron system (eV)
  ---------------------------------------------------
  alpha Z        PSCENC =        13.23599366
  Ewald energy   TEWEN  =      -909.23075819
  -Hartree energ DENC   =       -59.20453667
  -exchange      EXHF   =         0.00000000
  -V(xc)+E(xc)   XCENC  =       -67.69156522
  PAW double counting   =      3386.12755739    -3248.64411186
  entropy T*S    EENTRO =         0.00000000
  eigenvalues    EBANDS =        18.83696863
  atomic energy  EATOM  =       820.60640024
  Solvation  Ediel_sol  =         0.00000000
  ---------------------------------------------------
  free energy    TOTEN  =       -45.96405202 eV

  energy without entropy =      -45.96405202  energy(sigma->0) =      -45.96405202


--------------------------------------------------------------------------------------------------------




--------------------------------------- Iteration      1(  11)  ---------------------------------------


    POTLOK:  cpu time    0.0208: real time    0.0221
    SETDIJ:  cpu time    0.1914: real time    0.1914
    EDDIAG:  cpu time    0.1883: real time    0.1883
  RMM-DIIS:  cpu time    0.1396: real time    0.1396
    ORTHCH:  cpu time    0.0109: real time    0.0109
 BZINTS: Fermi energy:    5.626555;   32.000000 electrons
         Band energy: 0.187582E+02;  BLOECHL correction:   -0.000000
       DOS:  cpu time    0.0053: real time    0.0053
    CHARGE:  cpu time    0.0574: real time    0.0570
    MIXING:  cpu time    0.0005: real time    0.0005
    --------------------------------------------
      LOOP:  cpu time    0.6141: real time    0.6150

 eigenvalue-minimisations  :  2183
 total energy-change (2. order) :-0.2631780E-03  (-0.8600860E-04)
 number of electron      31.9999999 magnetization      -0.0021386
 augmentation part       -1.8302626 magnetization      -0.0019776

 Broyden mixing:
  rms(total) = 0.90989E-02    rms(broyden)= 0.90989E-02
  rms(prec ) = 0.10158E-01
  weight for this iteration     100.00

 eigenvalues of (default mixing * dielectric matrix)
  average eigenvalue GAMMA=   1.4082
  2.4675  2.4675  1.1697  0.9787  0.7545  0.6113

 Free energy of the ion-electron system (eV)
  ---------------------------------------------------
  alpha Z        PSCENC =        13.23599366
  Ewald energy   TEWEN  =      -909.23075819
  -Hartree energ DENC   =       -59.14268046
  -exchange      EXHF   =         0.00000000
  -V(xc)+E(xc)   XCENC  =       -67.68742543
  PAW double counting   =      3380.08620616    -3242.59027644
  entropy T*S    EENTRO =         0.00000000
  eigenvalues    EBANDS =        18.75822526
  atomic energy  EATOM  =       820.60640024
  Solvation  Ediel_sol  =         0.00000000
  ---------------------------------------------------
  free energy    TOTEN  =       -45.96431520 eV

  energy without entropy =      -45.96431520  energy(sigma->0) =      -45.96431520


--------------------------------------------------------------------------------------------------------




--------------------------------------- Iteration      1(  12)  ---------------------------------------


    POTLOK:  cpu time    0.0210: real time    0.0222
    SETDIJ:  cpu time    0.1911: real time    0.1911
    EDDIAG:  cpu time    0.1873: real time    0.1873
  RMM-DIIS:  cpu time    0.1403: real time    0.1402
    ORTHCH:  cpu time    0.0110: real time    0.0111
 BZINTS: Fermi energy:    5.626746;   32.000000 electrons
         Band energy: 0.187726E+02;  BLOECHL correction:   -0.000000
       DOS:  cpu time    0.0052: real time    0.0051
    CHARGE:  cpu time    0.0572: real time    0.0569
    MIXING:  cpu time    0.0006: real time    0.0006
    --------------------------------------------
      LOOP:  cpu time    0.6137: real time    0.6145

 eigenvalue-minimisations  :  2194
 total energy-change (2. order) :-0.8263097E-04  (-0.2358285E-04)
 number of electron      31.9999999 magnetization      -0.0008983
 augmentation part       -1.8305885 magnetization      -0.0009918

 Broyden mixing:
  rms(total) = 0.57499E-02    rms(broyden)= 0.57499E-02
  rms(prec ) = 0.59897E-02
  weight for this iteration     100.00

 eigenvalues of (default mixing * dielectric matrix)
  average eigenvalue GAMMA=   1.4266
  2.7252  2.7252  1.3214  0.9565  0.9565  0.6104  0.6909

 Free energy of the ion-electron system (eV)
  ---------------------------------------------------
  alpha Z        PSCENC =        13.23599366
  Ewald energy   TEWEN  =      -909.23075819
  -Hartree energ DENC   =       -59.16564486
  -exchange      EXHF   =         0.00000000
  -V(xc)+E(xc)   XCENC  =       -67.68016023
  PAW double counting   =      3373.17901379    -3235.68188703
  entropy T*S    EENTRO =         0.00000000
  eigenvalues    EBANDS =        18.77264479
  atomic energy  EATOM  =       820.60640024
  Solvation  Ediel_sol  =         0.00000000
  ---------------------------------------------------
  free energy    TOTEN  =       -45.96439783 eV

  energy without entropy =      -45.96439783  energy(sigma->0) =      -45.96439783


--------------------------------------------------------------------------------------------------------




--------------------------------------- Iteration      1(  13)  ---------------------------------------


    POTLOK:  cpu time    0.0225: real time    0.0229
    SETDIJ:  cpu time    0.1913: real time    0.1913
    EDDIAG:  cpu time    0.1881: real time    0.1880
  RMM-DIIS:  cpu time    0.1338: real time    0.1338
    ORTHCH:  cpu time    0.0110: real time    0.0110
 BZINTS: Fermi energy:    5.627112;   32.000000 electrons
         Band energy: 0.187832E+02;  BLOECHL correction:   -0.000000
       DOS:  cpu time    0.0052: real time    0.0052
    CHARGE:  cpu time    0.0572: real time    0.0569
    MIXING:  cpu time    0.0005: real time    0.0005
    --------------------------------------------
      LOOP:  cpu time    0.6096: real time    0.6096

 eigenvalue-minimisations  :  1997
 total energy-change (2. order) :-0.1833831E-04  (-0.5366126E-05)
 number of electron      31.9999999 magnetization       0.0000459
 augmentation part       -1.8306614 magnetization       0.0000280

 Broyden mixing:
  rms(total) = 0.17419E-02    rms(broyden)= 0.17419E-02
  rms(prec ) = 0.18672E-02
  weight for this iteration     100.00

 eigenvalues of (default mixing * dielectric matrix)
  average eigenvalue GAMMA=   1.4816
  2.8041  2.8041  2.1129  1.0977  0.9824  0.7717  0.6162  0.6639

 Free energy of the ion-electron system (eV)
  ---------------------------------------------------
  alpha Z        PSCENC =        13.23599366
  Ewald energy   TEWEN  =      -909.23075819
  -Hartree energ DENC   =       -59.17814886
  -exchange      EXHF   =         0.00000000
  -V(xc)+E(xc)   XCENC  =       -67.67795488
  PAW double counting   =      3360.08409264    -3222.58721829
  entropy T*S    EENTRO =         0.00000000
  eigenvalues    EBANDS =        18.78317750
  atomic energy  EATOM  =       820.60640024
  Solvation  Ediel_sol  =         0.00000000
  ---------------------------------------------------
  free energy    TOTEN  =       -45.96441617 eV

  energy without entropy =      -45.96441617  energy(sigma->0) =      -45.96441617


--------------------------------------------------------------------------------------------------------




--------------------------------------- Iteration      1(  14)  ---------------------------------------


    POTLOK:  cpu time    0.0213: real time    0.0218
    SETDIJ:  cpu time    0.1912: real time    0.1912
    EDDIAG:  cpu time    0.1873: real time    0.1873
  RMM-DIIS:  cpu time    0.1032: real time    0.1032
    ORTHCH:  cpu time    0.0111: real time    0.0111
 BZINTS: Fermi energy:    5.627444;   32.000000 electrons
         Band energy: 0.187920E+02;  BLOECHL correction:   -0.000000
       DOS:  cpu time    0.0052: real time    0.0052
    --------------------------------------------
      LOOP:  cpu time    0.5195: real time    0.5199

 eigenvalue-minimisations  :  1487
 total energy-change (2. order) :-0.2391999E-05  (-0.1353901E-05)
 number of electron      31.9999999 magnetization       0.0000459
 augmentation part       -1.8306614 magnetization       0.0000280

 Free energy of the ion-electron system (eV)
  ---------------------------------------------------
  alpha Z        PSCENC =        13.23599366
  Ewald energy   TEWEN  =      -909.23075819
  -Hartree energ DENC   =       -59.18811715
  -exchange      EXHF   =         0.00000000
  -V(xc)+E(xc)   XCENC  =       -67.67648115
  PAW double counting   =      3355.77347828    -3218.27697958
  entropy T*S    EENTRO =         0.00000000
  eigenvalues    EBANDS =        18.79204533
  atomic energy  EATOM  =       820.60640024
  Solvation  Ediel_sol  =         0.00000000
  ---------------------------------------------------
  free energy    TOTEN  =       -45.96441856 eV

  energy without entropy =      -45.96441856  energy(sigma->0) =      -45.96441856


--------------------------------------------------------------------------------------------------------




 average (electrostatic) potential at core
  the test charge radii are     0.9892
  (the norm of the test charge is              1.0000)
       1 -83.2173       2 -83.2173       3 -83.2173       4 -83.2173       5 -83.2173
       6 -83.2173       7 -83.2173       8 -83.2173
 
 
 
 E-fermi :   5.6274     XC(G=0):  -9.4918     alpha+bet :-11.7881


 spin component 1

 k-point     1 :       0.0000    0.0000    0.0000
  band No.  band energies     occupation 
      1      -6.2520      1.00000
      2      -2.1497      1.00000
      3      -2.1497      1.00000
      4      -2.1497      1.00000
      5      -2.1497      1.00000
      6      -2.1497      1.00000
      7      -2.1497      1.00000
      8       2.7956      1.00000
      9       2.7956      1.00000
     10       2.7956      1.00000
     11       2.7956      1.00000
     12       2.7956      1.00000
     13       2.7956      1.00000
     14       5.6276      1.00000
     15       5.6276      1.00000
     16       5.6276      1.00000
     17       6.2481      0.00000
     18       6.2481      0.00000
     19       6.2481      0.00000
     20       6.2481      0.00000
     21       6.2481      0.00000
     22       6.2481      0.00000
     23       8.1384      0.00000
     24       8.1384      0.00000

 k-point     2 :       0.1667    0.0000    0.0000
  band No.  band energies     occupation 
      1      -6.1318      1.00000
      2      -3.3479      1.00000
      3      -2.1119      1.00000
      4      -2.1119      1.00000
      5      -2.1119      1.00000
      6      -2.1119      1.00000
      7      -0.8092      1.00000
      8       2.4849      1.00000
      9       2.4849      1.00000
     10       2.4849      1.00000
     11       2.4849      1.00000
     12       2.9042      1.00000
     13       2.9042      1.00000
     14       4.9186      1.00000
     15       5.1987      1.00000
     16       5.1987      1.00000
     17       6.1125      0.00000
     18       6.7108      0.00000
     19       6.8640      0.00000
     20       6.8640      0.00000
     21       6.8640      0.00000
     22       6.8640      0.00000
     23       7.8548      0.00000
     24       8.7140      0.00000

 k-point     3 :       0.3333    0.0000    0.0000
  band No.  band energies     occupation 
      1      -5.7728      1.00000
      2      -4.3669      1.00000
      3      -2.0307      1.00000
      4      -2.0307      1.00000
      5      -2.0307      1.00000
      6      -2.0307      1.00000
      7       0.6265      1.00000
      8       1.9960      1.00000
      9       1.9960      1.00000
     10       1.9960      1.00000
     11       1.9960      1.00000
     12       3.2263      1.00000
     13       3.2263      1.00000
     14       3.5728      1.00000
     15       4.4406      1.00000
     16       4.4406      1.00000
     17       6.2700      0.00000
     18       7.2578      0.00000
     19       7.5221      0.00000
     20       8.2850      0.00000
     21       8.2850      0.00000
     22       8.2850      0.00000
     23       8.2850      0.00000
     24       9.8530      0.00000

 k-point     4 :       0.5000    0.0000    0.0000
  band No.  band energies     occupation 
      1      -5.1809      1.00000
      2      -5.1809      1.00000
      3      -1.9870      1.00000
      4      -1.9870      1.00000
      5      -1.9870      1.00000
      6      -1.9870      1.00000
      7       1.7877      1.00000
      8       1.7877      1.00000
      9       1.7877      1.00000
     10       1.7877      1.00000
     11       2.1052      1.00000
     12       2.1052      1.00000
     13       3.7494      1.00000
     14       3.7494      1.00000
     15       3.7494      1.00000
     16       3.7494      1.00000
     17       6.6763      0.00000
     18       6.6763      0.00000
     19       8.6549      0.00000
     20       8.6549      0.00000
     21       9.8008      0.00000
     22       9.8009      0.00000
     23       9.8009      0.00000
     24       9.8010      0.00000

 k-point     5 :       0.1667    0.1667    0.0000
  band No.  band energies     occupation 
      1      -6.0125      1.00000
      2      -3.2712      1.00000
      3      -3.2712      1.00000
      4      -2.2889      1.00000
      5      -1.8897      1.00000
      6      -0.8451      1.00000
      7      -0.8451      1.00000
      8       1.7962      1.00000
      9       2.5188      1.00000
     10       2.5188      1.00000
     11       2.7165      1.00000
     12       2.7165      1.00000
     13       2.9871      1.00000
     14       4.0275      1.00000
     15       4.7640      1.00000
     16       5.5108      1.00000
     17       6.4701      0.00000
     18       6.7654      0.00000
     19       6.7654      0.00000
     20       7.2696      0.00000
     21       7.2696      0.00000
     22       8.0802      0.00000
     23       8.3855      0.00000
     24       8.4633      0.00000

 k-point     6 :       0.3333    0.1667    0.0000
  band No.  band energies     occupation 
      1      -5.6568      1.00000
      2      -4.2692      1.00000
      3      -3.0591      1.00000
      4      -2.4947      1.00000
      5      -1.5936      1.00000
      6      -0.9874      1.00000
      7       0.4537      1.00000
      8       1.3913      1.00000
      9       1.8717      1.00000
     10       2.4899      1.00000
     11       2.7995      1.00000
     12       2.8677      1.00000
     13       2.8940      1.00000
     14       3.2290      1.00000
     15       3.9962      1.00000
     16       4.9227      1.00000
     17       6.9388      0.00000
     18       7.2896      0.00000
     19       7.8936      0.00000
     20       8.0083      0.00000
     21       8.2221      0.00000
     22       8.6173      0.00000
     23       9.0722      0.00000
     24       9.7086      0.00000

 k-point     7 :       0.5000    0.1667    0.0000
  band No.  band energies     occupation 
      1      -5.0715      1.00000
      2      -5.0715      1.00000
      3      -2.7702      1.00000
      4      -2.7702      1.00000
      5      -1.2613      1.00000
      6      -1.2613      1.00000
      7       1.4321      1.00000
      8       1.4321      1.00000
      9       1.7084      1.00000
     10       1.7084      1.00000
     11       2.5596      1.00000
     12       2.5596      1.00000
     13       3.3051      1.00000
     14       3.3051      1.00000
     15       4.0080      1.00000
     16       4.0080      1.00000
     17       7.3397      0.00000
     18       7.3397      0.00000
     19       8.8597      0.00000
     20       8.8597      0.00000
     21       9.0466      0.00000
     22       9.0466      0.00000
     23      10.0053      0.00000
     24      10.0068      0.00000

 k-point     8 :       0.3333    0.3333    0.0000
  band No.  band energies     occupation 
      1      -5.3120      1.00000
      2      -3.9854      1.00000
      3      -3.9854      1.00000
      4      -3.0201      1.00000
      5      -1.1138      1.00000
      6       0.0015      1.00000
      7       0.0015      1.00000
      8       1.2286      1.00000
      9       1.9118      1.00000
     10       2.0681      1.00000
     11       2.0681      1.00000
     12       3.2182      1.00000
     13       3.3415      1.00000
     14       3.3415      1.00000
     15       3.5305      1.00000
     16       5.0672      1.00000
     17       7.1025      0.00000
     18       8.3957      0.00000
     19       8.3957      0.00000
     20       8.5679      0.00000
     21       9.1223      0.00000
     22       9.2423      0.00000
     23       9.2424      0.00000
     24       9.3813      0.00000

 k-point     9 :       0.5000    0.3333    0.0000
  band No.  band energies     occupation 
      1      -4.7483      1.00000
      2      -4.7483      1.00000
      3      -3.5476      1.00000
      4      -3.5476      1.00000
      5      -0.5660      1.00000
      6      -0.5660      1.00000
      7       0.9488      1.00000
      8       0.9488      1.00000
      9       1.4888      1.00000
     10       1.4888      1.00000
     11       2.5354      1.00000
     12       2.5354      1.00000
     13       3.5604      1.00000
     14       3.5604      1.00000
     15       4.3606      1.00000
     16       4.3606      1.00000
     17       8.0652      0.00000
     18       8.0652      0.00000
     19       8.7590      0.00000
     20       8.7590      0.00000
     21       8.8922      0.00000
     22       8.8922      0.00000
     23      10.1798      0.00000
     24      10.1847      0.00000

 k-point    10 :       0.5000    0.5000    0.0000
  band No.  band energies     occupation 
      1      -4.2285      1.00000
      2      -4.2285      1.00000
      3      -4.2285      1.00000
      4      -4.2285      1.00000
      5       0.1640      1.00000
      6       0.1640      1.00000
      7       0.1640      1.00000
      8       0.1640      1.00000
      9       1.8841      1.00000
     10       1.8841      1.00000
     11       1.8841      1.00000
     12       1.8841      1.00000
     13       4.3092      1.00000
     14       4.3092      1.00000
     15       4.3092      1.00000
     16       4.3092      1.00000
     17       7.9831      0.00000
     18       7.9831      0.00000
     19       7.9831      0.00000
     20       7.9831      0.00000
     21      10.3390      0.00000
     22      10.3407      0.00000
     23      10.3519      0.00000
     24      10.6256      0.00000

 k-point    11 :       0.1667    0.1667    0.1667
  band No.  band energies     occupation 
      1      -5.8944      1.00000
      2      -3.2146      1.00000
      3      -3.2146      1.00000
      4      -3.2146      1.00000
      5      -0.9111      1.00000
      6      -0.9111      1.00000
      7      -0.9111      1.00000
      8       2.0081      1.00000
      9       2.0081      1.00000
     10       2.0081      1.00000
     11       3.0914      1.00000
     12       3.0914      1.00000
     13       3.0914      1.00000
     14       3.2409      1.00000
     15       5.1794      1.00000
     16       5.1794      1.00000
     17       6.6016      0.00000
     18       6.6016      0.00000
     19       6.6016      0.00000
     20       7.8655      0.00000
     21       8.2523      0.00000
     22       8.2523      0.00000
     23       8.2523      0.00000
     24       8.7807      0.00000

 k-point    12 :       0.3333    0.1667    0.1667
  band No.  band energies     occupation 
      1      -5.5428      1.00000
      2      -4.1790      1.00000
      3      -3.0857      1.00000
      4      -3.0857      1.00000
      5      -1.0806      1.00000
      6      -1.0806      1.00000
      7       0.1870      1.00000
      8       1.6903      1.00000
      9       1.6903      1.00000
     10       2.1984      1.00000
     11       2.6468      1.00000
     12       3.0199      1.00000
     13       3.0199      1.00000
     14       3.3992      1.00000
     15       4.5266      1.00000
     16       4.6965      1.00000
     17       6.9734      0.00000
     18       7.4192      0.00000
     19       7.4192      0.00000
     20       7.9731      0.00000
     21       8.7586      0.00000
     22       8.7800      0.00000
     23       9.6290      0.00000
     24       9.8291      0.00000

 k-point    13 :       0.5000    0.1667    0.1667
  band No.  band energies     occupation 
      1      -4.9656      1.00000
      2      -4.9656      1.00000
      3      -3.0101      1.00000
      4      -3.0101      1.00000
      5      -1.1860      1.00000
      6      -1.1860      1.00000
      7       1.1986      1.00000
      8       1.1986      1.00000
      9       1.6289      1.00000
     10       1.6289      1.00000
     11       2.8766      1.00000
     12       2.8766      1.00000
     13       3.6331      1.00000
     14       3.6331      1.00000
     15       3.8925      1.00000
     16       3.8925      1.00000
     17       7.5103      0.00000
     18       7.5103      0.00000
     19       8.8938      0.00000
     20       8.8938      0.00000
     21       9.0858      0.00000
     22       9.0858      0.00000
     23       9.5791      0.00000
     24       9.5795      0.00000

 k-point    14 :       0.3333    0.3333    0.1667
  band No.  band energies     occupation 
      1      -5.2044      1.00000
      2      -3.9247      1.00000
      3      -3.9247      1.00000
      4      -3.2400      1.00000
      5      -1.1406      1.00000
      6      -0.3761      1.00000
      7      -0.3761      1.00000
      8       1.2341      1.00000
      9       1.7397      1.00000
     10       2.4096      1.00000
     11       2.4096      1.00000
     12       3.5120      1.00000
     13       3.5120      1.00000
     14       3.6167      1.00000
     15       3.9388      1.00000
     16       4.9499      1.00000
     17       7.2351      0.00000
     18       7.7836      0.00000
     19       7.7836      0.00000
     20       7.9465      0.00000
     21       9.0360      0.00000
     22       9.3004      0.00000
     23       9.7419      0.00000
     24       9.7421      0.00000

 k-point    15 :       0.5000    0.3333    0.1667
  band No.  band energies     occupation 
      1      -4.6551      1.00000
      2      -4.6551      1.00000
      3      -3.5668      1.00000
      4      -3.5668      1.00000
      5      -0.8906      1.00000
      6      -0.8906      1.00000
      7       0.3725      1.00000
      8       0.3725      1.00000
      9       2.0471      1.00000
     10       2.0471      1.00000
     11       3.1940      1.00000
     12       3.1940      1.00000
     13       3.6657      1.00000
     14       3.6657      1.00000
     15       4.3249      1.00000
     16       4.3249      1.00000
     17       8.1571      0.00000
     18       8.1571      0.00000
     19       8.1910      0.00000
     20       8.1910      0.00000
     21       8.9344      0.00000
     22       8.9344      0.00000
     23       9.2810      0.00000
     24       9.2810      0.00000

 k-point    16 :       0.5000    0.5000    0.1667
  band No.  band energies     occupation 
      1      -4.1669      1.00000
      2      -4.1669      1.00000
      3      -4.1669      1.00000
      4      -4.1669      1.00000
      5      -0.3568      1.00000
      6      -0.3568      1.00000
      7      -0.3568      1.00000
      8      -0.3568      1.00000
      9       2.5842      1.00000
     10       2.5842      1.00000
     11       2.5842      1.00000
     12       2.5842      1.00000
     13       4.3397      1.00000
     14       4.3397      1.00000
     15       4.3397      1.00000
     16       4.3397      1.00000
     17       7.9815      0.00000
     18       7.9815      0.00000
     19       7.9815      0.00000
     20       7.9815      0.00000
     21       9.6441      0.00000
     22       9.6455      0.00000
     23       9.6580      0.00000
     24       9.7458      0.00000

 k-point    17 :       0.3333    0.3333    0.3333
  band No.  band energies     occupation 
      1      -4.8888      1.00000
      2      -3.7856      1.00000
      3      -3.7856      1.00000
      4      -3.7856      1.00000
      5      -0.9506      1.00000
      6      -0.9506      1.00000
      7      -0.9506      1.00000
      8       0.3095      1.00000
      9       2.8521      1.00000
     10       2.8521      1.00000
     11       2.8521      1.00000
     12       3.8636      1.00000
     13       3.8636      1.00000
     14       3.8636      1.00000
     15       4.6343      1.00000
     16       4.6343      1.00000
     17       7.2636      0.00000
     18       7.5767      0.00000
     19       7.5767      0.00000
     20       7.5767      0.00000
     21       9.0735      0.00000
     22       9.0736      0.00000
     23       9.6361      0.00000
     24       9.6361      0.00000

 k-point    18 :       0.5000    0.3333    0.3333
  band No.  band energies     occupation 
      1      -4.3924      1.00000
      2      -4.3924      1.00000
      3      -3.7038      1.00000
      4      -3.7038      1.00000
      5      -1.2018      1.00000
      6      -1.2018      1.00000
      7      -0.4461      1.00000
      8      -0.4461      1.00000
      9       3.0304      1.00000
     10       3.0304      1.00000
     11       3.9903      1.00000
     12       3.9903      1.00000
     13       4.0503      1.00000
     14       4.0503      1.00000
     15       4.2305      1.00000
     16       4.2305      1.00000
     17       7.6428      0.00000
     18       7.6428      0.00000
     19       8.1039      0.00000
     20       8.1039      0.00000
     21       8.6661      0.00000
     22       8.6661      0.00000
     23       8.8199      0.00000
     24       8.8199      0.00000

 k-point    19 :       0.5000    0.5000    0.3333
  band No.  band energies     occupation 
      1      -4.0259      1.00000
      2      -4.0259      1.00000
      3      -4.0259      1.00000
      4      -4.0259      1.00000
      5      -1.0331      1.00000
      6      -1.0331      1.00000
      7      -1.0331      1.00000
      8      -1.0331      1.00000
      9       3.7525      1.00000
     10       3.7525      1.00000
     11       3.7525      1.00000
     12       3.7525      1.00000
     13       4.4041      1.00000
     14       4.4041      1.00000
     15       4.4041      1.00000
     16       4.4041      1.00000
     17       7.5858      0.00000
     18       7.5858      0.00000
     19       7.5858      0.00000
     20       7.5858      0.00000
     21       8.9380      0.00000
     22       8.9380      0.00000
     23       8.9384      0.00000
     24       8.9385      0.00000

 k-point    20 :       0.5000    0.5000    0.5000
  band No.  band energies     occupation 
      1      -3.9430      1.00000
      2      -3.9430      1.00000
      3      -3.9430      1.00000
      4      -3.9430      1.00000
      5      -1.3117      1.00000
      6      -1.3117      1.00000
      7      -1.3117      1.00000
      8      -1.3117      1.00000
      9       4.4382      1.00000
     10       4.4382      1.00000
     11       4.4382      1.00000
     12       4.4382      1.00000
     13       4.4382      1.00000
     14       4.4382      1.00000
     15       4.4382      1.00000
     16       4.4382      1.00000
     17       7.0363      0.00000
     18       7.0363      0.00000
     19       7.0363      0.00000
     20       7.0363      0.00000
     21       8.9075      0.00000
     22       8.9075      0.00000
     23       8.9075      0.00000
     24       8.9075      0.00000

[...]
      8       1.6904      1.00000
      9       1.6904      1.00000
     10       2.1984      1.00000
     11       2.6468      1.00000
     12       3.0199      1.00000
     13       3.0199      1.00000
     14       3.3991      1.00000
     15       4.5265      1.00000
     16       4.6965      1.00000
     17       6.9736      0.00000
     18       7.4193      0.00000
     19       7.4193      0.00000
     20       7.9731      0.00000
     21       8.7586      0.00000
     22       8.7801      0.00000
     23       9.6338      0.00000
     24       9.8292      0.00000

 k-point    13 :       0.5000    0.1667    0.1667
  band No.  band energies     occupation 
      1      -4.9656      1.00000
      2      -4.9656      1.00000
      3      -3.0102      1.00000
      4      -3.0102      1.00000
      5      -1.1861      1.00000
      6      -1.1861      1.00000
      7       1.1986      1.00000
      8       1.1986      1.00000
      9       1.6290      1.00000
     10       1.6290      1.00000
     11       2.8766      1.00000
     12       2.8766      1.00000
     13       3.6331      1.00000
     14       3.6331      1.00000
     15       3.8925      1.00000
     16       3.8925      1.00000
     17       7.5104      0.00000
     18       7.5104      0.00000
     19       8.8939      0.00000
     20       8.8939      0.00000
     21       9.0859      0.00000
     22       9.0859      0.00000
     23       9.5790      0.00000
     24       9.5793      0.00000

 k-point    14 :       0.3333    0.3333    0.1667
  band No.  band energies     occupation 
      1      -5.2044      1.00000
      2      -3.9247      1.00000
      3      -3.9247      1.00000
      4      -3.2401      1.00000
      5      -1.1406      1.00000
      6      -0.3761      1.00000
      7      -0.3761      1.00000
      8       1.2341      1.00000
      9       1.7397      1.00000
     10       2.4096      1.00000
     11       2.4096      1.00000
     12       3.5119      1.00000
     13       3.5119      1.00000
     14       3.6167      1.00000
     15       3.9387      1.00000
     16       4.9498      1.00000
     17       7.2353      0.00000
     18       7.7837      0.00000
     19       7.7837      0.00000
     20       7.9465      0.00000
     21       9.0361      0.00000
     22       9.3005      0.00000
     23       9.7419      0.00000
     24       9.7420      0.00000

 k-point    15 :       0.5000    0.3333    0.1667
  band No.  band energies     occupation 
      1      -4.6551      1.00000
      2      -4.6551      1.00000
      3      -3.5668      1.00000
      4      -3.5668      1.00000
      5      -0.8907      1.00000
      6      -0.8907      1.00000
      7       0.3724      1.00000
      8       0.3724      1.00000
      9       2.0471      1.00000
     10       2.0471      1.00000
     11       3.1940      1.00000
     12       3.1940      1.00000
     13       3.6656      1.00000
     14       3.6656      1.00000
     15       4.3248      1.00000
     16       4.3248      1.00000
     17       8.1571      0.00000
     18       8.1571      0.00000
     19       8.1911      0.00000
     20       8.1911      0.00000
     21       8.9345      0.00000
     22       8.9345      0.00000
     23       9.2811      0.00000
     24       9.2811      0.00000

 k-point    16 :       0.5000    0.5000    0.1667
  band No.  band energies     occupation 
      1      -4.1669      1.00000
      2      -4.1669      1.00000
      3      -4.1669      1.00000
      4      -4.1669      1.00000
      5      -0.3568      1.00000
      6      -0.3568      1.00000
      7      -0.3568      1.00000
      8      -0.3568      1.00000
      9       2.5842      1.00000
     10       2.5842      1.00000
     11       2.5842      1.00000
     12       2.5842      1.00000
     13       4.3396      1.00000
     14       4.3396      1.00000
     15       4.3396      1.00000
     16       4.3396      1.00000
     17       7.9815      0.00000
     18       7.9815      0.00000
     19       7.9815      0.00000
     20       7.9815      0.00000
     21       9.6442      0.00000
     22       9.6445      0.00000
     23       9.6455      0.00000
     24       9.6499      0.00000

 k-point    17 :       0.3333    0.3333    0.3333
  band No.  band energies     occupation 
      1      -4.8888      1.00000
      2      -3.7856      1.00000
      3      -3.7856      1.00000
      4      -3.7856      1.00000
      5      -0.9506      1.00000
      6      -0.9506      1.00000
      7      -0.9506      1.00000
      8       0.3095      1.00000
      9       2.8521      1.00000
     10       2.8521      1.00000
     11       2.8521      1.00000
     12       3.8635      1.00000
     13       3.8635      1.00000
     14       3.8635      1.00000
     15       4.6342      1.00000
     16       4.6342      1.00000
     17       7.2636      0.00000
     18       7.5768      0.00000
     19       7.5768      0.00000
     20       7.5768      0.00000
     21       9.0736      0.00000
     22       9.0740      0.00000
     23       9.6361      0.00000
     24       9.6361      0.00000

 k-point    18 :       0.5000    0.3333    0.3333
  band No.  band energies     occupation 
      1      -4.3924      1.00000
      2      -4.3924      1.00000
      3      -3.7039      1.00000
      4      -3.7039      1.00000
      5      -1.2018      1.00000
      6      -1.2018      1.00000
      7      -0.4461      1.00000
      8      -0.4461      1.00000
      9       3.0304      1.00000
     10       3.0304      1.00000
     11       3.9902      1.00000
     12       3.9902      1.00000
     13       4.0503      1.00000
     14       4.0503      1.00000
     15       4.2304      1.00000
     16       4.2304      1.00000
     17       7.6428      0.00000
     18       7.6428      0.00000
     19       8.1039      0.00000
     20       8.1039      0.00000
     21       8.6661      0.00000
     22       8.6661      0.00000
     23       8.8200      0.00000
     24       8.8200      0.00000

 k-point    19 :       0.5000    0.5000    0.3333
  band No.  band energies     occupation 
      1      -4.0259      1.00000
      2      -4.0259      1.00000
      3      -4.0259      1.00000
      4      -4.0259      1.00000
      5      -1.0331      1.00000
      6      -1.0331      1.00000
      7      -1.0331      1.00000
      8      -1.0331      1.00000
      9       3.7525      1.00000
     10       3.7525      1.00000
     11       3.7525      1.00000
     12       3.7525      1.00000
     13       4.4041      1.00000
     14       4.4041      1.00000
     15       4.4041      1.00000
     16       4.4041      1.00000
     17       7.5858      0.00000
     18       7.5858      0.00000
     19       7.5858      0.00000
     20       7.5858      0.00000
     21       8.9380      0.00000
     22       8.9380      0.00000
     23       8.9382      0.00000
     24       8.9386      0.00000

 k-point    20 :       0.5000    0.5000    0.5000
  band No.  band energies     occupation 
      1      -3.9431      1.00000
      2      -3.9431      1.00000
      3      -3.9431      1.00000
      4      -3.9431      1.00000
      5      -1.3117      1.00000
      6      -1.3117      1.00000
      7      -1.3117      1.00000
      8      -1.3117      1.00000
      9       4.4382      1.00000
     10       4.4382      1.00000
     11       4.4382      1.00000
     12       4.4382      1.00000
     13       4.4382      1.00000
     14       4.4382      1.00000
     15       4.4382      1.00000
     16       4.4382      1.00000
     17       7.0364      0.00000
     18       7.0364      0.00000
     19       7.0364      0.00000
     20       7.0364      0.00000
     21       8.9076      0.00000
     22       8.9076      0.00000
     23       8.9076      0.00000
     24       8.9076      0.00000


--------------------------------------------------------------------------------------------------------


 soft charge-density along one line, spin component           1
         0         1         2         3         4         5         6         7         8         9
 total charge-density along one line
 
 soft charge-density along one line, spin component           2
         0         1         2         3         4         5         6         7         8         9
 total charge-density along one line
 
 pseudopotential strength for first ion, spin component:           1
 18.420  25.698   0.000  -0.000  -0.000   0.000  -0.000   0.000
 25.698  35.857   0.000  -0.000   0.000   0.000  -0.000   0.000
  0.000   0.000   4.179   0.000  -0.000   7.785   0.000  -0.000
 -0.000  -0.000   0.000   4.179   0.000   0.000   7.785   0.000
 -0.000   0.000  -0.000   0.000   4.179  -0.000   0.000   7.785
  0.000   0.000   7.785   0.000  -0.000  14.515   0.000  -0.000
 -0.000  -0.000   0.000   7.785   0.000   0.000  14.515   0.000
  0.000   0.000  -0.000   0.000   7.785  -0.000   0.000  14.515
 pseudopotential strength for first ion, spin component:           2
 18.420  25.698   0.000  -0.000  -0.000   0.000  -0.000   0.000
 25.698  35.857   0.000  -0.000   0.000   0.000  -0.000   0.000
  0.000   0.000   4.179   0.000  -0.000   7.785   0.000  -0.000
 -0.000  -0.000   0.000   4.179   0.000   0.000   7.785   0.000
 -0.000   0.000  -0.000   0.000   4.179  -0.000   0.000   7.785
  0.000   0.000   7.785   0.000  -0.000  14.515   0.000  -0.000
 -0.000  -0.000   0.000   7.785   0.000   0.000  14.515   0.000
  0.000   0.000  -0.000   0.000   7.785  -0.000   0.000  14.515
 total augmentation occupancy for first ion, spin component:           1
  5.789  -2.203   0.000  -0.000   0.000  -0.000   0.000   0.000
 -2.203   0.950   0.000   0.000  -0.000  -0.000   0.000   0.000
 -0.000  -0.000   2.877   0.000  -0.000  -0.639  -0.000   0.000
 -0.000   0.000   0.000   2.877   0.000  -0.000  -0.639  -0.000
  0.000   0.000  -0.000   0.000   2.877   0.000  -0.000  -0.639
  0.000   0.000  -0.639  -0.000   0.000   0.150   0.000  -0.000
 -0.000  -0.000  -0.000  -0.639  -0.000   0.000   0.150   0.000
 -0.000  -0.000   0.000  -0.000  -0.639  -0.000   0.000   0.150
 total augmentation occupancy for first ion, spin component:           2
  0.001  -0.000  -0.000  -0.000  -0.000  -0.000  -0.000  -0.000
 -0.000   0.000  -0.000   0.000   0.000  -0.000  -0.000  -0.000
 -0.000  -0.000  -0.000  -0.000   0.000   0.000   0.000  -0.000
 -0.000   0.000  -0.000  -0.000  -0.000   0.000   0.000   0.000
 -0.000   0.000   0.000  -0.000  -0.000  -0.000   0.000   0.000
 -0.000  -0.000   0.000   0.000  -0.000  -0.000  -0.000   0.000
 -0.000  -0.000   0.000   0.000   0.000  -0.000  -0.000  -0.000
 -0.000  -0.000  -0.000   0.000   0.000   0.000  -0.000  -0.000


------------------------ aborting loop because EDIFF is reached ----------------------------------------


 


 total charge     
 
# of ion       s       p       d       tot
------------------------------------------
    1        0.752   0.927   0.000   1.680
    2        0.752   0.927   0.000   1.680
    3        0.752   0.927   0.000   1.680
    4        0.752   0.927   0.000   1.680
    5        0.752   0.927   0.000   1.680
    6        0.752   0.927   0.000   1.680
    7        0.752   0.927   0.000   1.680
    8        0.752   0.927   0.000   1.680
--------------------------------------------------
tot          6.018   7.419   0.000  13.437
 


 magnetization (x)
 
# of ion       s       p       d       tot
------------------------------------------
    1       -0.000  -0.000   0.000  -0.000
    2       -0.000  -0.000   0.000  -0.000
    3       -0.000  -0.000   0.000  -0.000
    4       -0.000  -0.000   0.000  -0.000
    5       -0.000  -0.000   0.000  -0.000
    6       -0.000  -0.000   0.000  -0.000
    7       -0.000  -0.000   0.000  -0.000
    8       -0.000  -0.000   0.000  -0.000
--------------------------------------------------
tot         -0.000  -0.000   0.000  -0.000
 
    CHARGE:  cpu time    0.0582: real time    0.0578
    FORLOC:  cpu time    0.0004: real time    0.0006
    FORNL :  cpu time    0.0251: real time    0.0252
    STRESS:  cpu time    0.0615: real time    0.0626
    FORCOR:  cpu time    0.0186: real time    0.0187
    FORHAR:  cpu time    0.0027: real time    0.0030
    MIXING:  cpu time    0.0008: real time    0.0008
    OFIELD:  cpu time    0.0000: real time    0.0001

  FORCE on cell =-STRESS in cart. coord.  units (eV):
  Direction    XX          YY          ZZ          XY          YZ          ZX
  --------------------------------------------------------------------------------------
  Alpha Z    13.23599    13.23599    13.23599
  Ewald    -303.07744  -303.07744  -303.07744    -0.00000     0.00000    -0.00000
  Hartree    19.72998    19.72998    19.72998     0.00000    -0.00000    -0.00000
  E(xc)    -101.81333  -101.81333  -101.81333     0.00000    -0.00000    -0.00000
  Local    -117.00281  -117.00281  -117.00281     0.00000    -0.00000    -0.00000
  n-local   309.24795   312.45472   306.12035    -2.47955    -2.08395    -1.14571
  augment   -46.04893   -46.04893   -46.04893     0.00000     0.00000    -0.00000
  Kinetic   217.27345   228.81247   227.33160    -3.13273    -4.64269    -1.97344
  Fock        0.00000     0.00000     0.00000     0.00000     0.00000     0.00000
  -------------------------------------------------------------------------------------
  Total      -1.22968    -1.22968    -1.22968     0.00000    -0.00000     0.00000
  in kB     -12.10389   -12.10389   -12.10389     0.00000    -0.00000     0.00000
  external pressure =      -12.10 kB  Pullay stress =        0.00 kB


 VOLUME and BASIS-vectors are now :
 -----------------------------------------------------------------------------
  energy-cutoff  :      680.00
  volume of cell :      162.77
      direct lattice vectors                 reciprocal lattice vectors
     5.460000000  0.000000000  0.000000000     0.183150183  0.000000000  0.000000000
    -0.000000000  5.460000000  0.000000000     0.000000000  0.183150183  0.000000000
     0.000000000  0.000000000  5.460000000    -0.000000000 -0.000000000  0.183150183

  length of vectors
     5.460000000  5.460000000  5.460000000     0.183150183  0.183150183  0.183150183


 FORCES acting on ions
    electron-ion (+dipol)            ewald-force                    non-local-force                 convergence-correction
 -----------------------------------------------------------------------------------------------
   -.455E-14 0.155E-14 -.253E-13   -.107E-13 0.355E-14 0.107E-13   -.310E-17 -.616E-17 0.222E-17   0.162E-14 -.726E-15 0.422E-14
   0.651E-15 0.121E-12 -.209E-12   -.260E-13 -.172E-13 -.178E-13   0.569E-17 0.505E-18 -.177E-16   0.164E-14 -.220E-14 0.336E-14
   -.390E-14 -.109E-13 -.170E-13   0.355E-14 0.107E-13 0.142E-13   0.271E-17 0.205E-16 0.224E-16   -.247E-15 0.135E-15 -.515E-14
   -.455E-14 -.743E-13 -.157E-13   -.119E-13 -.107E-13 -.137E-13   -.767E-17 -.107E-16 0.256E-18   0.174E-14 0.474E-14 -.128E-14
   -.586E-14 -.124E-14 0.232E-12   0.711E-14 0.107E-13 0.142E-13   0.382E-17 0.182E-17 0.161E-16   0.182E-14 -.118E-14 -.531E-14
   -.111E-13 0.129E-12 -.523E-12   -.710E-14 -.115E-13 -.137E-13   0.954E-17 0.397E-17 -.368E-17   0.396E-14 -.418E-14 -.100E-14
   0.651E-15 -.181E-12 0.424E-12   0.213E-13 0.178E-13 0.178E-13   0.134E-16 -.659E-17 -.480E-17   0.385E-14 -.267E-15 0.438E-14
   -.169E-13 0.272E-12 -.378E-12   0.708E-14 -.359E-14 -.107E-13   -.416E-17 -.133E-16 -.209E-16   0.412E-14 0.667E-14 0.398E-14
 -----------------------------------------------------------------------------------------------
   -.455E-13 0.257E-12 -.511E-12   -.166E-13 -.311E-15 0.918E-15   0.202E-16 -.986E-17 -.620E-17   0.185E-13 0.299E-14 0.320E-14
 
 
 POSITION                                       TOTAL-FORCE (eV/Angst)
 -----------------------------------------------------------------------------------
      0.00000      0.00000      2.73000         0.000000      0.000000      0.000000
      1.36500      4.09500      1.36500        -0.000000     -0.000000     -0.000000
     -0.00000      2.73000      0.00000         0.000000     -0.000000      0.000000
      1.36500      1.36500      4.09500        -0.000000     -0.000000     -0.000000
      2.73000      0.00000      0.00000         0.000000      0.000000      0.000000
      4.09500      4.09500      4.09500        -0.000000     -0.000000     -0.000000
      2.73000      2.73000      2.73000         0.000000      0.000000      0.000000
      4.09500      1.36500      1.36500        -0.000000      0.000000     -0.000000
 -----------------------------------------------------------------------------------
    total drift:                               -0.000000      0.000000     -0.000000


--------------------------------------------------------------------------------------------------------



  FREE ENERGIE OF THE ION-ELECTRON SYSTEM (eV)
  ---------------------------------------------------
  free  energy   TOTEN  =       -45.96441856 eV

  energy  without entropy=      -45.96441856  energy(sigma->0) =      -45.96441856
 


--------------------------------------------------------------------------------------------------------


    POTLOK:  cpu time    0.2125: real time    0.2125


--------------------------------------------------------------------------------------------------------


 stress matrix after NEB project (eV)
     -1.22968      0.00000      0.00000
      0.00000     -1.22968     -0.00000
     -0.00000     -0.00000     -1.22968
  FORCES: max atom, RMS     0.000000    0.000000
  FORCE total and by dimension    0.000000    0.000000
  Stress total and by dimension    2.129869    1.229680
     LOOP+:  cpu time   10.1422: real time   10.1748
    4ORBIT:  cpu time    0.0000: real time    0.0000
 


 total charge     
 
# of ion       s       p       d       tot
------------------------------------------
    1        0.752   0.927   0.000   1.680
    2        0.752   0.927   0.000   1.680
    3        0.752   0.927   0.000   1.680
    4        0.752   0.927   0.000   1.680
    5        0.752   0.927   0.000   1.680
    6        0.752   0.927   0.000   1.680
    7        0.752   0.927   0.000   1.680
    8        0.752   0.927   0.000   1.680
--------------------------------------------------
tot          6.018   7.419   0.000  13.437
 


 magnetization (x)
 
# of ion       s       p       d       tot
------------------------------------------
    1       -0.000  -0.000   0.000  -0.000
    2       -0.000  -0.000   0.000  -0.000
    3       -0.000  -0.000   0.000  -0.000
    4       -0.000  -0.000   0.000  -0.000
    5       -0.000  -0.000   0.000  -0.000
    6       -0.000  -0.000   0.000  -0.000
    7       -0.000  -0.000   0.000  -0.000
    8       -0.000  -0.000   0.000  -0.000
--------------------------------------------------
tot         -0.000  -0.000   0.000  -0.000
 
 BZINTS: Fermi energy:    5.627444;   32.000000 electrons
         Band energy: 0.187920E+02;  BLOECHL correction:   -0.000000

 total amount of memory used by VASP MPI-rank0    32061. kBytes
=======================================================================

   base      :      30000. kBytes
   nonl-proj :        202. kBytes
   fftplans  :        410. kBytes
   grid      :        860. kBytes
   one-center:          6. kBytes
   wavefun   :        583. kBytes
 
  
  
 General timing and accounting informations for this job:
 ========================================================
  
                  Total CPU time used (sec):       17.396
                            User time (sec):       16.238
                          System time (sec):        1.157
                         Elapsed time (sec):       18.866
  
                   Maximum memory used (kb):      267316.
                   Average memory used (kb):           0.
  
                          Minor page faults:        23587
                          Major page faults:            0
                 Voluntary context switches:         7479
