<?xml version="1.0" encoding="ISO-8859-1"?>
<modeling>
 <generator>
  <i name="program" type="string">vasp </i>
  <i name="version" type="string">6.1.2  </i>
  <i name="subversion" type="string">22Jul20 (build Dec 10 2020 10:33:42) complex                          parallel </i>
  <i name="platform" type="string">LinuxIFC </i>
  <i name="date" type="string">2022 08 31 </i>
  <i name="time" type="string">11:34:52 </i>
 </generator>
 <incar>
  <i type="string" name="PREC"> Accurate</i>
  <i type="string" name="ALGO"> Fast</i>
  <i type="int" name="ISPIN">     2</i>
  <i type="int" name="NELM">   200</i>
  <i name="EDIFF">      0.00001000</i>
  <i type="int" name="NSW">     0</i>
  <i name="ENCUT">    680.00000000</i>
  <i name="ENAUG">   1360.00000000</i>
  <v name="MAGMOM">      0.60000000      0.60000000      0.60000000      0.60000000      0.60000000      0.60000000      0.60000000      0.60000000</v>
  <i type="logical" name="LREAL"> F  </i>
  <i type="int" name="ISMEAR">    -5</i>
  <i name="SIGMA">      0.20000000</i>
  <i name="KSPACING">      0.22000000</i>
  <i type="logical" name="LWAVE"> F  </i>
  <i type="logical" name="LCHARG"> T  </i>
  <i type="logical" name="LVTOT"> T  </i>
  <i type="logical" name="LELF"> F  </i>
  <i type="logical" name="LASPH"> T  </i>
  <i type="int" name="NPAR">     4</i>
  <i type="logical" name="LAECHG"> T  </i>
  <i type="string" name="ALGO"> Fast</i>
  <i type="int" name="NELM">   200</i>
  <i type="string" name="GGA"> Ps</i>
  <i name="EDIFF">      0.00001000</i>
  <i type="logical" name="LASPH"> T  </i>
  <i type="logical" name="LMIXTAU"> T  </i>
  <i type="int" name="ISPIN">     2</i>
 </incar>
 <structure name="primitive_cell" >
  <crystal>
   <varray name="basis" >
    <v>       2.73000000       2.73000000       0.00000000 </v>
    <v>       2.73000000       0.00000000      -2.73000000 </v>
    <v>       0.00000000       2.73000000      -2.73000000 </v>
   </varray>
   <i name="volume">     40.69283400 </i>
   <varray name="rec_basis" >
    <v>       0.18315018       0.18315018       0.18315018 </v>
    <v>       0.18315018      -0.18315018      -0.18315018 </v>
    <v>      -0.18315018       0.18315018      -0.18315018 </v>
   </varray>
  </crystal>
  <varray name="positions" >
   <v>       0.50000000       0.50000000       0.50000000 </v>
   <v>       0.25000000       0.25000000       0.25000000 </v>
  </varray>
 </structure>
 <varray name="primitive_index" >
  <v type="int" >        1 </v>
  <v type="int" >        6 </v>
 </varray>
 <kpoints>
  <generation param="Gamma">
   <v type="int" name="divisions">       6        6        6 </v>
   <v name="usershift">      0.00000000       0.00000000       0.00000000 </v>
   <v name="genvec1">      0.16666667       0.00000000       0.00000000 </v>
   <v name="genvec2">      0.00000000       0.16666667       0.00000000 </v>
   <v name="genvec3">     -0.00000000      -0.00000000       0.16666667 </v>
   <v name="shift">      0.00000000       0.00000000       0.00000000 </v>
  </generation>
  <varray name="kpointlist" >
   <v>       0.00000000       0.00000000       0.00000000 </v>
   <v>       0.16666667       0.00000000       0.00000000 </v>
   <v>       0.33333333       0.00000000       0.00000000 </v>
   <v>       0.50000000       0.00000000       0.00000000 </v>
   <v>       0.16666667       0.16666667       0.00000000 </v>
   <v>       0.33333333       0.16666667       0.00000000 </v>
   <v>       0.50000000       0.16666667       0.00000000 </v>
   <v>       0.33333333       0.33333333       0.00000000 </v>
   <v>       0.50000000       0.33333333       0.00000000 </v>
   <v>       0.50000000       0.50000000       0.00000000 </v>
   <v>       0.16666667       0.16666667       0.16666667 </v>
   <v>       0.33333333       0.16666667       0.16666667 </v>
   <v>       0.50000000       0.16666667       0.16666667 </v>
   <v>       0.33333333       0.33333333       0.16666667 </v>
   <v>       0.50000000       0.33333333       0.16666667 </v>
   <v>       0.50000000       0.50000000       0.16666667 </v>
   <v>       0.33333333       0.33333333       0.33333333 </v>
   <v>       0.50000000       0.33333333       0.33333333 </v>
   <v>       0.50000000       0.50000000       0.33333333 </v>
   <v>       0.50000000       0.50000000       0.50000000 </v>
  </varray>
  <varray name="weights" >
   <v>       0.00462963 </v>
   <v>       0.02777778 </v>
   <v>       0.02777778 </v>
   <v>       0.01388889 </v>
   <v>       0.05555556 </v>
   <v>       0.11111111 </v>
   <v>       0.05555556 </v>
   <v>       0.05555556 </v>
   <v>       0.05555556 </v>
   <v>       0.01388889 </v>
   <v>       0.03703704 </v>
   <v>       0.11111111 </v>
   <v>       0.05555556 </v>
   <v>       0.11111111 </v>
   <v>       0.11111111 </v>
   <v>       0.02777778 </v>
   <v>       0.03703704 </v>
   <v>       0.05555556 </v>
   <v>       0.02777778 </v>
   <v>       0.00462963 </v>
  </varray>
  <varray name="tetrahedronlist"  type="int" >
   <v type="int" >       12        1        2        2        5 </v>
   <v type="int" >       12        2        2        5        5 </v>
   <v type="int" >       12        2        5        5       11 </v>
   <v type="int" >       12        2        3        5        6 </v>
   <v type="int" >       12        2        5        5        6 </v>
   <v type="int" >       12        5        5        6       11 </v>
   <v type="int" >       12        3        5        6        6 </v>
   <v type="int" >       24        5        6        6       12 </v>
   <v type="int" >       24        5        6       11       12 </v>
   <v type="int" >       12        3        4        6        7 </v>
   <v type="int" >       12        3        6        6        7 </v>
   <v type="int" >       12        6        6        7       12 </v>
   <v type="int" >       12        4        6        7        7 </v>
   <v type="int" >       12        6        7        7       13 </v>
   <v type="int" >       12        6        7       12       13 </v>
   <v type="int" >       12        5        6        8       11 </v>
   <v type="int" >       12        6        8       11       12 </v>
   <v type="int" >       12        8       11       12       14 </v>
   <v type="int" >       12        6        7        9       12 </v>
   <v type="int" >       12        6        8        9       12 </v>
   <v type="int" >       12        8        9       12       14 </v>
   <v type="int" >       12        7        9       12       13 </v>
   <v type="int" >       12        9       12       13       15 </v>
   <v type="int" >       12        9       12       14       15 </v>
   <v type="int" >       12        6        7        8       13 </v>
   <v type="int" >       12        7        8        9       13 </v>
   <v type="int" >       12        8        9       13       15 </v>
   <v type="int" >       12        6        8       12       13 </v>
   <v type="int" >       12        8       12       13       14 </v>
   <v type="int" >       12        8       13       14       15 </v>
   <v type="int" >       12        6        6        8       12 </v>
   <v type="int" >       12        6        8       12       14 </v>
   <v type="int" >       12        6       11       12       12 </v>
   <v type="int" >       12        6       12       12       14 </v>
   <v type="int" >       12        2        3        5       11 </v>
   <v type="int" >       12        3        5        6       11 </v>
   <v type="int" >       12        3        6       11       12 </v>
   <v type="int" >       12        8        9       10       14 </v>
   <v type="int" >       12        9       10       14       15 </v>
   <v type="int" >       12       10       14       15       16 </v>
   <v type="int" >       12        8        9        9       15 </v>
   <v type="int" >       12        9        9       10       15 </v>
   <v type="int" >       12        9       10       15       16 </v>
   <v type="int" >       12        8        9       14       15 </v>
   <v type="int" >       12        9       14       15       15 </v>
   <v type="int" >       12        9       15       15       16 </v>
   <v type="int" >       12        6        7        8       14 </v>
   <v type="int" >       12        7        8        9       14 </v>
   <v type="int" >       12        7        9       14       15 </v>
   <v type="int" >       12        6        7       12       14 </v>
   <v type="int" >       12        7       12       13       14 </v>
   <v type="int" >       12        7       13       14       15 </v>
   <v type="int" >       12        3        4        6       12 </v>
   <v type="int" >       12        4        6        7       12 </v>
   <v type="int" >       12        4        7       12       13 </v>
   <v type="int" >       12        8        9       10       16 </v>
   <v type="int" >       12        8        9       15       16 </v>
   <v type="int" >       12        8       14       15       16 </v>
   <v type="int" >       12        6        7        9       15 </v>
   <v type="int" >       12        6        8        9       15 </v>
   <v type="int" >       12        6        8       14       15 </v>
   <v type="int" >       12        6        7       13       15 </v>
   <v type="int" >       12        6       12       13       15 </v>
   <v type="int" >       12        6       12       14       15 </v>
   <v type="int" >       12        3        4        7       13 </v>
   <v type="int" >       12        3        6        7       13 </v>
   <v type="int" >       12        3        6       12       13 </v>
   <v type="int" >       12        5        6        8       14 </v>
   <v type="int" >       12        5        6       12       14 </v>
   <v type="int" >       12        5       11       12       14 </v>
   <v type="int" >       12        2        3        6       12 </v>
   <v type="int" >       12        2        5        6       12 </v>
   <v type="int" >       12        2        5       11       12 </v>
   <v type="int" >       12        1        2        5       11 </v>
   <v type="int" >       12       11       12       12       14 </v>
   <v type="int" >       12       12       12       14       14 </v>
   <v type="int" >       12       12       14       14       17 </v>
   <v type="int" >       12       12       13       14       15 </v>
   <v type="int" >       12       12       14       14       15 </v>
   <v type="int" >       12       14       14       15       17 </v>
   <v type="int" >       12       13       14       15       15 </v>
   <v type="int" >       24       14       15       15       18 </v>
   <v type="int" >       24       14       15       17       18 </v>
   <v type="int" >       12       14       15       16       17 </v>
   <v type="int" >       12       15       16       17       18 </v>
   <v type="int" >       12       16       17       18       19 </v>
   <v type="int" >       12       15       15       16       18 </v>
   <v type="int" >       12       15       16       18       19 </v>
   <v type="int" >       12       15       17       18       18 </v>
   <v type="int" >       12       15       18       18       19 </v>
   <v type="int" >       12       12       13       14       17 </v>
   <v type="int" >       12       13       14       15       17 </v>
   <v type="int" >       12       13       15       17       18 </v>
   <v type="int" >       12       14       15       16       19 </v>
   <v type="int" >       12       14       15       18       19 </v>
   <v type="int" >       12       14       17       18       19 </v>
   <v type="int" >       12       12       13       15       18 </v>
   <v type="int" >       12       12       14       15       18 </v>
   <v type="int" >       12       12       14       17       18 </v>
   <v type="int" >       12       11       12       14       17 </v>
   <v type="int" >       12       17       18       18       19 </v>
   <v type="int" >       12       18       18       19       19 </v>
   <v type="int" >       12       18       19       19       20 </v>
   <v type="int" >       12       17       18       19       20 </v>
  </varray>
  <i name="volumeweight">      0.00077160 </i>
 </kpoints>
 <parameters>
  <separator name="general" >
   <i type="string" name="SYSTEM">unknown system</i>
   <i type="logical" name="LCOMPAT"> F  </i>
  </separator>
  <separator name="electronic" >
   <i type="string" name="PREC">accura</i>
   <i name="ENMAX">    680.00000000</i>
   <i name="ENAUG">   1360.00000000</i>
   <i name="EDIFF">      0.00001000</i>
   <i type="int" name="IALGO">    68</i>
   <i type="int" name="IWAVPR">    10</i>
   <i type="int" name="NBANDS">    24</i>
   <i type="int" name="NBANDSLOW">    -1</i>
   <i type="int" name="NBANDSHIGH">    -1</i>
   <i name="NELECT">     32.00000000</i>
   <i type="int" name="TURBO">     0</i>
   <i type="int" name="IRESTART">     0</i>
   <i type="int" name="NREBOOT">     0</i>
   <i type="int" name="NMIN">     0</i>
   <i name="EREF">      0.00000000</i>
   <separator name="electronic smearing" >
    <i type="int" name="ISMEAR">    -5</i>
    <i name="SIGMA">      0.20000000</i>
    <i name="KSPACING">      0.22000000</i>
    <i type="logical" name="KGAMMA"> T  </i>
    <i type="logical" name="KBLOWUP"> T  </i>
   </separator>
   <separator name="electronic projectors" >
    <i type="logical" name="LREAL"> F  </i>
    <v name="ROPT">      0.00000000</v>
    <i type="int" name="LMAXPAW">  -100</i>
    <i type="int" name="LMAXMIX">     2</i>
    <i type="logical" name="NLSPLINE"> F  </i>
   </separator>
   <separator name="electronic startup" >
    <i type="int" name="ISTART">     0</i>
    <i type="int" name="ICHARG">     2</i>
    <i type="int" name="INIWAV">     1</i>
   </separator>
   <separator name="electronic spin" >
    <i type="int" name="ISPIN">     2</i>
    <i type="logical" name="LNONCOLLINEAR"> F  </i>
    <v name="MAGMOM">      0.60000000      0.60000000      0.60000000      0.60000000      0.60000000      0.60000000      0.60000000      0.60000000</v>
    <i name="NUPDOWN">     -1.00000000</i>
    <i type="logical" name="LSORBIT"> F  </i>
    <v name="SAXIS">      0.00000000      0.00000000      1.00000000</v>
    <i type="logical" name="LSPIRAL"> F  </i>
    <v name="QSPIRAL">      0.00000000      0.00000000      0.00000000</v>
    <i type="logical" name="LZEROZ"> F  </i>
   </separator>
   <separator name="electronic exchange-correlation" >
    <i type="logical" name="LASPH"> T  </i>
    <i type="logical" name="LMETAGGA"> F  </i>
   </separator>
   <separator name="electronic convergence" >
    <i type="int" name="NELM">   200</i>
    <i type="int" name="NELMDL">    -5</i>
    <i type="int" name="NELMIN">     2</i>
    <i name="ENINI">    680.00000000</i>
    <separator name="electronic convergence detail" >
     <i type="logical" name="LDIAG"> T  </i>
     <i type="logical" name="LSUBROT"> F  </i>
     <i name="WEIMIN">      0.00000000</i>
     <i name="EBREAK">      0.00000010</i>
     <i name="DEPER">      0.30000000</i>
     <i type="int" name="NRMM">     4</i>
     <i name="TIME">      0.40000000</i>
    </separator>
   </separator>
   <separator name="electronic mixer" >
    <i name="AMIX">      0.40000000</i>
    <i name="BMIX">      1.00000000</i>
    <i name="AMIN">      0.10000000</i>
    <i name="AMIX_MAG">      1.60000000</i>
    <i name="BMIX_MAG">      1.00000000</i>
    <separator name="electronic mixer details" >
     <i type="int" name="IMIX">     4</i>
     <i type="logical" name="MIXFIRST"> F  </i>
     <i type="int" name="MAXMIX">   -45</i>
     <i name="WC">    100.00000000</i>
     <i type="int" name="INIMIX">     1</i>
     <i type="int" name="MIXPRE">     1</i>
     <i type="int" name="MREMOVE">     5</i>
    </separator>
   </separator>
   <separator name="electronic dipolcorrection" >
    <i type="logical" name="LDIPOL"> F  </i>
    <i type="logical" name="LMONO"> F  </i>
    <i type="int" name="IDIPOL">     0</i>
    <i name="EPSILON">      1.00000000</i>
    <v name="DIPOL">   -100.00000000   -100.00000000   -100.00000000</v>
    <i name="EFIELD">      0.00000000</i>
   </separator>
  </separator>
  <separator name="grids" >
   <i type="int" name="NGX">    48</i>
   <i type="int" name="NGY">    48</i>
   <i type="int" name="NGZ">    48</i>
   <i type="int" name="NGXF">    96</i>
   <i type="int" name="NGYF">    96</i>
   <i type="int" name="NGZF">    96</i>
   <i type="logical" name="ADDGRID"> F  </i>
  </separator>
  <separator name="ionic" >
   <i type="int" name="NSW">     0</i>
   <i type="int" name="IBRION">    -1</i>
   <i type="int" name="MDALGO">     0</i>
   <i type="int" name="ISIF">     2</i>
   <i name="PSTRESS">      0.00000000</i>
   <i name="EDIFFG">      0.00010000</i>
   <i type="int" name="NFREE">     0</i>
   <i name="POTIM">      0.50000000</i>
   <i name="SMASS">     -3.00000000</i>
   <i name="SCALEE">      1.00000000</i>
  </separator>
  <separator name="ionic md" >
   <i name="TEBEG">      0.00010000</i>
   <i name="TEEND">      0.00010000</i>
   <i type="int" name="NBLOCK">     1</i>
   <i type="int" name="KBLOCK">     1</i>
   <i type="int" name="NPACO">   256</i>
   <i name="APACO">     16.00000000</i>
  </separator>
  <separator name="symmetry" >
   <i type="int" name="ISYM">     2</i>
   <i name="SYMPREC">      0.00001000</i>
  </separator>
  <separator name="dos" >
   <i type="int" name="LORBIT">    11</i>
   <v name="RWIGS">     -1.00000000</v>
   <i type="int" name="NEDOS">   301</i>
   <i name="EMIN">     10.00000000</i>
   <i name="EMAX">    -10.00000000</i>
   <i name="EFERMI">      0.00000000</i>
  </separator>
  <separator name="writing" >
   <i type="int" name="NWRITE">     2</i>
   <i type="logical" name="LWAVE"> F  </i>
   <i type="logical" name="LDOWNSAMPLE"> F  </i>
   <i type="logical" name="LCHARG"> T  </i>
   <i type="logical" name="LPARD"> F  </i>
   <i type="logical" name="LVTOT"> T  </i>
   <i type="logical" name="LVHAR"> F  </i>
   <i type="logical" name="LELF"> F  </i>
   <i type="logical" name="LOPTICS"> F  </i>
   <v name="STM">      0.00000000      0.00000000      0.00000000      0.00000000      0.00000000      0.00000000      0.00000000</v>
  </separator>
  <separator name="performance" >
   <i type="int" name="NPAR">     4</i>
   <i type="int" name="NSIM">     4</i>
   <i type="int" name="NBLK">    -1</i>
   <i type="logical" name="LPLANE"> T  </i>
   <i type="logical" name="LSCALAPACK"> T  </i>
   <i type="logical" name="LSCAAWARE"> F  </i>
   <i type="logical" name="LSCALU"> F  </i>
   <i type="logical" name="LASYNC"> F  </i>
   <i type="logical" name="LORBITALREAL"> F  </i>
  </separator>
  <separator name="miscellaneous" >
   <i type="int" name="IDIOT">     3</i>
   <i type="int" name="PHON_NSTRUCT">    -1</i>
   <i type="logical" name="LMUSIC"> F  </i>
   <v name="POMASS">     28.08500000</v>
   <v name="DARWINR">      0.00000000</v>
   <v name="DARWINV">      1.00000000</v>
   <i type="logical" name="LCORR"> T  </i>
  </separator>
  <i type="logical" name="GGA_COMPAT"> T  </i>
  <i type="logical" name="LBERRY"> F  </i>
  <i type="int" name="ICORELEVEL">     0</i>
  <i type="logical" name="LDAU"> F  </i>
  <i type="int" name="I_CONSTRAINED_M">     0</i>
  <separator name="electronic exchange-correlation" >
   <i type="string" name="GGA">PS</i>
   <i type="int" name="VOSKOWN">     0</i>
   <i type="logical" name="LHFCALC"> F  </i>
   <i type="string" name="PRECFOCK"></i>
   <i type="logical" name="LSYMGRAD"> F  </i>
   <i type="logical" name="LHFONE"> F  </i>
   <i type="logical" name="LRHFCALC"> F  </i>
   <i type="logical" name="LTHOMAS"> F  </i>
   <i type="logical" name="LMODELHF"> F  </i>
   <i type="logical" name="LFOCKACE"> F  </i>
   <i name="ENCUT4O">     -1.00000000</i>
   <i type="int" name="EXXOEP">     0</i>
   <i type="int" name="FOURORBIT">     0</i>
   <i name="AEXX">      0.00000000</i>
   <i name="HFALPHA">      0.00000000</i>
   <i name="MCALPHA">      0.00000000</i>
   <i name="ALDAX">      1.00000000</i>
   <i name="AGGAX">      1.00000000</i>
   <i name="ALDAC">      1.00000000</i>
   <i name="AGGAC">      1.00000000</i>
   <i type="int" name="NKREDX">     1</i>
   <i type="int" name="NKREDY">     1</i>
   <i type="int" name="NKREDZ">     1</i>
   <i type="logical" name="SHIFTRED"> F  </i>
   <i type="logical" name="ODDONLY"> F  </i>
   <i type="logical" name="EVENONLY"> F  </i>
   <i type="int" name="LMAXFOCK">     0</i>
   <i type="int" name="NMAXFOCKAE">     0</i>
   <i type="logical" name="LFOCKAEDFT"> F  </i>
   <i name="HFSCREEN">      0.00000000</i>
   <i name="HFSCREENC">      0.00000000</i>
   <i type="int" name="NBANDSGWLOW">     0</i>
  </separator>
  <separator name="vdW DFT" >
   <i type="logical" name="LUSE_VDW"> F  </i>
   <i name="Zab_VDW">     -0.84910000</i>
   <i name="PARAM1">      0.12340000</i>
   <i name="PARAM2">      1.00000000</i>
   <i name="PARAM3">      0.00000000</i>
  </separator>
  <separator name="model GW" >
   <i type="int" name="MODEL_GW">     0</i>
   <i name="MODEL_EPS0">     12.20785020</i>
   <i name="MODEL_ALPHA">      1.00000000</i>
  </separator>
  <separator name="linear response parameters" >
   <i type="logical" name="LEPSILON"> F  </i>
   <i type="logical" name="LRPA"> F  </i>
   <i type="logical" name="LNABLA"> F  </i>
   <i type="logical" name="LVEL"> F  </i>
   <i type="int" name="KINTER">     0</i>
   <i name="CSHIFT">      0.10000000</i>
   <i name="OMEGAMAX">     -1.00000000</i>
   <i name="DEG_THRESHOLD">      0.00200000</i>
   <i name="RTIME">     -0.10000000</i>
   <i name="WPLASMAI">      0.00000000</i>
   <v name="DFIELD">      0.00000000      0.00000000      0.00000000</v>
   <v name="WPLASMA">      0.00000000      0.00000000      0.00000000      0.00000000      0.00000000      0.00000000      0.00000000      0.00000000      0.00000000</v>
  </separator>
  <separator name="orbital magnetization" >
   <i type="logical" name="NUCIND"> F  </i>
   <v name="MAGPOS">      0.00000000      0.00000000      0.00000000</v>
   <i type="logical" name="LNICSALL"> T  </i>
   <i type="logical" name="ORBITALMAG"> F  </i>
   <i type="logical" name="LMAGBLOCH"> F  </i>
   <i type="logical" name="LCHIMAG"> F  </i>
   <i type="logical" name="LGAUGE"> T  </i>
   <i type="int" name="MAGATOM">     0</i>
   <v name="MAGDIPOL">      0.00000000      0.00000000      0.00000000</v>
   <v name="AVECCONST">      0.00000000      0.00000000      0.00000000</v>
  </separator>
  <separator name="response functions" >
   <i type="logical" name="LFINITE_TEMPERATURE"> F  </i>
   <i type="logical" name="LADDER"> F  </i>
   <i type="logical" name="LRPAFORCE"> F  </i>
   <i type="logical" name="LFXC"> F  </i>
   <i type="logical" name="LHARTREE"> T  </i>
   <i type="int" name="IBSE">     0</i>
   <v type="int" name="KPOINT">    -1     0     0     0</v>
   <i type="logical" name="LTCTC"> F  </i>
   <i type="logical" name="LTCTE"> F  </i>
   <i type="logical" name="LTETE"> F  </i>
   <i type="logical" name="LTRIPLET"> F  </i>
   <i type="logical" name="LFXCEPS"> F  </i>
   <i type="logical" name="LFXHEG"> F  </i>
   <i type="int" name="NATURALO">     2</i>
   <i type="logical" name="LHOLEGF"> F  </i>
   <i type="logical" name="L2ORDER"> F  </i>
   <i type="logical" name="LDMP1"> F  </i>
   <i type="logical" name="LMP2LT"> F  </i>
   <i type="logical" name="LSMP2LT"> F  </i>
   <i type="logical" name="LGWLF"> F  </i>
   <i name="ENCUTGW">     -2.00000000</i>
   <i name="ENCUTGWSOFT">     -2.00000000</i>
   <i name="ENCUTLF">     -1.00000000</i>
   <i type="logical" name="LESF_SPLINES"> F  </i>
   <i type="int" name="LMAXMP2">    -1</i>
   <i name="SCISSOR">      0.00000000</i>
   <i type="int" name="NOMEGA">     0</i>
   <i type="int" name="NOMEGAR">     0</i>
   <i type="int" name="NBANDSGW">    -1</i>
   <i type="int" name="NBANDSO">    -1</i>
   <i type="int" name="NBANDSV">    -1</i>
   <i type="int" name="NELM">   200</i>
   <i type="int" name="NELMHF">     1</i>
   <i type="int" name="DIM">     3</i>
   <i type="int" name="IESPILON">     4</i>
   <i type="int" name="ANTIRES">     0</i>
   <i name="OMEGAMAX">    -30.00000000</i>
   <i name="OMEGAMIN">    -30.00000000</i>
   <i name="OMEGATL">   -200.00000000</i>
   <i type="int" name="OMEGAGRID">     0</i>
   <i name="CSHIFT">     -0.10000000</i>
   <i type="logical" name="LSELFENERGY"> F  </i>
   <i type="logical" name="LSPECTRAL"> F  </i>
   <i type="logical" name="LSPECTRALGW"> F  </i>
   <i type="logical" name="LSINGLES"> F  </i>
   <i type="logical" name="LFERMIGW"> F  </i>
   <i type="logical" name="ODDONLYGW"> F  </i>
   <i type="logical" name="EVENONLYGW"> F  </i>
   <i type="int" name="NKREDLFX">     1</i>
   <i type="int" name="NKREDLFY">     1</i>
   <i type="int" name="NKREDLFZ">     1</i>
   <i type="int" name="MAXMEM">  2800</i>
   <i type="int" name="TELESCOPE">     0</i>
   <i type="int" name="NTAUPAR">    -1</i>
   <i type="int" name="NOMEGAPAR">    -1</i>
   <i name="LAMBDA">      1.00000000</i>
  </separator>
  <separator name="External order field" >
   <i name="OFIELD_KAPPA">      0.00000000</i>
   <v name="OFIELD_K">      0.00000000      0.00000000      0.00000000</v>
   <i name="OFIELD_Q6_NEAR">      0.00000000</i>
   <i name="OFIELD_Q6_FAR">      0.00000000</i>
   <i name="OFIELD_A">      0.00000000</i>
  </separator>
  <separator name="solvation model" >
   <i type="logical" name="LSOL"> F  </i>
  </separator>
 </parameters>
 <atominfo>
  <atoms>       8 </atoms>
  <types>       1 </types>
  <array name="atoms" >
   <dimension dim="1">ion</dimension>
   <field type="string">element</field>
   <field type="int">atomtype</field>
   <set>
    <rc><c>Si</c><c>   1</c></rc>
    <rc><c>Si</c><c>   1</c></rc>
    <rc><c>Si</c><c>   1</c></rc>
    <rc><c>Si</c><c>   1</c></rc>
    <rc><c>Si</c><c>   1</c></rc>
    <rc><c>Si</c><c>   1</c></rc>
    <rc><c>Si</c><c>   1</c></rc>
    <rc><c>Si</c><c>   1</c></rc>
   </set>
  </array>
  <array name="atomtypes" >
   <dimension dim="1">type</dimension>
   <field type="int">atomspertype</field>
   <field type="string">element</field>
   <field>mass</field>
   <field>valence</field>
   <field type="string">pseudopotential</field>
   <set>
    <rc><c>   8</c><c>Si</c><c>     28.08500000</c><c>      4.00000000</c><c>  PAW_PBE Si 05Jan2001                  </c></rc>
   </set>
  </array>
 </atominfo>
 <structure name="initialpos" >
  <crystal>
   <varray name="basis" >
    <v>       5.46000000       0.00000000       0.00000000 </v>
    <v>      -0.00000000       5.46000000       0.00000000 </v>
    <v>       0.00000000       0.00000000       5.46000000 </v>
   </varray>
   <i name="volume">    162.77133600 </i>
   <varray name="rec_basis" >
    <v>       0.18315018       0.00000000       0.00000000 </v>
    <v>       0.00000000       0.18315018       0.00000000 </v>
    <v>      -0.00000000      -0.00000000       0.18315018 </v>
   </varray>
  </crystal>
  <varray name="positions" >
   <v>       0.00000000       0.00000000       0.50000000 </v>
   <v>       0.25000000       0.75000000       0.25000000 </v>
   <v>       0.00000000       0.50000000       0.00000000 </v>
   <v>       0.25000000       0.25000000       0.75000000 </v>
   <v>       0.50000000       0.00000000       0.00000000 </v>
   <v>       0.75000000       0.75000000       0.75000000 </v>
   <v>       0.50000000       0.50000000       0.50000000 </v>
   <v>       0.75000000       0.25000000       0.25000000 </v>
  </varray>
 </structure>
 <calculation>
  <scstep>
   <time name="dav">    0.47    0.48</time>
   <time name="total">    0.70    0.71</time>
   <energy>
    <i name="alphaZ">     13.23599366 </i>
    <i name="ewald">   -909.23075819 </i>
    <i name="hartreedc">    -45.00218016 </i>
    <i name="XCdc">    -69.76117887 </i>
    <i name="pawpsdc">    699.59382407 </i>
    <i name="pawaedc">   -561.27664189 </i>
    <i name="eentropy">      0.00000000 </i>
    <i name="bandstr">    135.13002989 </i>
    <i name="atom">    820.60640024 </i>
    <i name="e_fr_energy">     83.29548875 </i>
    <i name="e_wo_entrp">     83.29548875 </i>
    <i name="e_0_energy">     83.29548875 </i>
   </energy>
  </scstep>
  <scstep>
   <time name="dav">    0.50    0.50</time>
   <time name="total">    0.51    0.51</time>
   <energy>
    <i name="e_fr_energy">    -39.87297489 </i>
    <i name="e_wo_entrp">    -39.87297489 </i>
    <i name="e_0_energy">    -39.87297489 </i>
   </energy>
  </scstep>
  <scstep>
   <time name="dav">    0.49    0.49</time>
   <time name="total">    0.50    0.50</time>
   <energy>
    <i name="e_fr_energy">    -45.95819961 </i>
    <i name="e_wo_entrp">    -45.95819961 </i>
    <i name="e_0_energy">    -45.95819961 </i>
   </energy>
  </scstep>
  <scstep>
   <time name="dav">    0.49    0.49</time>
   <time name="total">    0.50    0.50</time>
   <energy>
    <i name="e_fr_energy">    -46.06479204 </i>
    <i name="e_wo_entrp">    -46.06479204 </i>
    <i name="e_0_energy">    -46.06479204 </i>
   </energy>
  </scstep>
  <scstep>
   <time name="dav">    0.49    0.49</time>
   <time name="total">    0.56    0.56</time>
   <energy>
    <i name="e_fr_energy">    -46.06736006 </i>
    <i name="e_wo_entrp">    -46.06736006 </i>
    <i name="e_0_energy">    -46.06736006 </i>
   </energy>
  </scstep>
  <scstep>
   <time name="diag">    0.19    0.19</time>
   <time name="diis">    0.12    0.12</time>
   <time name="orth">    0.01    0.01</time>
   <time name="total">    0.60    0.60</time>
   <energy>
    <i name="e_fr_energy">    -46.19670186 </i>
    <i name="e_wo_entrp">    -46.19670186 </i>
    <i name="e_0_energy">    -46.19670186 </i>
   </energy>
  </scstep>
  <scstep>
   <time name="diag">    0.19    0.19</time>
   <time name="diis">    0.13    0.13</time>
   <time name="orth">    0.01    0.01</time>
   <time name="total">    0.60    0.60</time>
   <energy>
    <i name="e_fr_energy">    -45.94411738 </i>
    <i name="e_wo_entrp">    -45.94411738 </i>
    <i name="e_0_energy">    -45.94411738 </i>
   </energy>
  </scstep>
  <scstep>
   <time name="diag">    0.19    0.19</time>
   <time name="diis">    0.13    0.13</time>
   <time name="orth">    0.01    0.01</time>
   <time name="total">    0.61    0.61</time>
   <energy>
    <i name="e_fr_energy">    -45.95909715 </i>
    <i name="e_wo_entrp">    -45.95909715 </i>
    <i name="e_0_energy">    -45.95909715 </i>
   </energy>
  </scstep>
  <scstep>
   <time name="diag">    0.19    0.19</time>
   <time name="diis">    0.14    0.14</time>
   <time name="orth">    0.01    0.01</time>
   <time name="total">    0.61    0.62</time>
   <energy>
    <i name="e_fr_energy">    -45.96373905 </i>
    <i name="e_wo_entrp">    -45.96373905 </i>
    <i name="e_0_energy">    -45.96373905 </i>
   </energy>
  </scstep>
  <scstep>
   <time name="diag">    0.19    0.19</time>
   <time name="diis">    0.14    0.14</time>
   <time name="orth">    0.01    0.01</time>
   <time name="total">    0.61    0.62</time>
   <energy>
    <i name="e_fr_energy">    -45.96405202 </i>
    <i name="e_wo_entrp">    -45.96405202 </i>
    <i name="e_0_energy">    -45.96405202 </i>
   </energy>
  </scstep>
  <scstep>
   <time name="diag">    0.19    0.19</time>
   <time name="diis">    0.14    0.14</time>
   <time name="orth">    0.01    0.01</time>
   <time name="total">    0.61    0.62</time>
   <energy>
    <i name="e_fr_energy">    -45.96431520 </i>
    <i name="e_wo_entrp">    -45.96431520 </i>
    <i name="e_0_energy">    -45.96431520 </i>
   </energy>
  </scstep>
  <scstep>
   <time name="diag">    0.19    0.19</time>
   <time name="diis">    0.14    0.14</time>
   <time name="orth">    0.01    0.01</time>
   <time name="total">    0.61    0.61</time>
   <energy>
    <i name="e_fr_energy">    -45.96439783 </i>
    <i name="e_wo_entrp">    -45.96439783 </i>
    <i name="e_0_energy">    -45.96439783 </i>
   </energy>
  </scstep>
  <scstep>
   <time name="diag">    0.19    0.19</time>
   <time name="diis">    0.13    0.13</time>
   <time name="orth">    0.01    0.01</time>
   <time name="total">    0.61    0.61</time>
   <energy>
    <i name="e_fr_energy">    -45.96441617 </i>
    <i name="e_wo_entrp">    -45.96441617 </i>
    <i name="e_0_energy">    -45.96441617 </i>
   </energy>
  </scstep>
  <scstep>
   <time name="diag">    0.19    0.19</time>
   <time name="diis">    0.10    0.10</time>
   <time name="orth">    0.01    0.01</time>
   <time name="total">    0.52    0.52</time>
   <energy>
    <i name="alphaZ">     13.23599366 </i>
    <i name="ewald">   -909.23075819 </i>
    <i name="hartreedc">    -59.18811715 </i>
    <i name="XCdc">    -67.67648115 </i>
    <i name="pawpsdc">   3355.77347828 </i>
    <i name="pawaedc">  -3218.27697958 </i>
    <i name="eentropy">      0.00000000 </i>
    <i name="bandstr">     18.79204533 </i>
    <i name="atom">    820.60640024 </i>
    <i name="e_fr_energy">    -45.96441856 </i>
    <i name="e_wo_entrp">    -45.96441856 </i>
    <i name="e_0_energy">    -45.96441856 </i>
   </energy>
  </scstep>
  <structure>
   <crystal>
    <varray name="basis" >
     <v>       5.46000000       0.00000000       0.00000000 </v>
     <v>      -0.00000000       5.46000000       0.00000000 </v>
     <v>       0.00000000       0.00000000       5.46000000 </v>
    </varray>
    <i name="volume">    162.77133600 </i>
    <varray name="rec_basis" >
     <v>       0.18315018       0.00000000       0.00000000 </v>
     <v>       0.00000000       0.18315018       0.00000000 </v>
     <v>      -0.00000000      -0.00000000       0.18315018 </v>
    </varray>
   </crystal>
   <varray name="positions" >
    <v>       0.00000000       0.00000000       0.50000000 </v>
    <v>       0.25000000       0.75000000       0.25000000 </v>
    <v>       0.00000000       0.50000000       0.00000000 </v>
    <v>       0.25000000       0.25000000       0.75000000 </v>
    <v>       0.50000000       0.00000000       0.00000000 </v>
    <v>       0.75000000       0.75000000       0.75000000 </v>
    <v>       0.50000000       0.50000000       0.50000000 </v>
    <v>       0.75000000       0.25000000       0.25000000 </v>
   </varray>
  </structure>
  <varray name="forces" >
   <v>       0.00000000       0.00000000       0.00000000 </v>
   <v>      -0.00000000      -0.00000000      -0.00000000 </v>
   <v>       0.00000000      -0.00000000       0.00000000 </v>
   <v>      -0.00000000      -0.00000000      -0.00000000 </v>
   <v>       0.00000000       0.00000000       0.00000000 </v>
   <v>      -0.00000000      -0.00000000      -0.00000000 </v>
   <v>       0.00000000       0.00000000       0.00000000 </v>
   <v>      -0.00000000       0.00000000      -0.00000000 </v>
  </varray>
  <varray name="stress" >
   <v>     -12.10388613       0.00000000       0.00000000 </v>
   <v>       0.00000000     -12.10388613      -0.00000000 </v>
   <v>      -0.00000000      -0.00000000     -12.10388613 </v>
  </varray>
  <energy>
   <i name="e_fr_energy">    -45.96441856 </i>
   <i name="e_wo_entrp">    -45.96441856 </i>
   <i name="e_0_energy">    -45.96441856 </i>
  </energy>
  <time name="totalsc">   10.14   10.17</time>
  <eigenvalues>
   <array>
    <dimension dim="1">band</dimension>
    <dimension dim="2">kpoint</dimension>
    <dimension dim="3">spin</dimension>
    <field>eigene</field>
    <field>occ</field>
    <set>
     <set comment="spin 1">
      <set comment="kpoint 1">
       <r>   -6.2520    1.0000 </r>
       <r>   -2.1497    1.0000 </r>
       <r>   -2.1497    1.0000 </r>
       <r>   -2.1497    1.0000 </r>
       <r>   -2.1497    1.0000 </r>
       <r>   -2.1497    1.0000 </r>
       <r>   -2.1497    1.0000 </r>
       <r>    2.7956    1.0000 </r>
       <r>    2.7956    1.0000 </r>
       <r>    2.7956    1.0000 </r>
       <r>    2.7956    1.0000 </r>
       <r>    2.7956    1.0000 </r>
       <r>    2.7956    1.0000 </r>
       <r>    5.6276    1.0000 </r>
       <r>    5.6276    1.0000 </r>
       <r>    5.6276    1.0000 </r>
       <r>    6.2481    0.0000 </r>
       <r>    6.2481    0.0000 </r>
       <r>    6.2481    0.0000 </r>
       <r>    6.2481    0.0000 </r>
       <r>    6.2481    0.0000 </r>
       <r>    6.2481    0.0000 </r>
       <r>    8.1384    0.0000 </r>
       <r>    8.1384    0.0000 </r>
      </set>
      <set comment="kpoint 2">
       <r>   -6.1318    1.0000 </r>
       <r>   -3.3479    1.0000 </r>
       <r>   -2.1119    1.0000 </r>
       <r>   -2.1119    1.0000 </r>
       <r>   -2.1119    1.0000 </r>
       <r>   -2.1119    1.0000 </r>
       <r>   -0.8092    1.0000 </r>
       <r>    2.4849    1.0000 </r>
       <r>    2.4849    1.0000 </r>
       <r>    2.4849    1.0000 </r>
       <r>    2.4849    1.0000 </r>
       <r>    2.9042    1.0000 </r>
       <r>    2.9042    1.0000 </r>
       <r>    4.9186    1.0000 </r>
       <r>    5.1987    1.0000 </r>
       <r>    5.1987    1.0000 </r>
       <r>    6.1125    0.0000 </r>
       <r>    6.7108    0.0000 </r>
       <r>    6.8640    0.0000 </r>
       <r>    6.8640    0.0000 </r>
       <r>    6.8640    0.0000 </r>
       <r>    6.8640    0.0000 </r>
       <r>    7.8548    0.0000 </r>
       <r>    8.7140    0.0000 </r>
      </set>
      <set comment="kpoint 3">
       <r>   -5.7728    1.0000 </r>
       <r>   -4.3669    1.0000 </r>
       <r>   -2.0307    1.0000 </r>
       <r>   -2.0307    1.0000 </r>
       <r>   -2.0307    1.0000 </r>
       <r>   -2.0307    1.0000 </r>
       <r>    0.6265    1.0000 </r>
       <r>    1.9960    1.0000 </r>
       <r>    1.9960    1.0000 </r>
       <r>    1.9960    1.0000 </r>
       <r>    1.9960    1.0000 </r>
       <r>    3.2263    1.0000 </r>
       <r>    3.2263    1.0000 </r>
       <r>    3.5728    1.0000 </r>
       <r>    4.4406    1.0000 </r>
       <r>    4.4406    1.0000 </r>
       <r>    6.2700    0.0000 </r>
       <r>    7.2578    0.0000 </r>
       <r>    7.5221    0.0000 </r>
       <r>    8.2850    0.0000 </r>
       <r>    8.2850    0.0000 </r>
       <r>    8.2850    0.0000 </r>
       <r>    8.2850    0.0000 </r>
       <r>    9.8530    0.0000 </r>
      </set>
      <set comment="kpoint 4">
       <r>   -5.1809    1.0000 </r>
       <r>   -5.1809    1.0000 </r>
       <r>   -1.9870    1.0000 </r>
       <r>   -1.9870    1.0000 </r>
       <r>   -1.9870    1.0000 </r>
       <r>   -1.9870    1.0000 </r>
       <r>    1.7877    1.0000 </r>
       <r>    1.7877    1.0000 </r>
       <r>    1.7877    1.0000 </r>
       <r>    1.7877    1.0000 </r>
       <r>    2.1052    1.0000 </r>
       <r>    2.1052    1.0000 </r>
       <r>    3.7494    1.0000 </r>
       <r>    3.7494    1.0000 </r>
       <r>    3.7494    1.0000 </r>
       <r>    3.7494    1.0000 </r>
       <r>    6.6763    0.0000 </r>
       <r>    6.6763    0.0000 </r>
       <r>    8.6549    0.0000 </r>
       <r>    8.6549    0.0000 </r>
       <r>    9.8008    0.0000 </r>
       <r>    9.8009    0.0000 </r>
       <r>    9.8009    0.0000 </r>
       <r>    9.8010    0.0000 </r>
      </set>
      <set comment="kpoint 5">
       <r>   -6.0125    1.0000 </r>
       <r>   -3.2712    1.0000 </r>
       <r>   -3.2712    1.0000 </r>
       <r>   -2.2889    1.0000 </r>
       <r>   -1.8897    1.0000 </r>
       <r>   -0.8451    1.0000 </r>
       <r>   -0.8451    1.0000 </r>
       <r>    1.7962    1.0000 </r>
       <r>    2.5188    1.0000 </r>
       <r>    2.5188    1.0000 </r>
       <r>    2.7165    1.0000 </r>
       <r>    2.7165    1.0000 </r>
       <r>    2.9871    1.0000 </r>
       <r>    4.0275    1.0000 </r>
       <r>    4.7640    1.0000 </r>
       <r>    5.5108    1.0000 </r>
       <r>    6.4701    0.0000 </r>
       <r>    6.7654    0.0000 </r>
       <r>    6.7654    0.0000 </r>
       <r>    7.2696    0.0000 </r>
       <r>    7.2696    0.0000 </r>
       <r>    8.0802    0.0000 </r>
       <r>    8.3855    0.0000 </r>
       <r>    8.4633    0.0000 </r>
      </set>
      <set comment="kpoint 6">
       <r>   -5.6568    1.0000 </r>
       <r>   -4.2692    1.0000 </r>
       <r>   -3.0591    1.0000 </r>
       <r>   -2.4947    1.0000 </r>
       <r>   -1.5936    1.0000 </r>
       <r>   -0.9874    1.0000 </r>
       <r>    0.4537    1.0000 </r>
       <r>    1.3913    1.0000 </r>
       <r>    1.8717    1.0000 </r>
       <r>    2.4899    1.0000 </r>
       <r>    2.7995    1.0000 </r>
       <r>    2.8677    1.0000 </r>
       <r>    2.8940    1.0000 </r>
       <r>    3.2290    1.0000 </r>
       <r>    3.9962    1.0000 </r>
       <r>    4.9227    1.0000 </r>
       <r>    6.9388    0.0000 </r>
       <r>    7.2896    0.0000 </r>
       <r>    7.8936    0.0000 </r>
       <r>    8.0083    0.0000 </r>
       <r>    8.2221    0.0000 </r>
       <r>    8.6173    0.0000 </r>
       <r>    9.0722    0.0000 </r>
       <r>    9.7086    0.0000 </r>
      </set>
      <set comment="kpoint 7">
       <r>   -5.0715    1.0000 </r>
       <r>   -5.0715    1.0000 </r>
       <r>   -2.7702    1.0000 </r>
       <r>   -2.7702    1.0000 </r>
       <r>   -1.2613    1.0000 </r>
       <r>   -1.2613    1.0000 </r>
       <r>    1.4321    1.0000 </r>
       <r>    1.4321    1.0000 </r>
       <r>    1.7084    1.0000 </r>
       <r>    1.7084    1.0000 </r>
       <r>    2.5596    1.0000 </r>
       <r>    2.5596    1.0000 </r>
       <r>    3.3051    1.0000 </r>
       <r>    3.3051    1.0000 </r>
       <r>    4.0080    1.0000 </r>
       <r>    4.0080    1.0000 </r>
       <r>    7.3397    0.0000 </r>
       <r>    7.3397    0.0000 </r>
       <r>    8.8597    0.0000 </r>
       <r>    8.8597    0.0000 </r>
       <r>    9.0466    0.0000 </r>
       <r>    9.0466    0.0000 </r>
       <r>   10.0053    0.0000 </r>
       <r>   10.0068    0.0000 </r>
      </set>
      <set comment="kpoint 8">
       <r>   -5.3120    1.0000 </r>
       <r>   -3.9854    1.0000 </r>
       <r>   -3.9854    1.0000 </r>
       <r>   -3.0201    1.0000 </r>
       <r>   -1.1138    1.0000 </r>
       <r>    0.0015    1.0000 </r>
       <r>    0.0015    1.0000 </r>
       <r>    1.2286    1.0000 </r>
       <r>    1.9118    1.0000 </r>
       <r>    2.0681    1.0000 </r>
       <r>    2.0681    1.0000 </r>
       <r>    3.2182    1.0000 </r>
       <r>    3.3415    1.0000 </r>
       <r>    3.3415    1.0000 </r>
       <r>    3.5305    1.0000 </r>
       <r>    5.0672    1.0000 </r>
       <r>    7.1025    0.0000 </r>
       <r>    8.3957    0.0000 </r>
       <r>    8.3957    0.0000 </r>
       <r>    8.5679    0.0000 </r>
       <r>    9.1223    0.0000 </r>
       <r>    9.2423    0.0000 </r>
       <r>    9.2424    0.0000 </r>
       <r>    9.3813    0.0000 </r>
      </set>
      <set comment="kpoint 9">
       <r>   -4.7483    1.0000 </r>
       <r>   -4.7483    1.0000 </r>
       <r>   -3.5476    1.0000 </r>
       <r>   -3.5476    1.0000 </r>
       <r>   -0.5660    1.0000 </r>
       <r>   -0.5660    1.0000 </r>
       <r>    0.9488    1.0000 </r>
       <r>    0.9488    1.0000 </r>
       <r>    1.4888    1.0000 </r>
       <r>    1.4888    1.0000 </r>
       <r>    2.5354    1.0000 </r>
       <r>    2.5354    1.0000 </r>
       <r>    3.5604    1.0000 </r>
       <r>    3.5604    1.0000 </r>
       <r>    4.3606    1.0000 </r>
       <r>    4.3606    1.0000 </r>
       <r>    8.0652    0.0000 </r>
       <r>    8.0652    0.0000 </r>
       <r>    8.7590    0.0000 </r>
       <r>    8.7590    0.0000 </r>
       <r>    8.8922    0.0000 </r>
       <r>    8.8922    0.0000 </r>
       <r>   10.1798    0.0000 </r>
       <r>   10.1847    0.0000 </r>
      </set>
      <set comment="kpoint 10">
       <r>   -4.2285    1.0000 </r>
       <r>   -4.2285    1.0000 </r>
       <r>   -4.2285    1.0000 </r>
       <r>   -4.2285    1.0000 </r>
       <r>    0.1640    1.0000 </r>
       <r>    0.1640    1.0000 </r>
       <r>    0.1640    1.0000 </r>
       <r>    0.1640    1.0000 </r>
       <r>    1.8841    1.0000 </r>
       <r>    1.8841    1.0000 </r>
       <r>    1.8841    1.0000 </r>
       <r>    1.8841    1.0000 </r>
       <r>    4.3092    1.0000 </r>
       <r>    4.3092    1.0000 </r>
       <r>    4.3092    1.0000 </r>
       <r>    4.3092    1.0000 </r>
       <r>    7.9831    0.0000 </r>
       <r>    7.9831    0.0000 </r>
       <r>    7.9831    0.0000 </r>
       <r>    7.9831    0.0000 </r>
       <r>   10.3390    0.0000 </r>
       <r>   10.3407    0.0000 </r>
       <r>   10.3519    0.0000 </r>
       <r>   10.6256    0.0000 </r>
      </set>
      <set comment="kpoint 11">
       <r>   -5.8944    1.0000 </r>
       <r>   -3.2146    1.0000 </r>
       <r>   -3.2146    1.0000 </r>
       <r>   -3.2146    1.0000 </r>
       <r>   -0.9111    1.0000 </r>
       <r>   -0.9111    1.0000 </r>
       <r>   -0.9111    1.0000 </r>
       <r>    2.0081    1.0000 </r>
       <r>    2.0081    1.0000 </r>
       <r>    2.0081    1.0000 </r>
       <r>    3.0914    1.0000 </r>
       <r>    3.0914    1.0000 </r>
       <r>    3.0914    1.0000 </r>
       <r>    3.2409    1.0000 </r>
       <r>    5.1794    1.0000 </r>
       <r>    5.1794    1.0000 </r>
       <r>    6.6016    0.0000 </r>
       <r>    6.6016    0.0000 </r>
       <r>    6.6016    0.0000 </r>
       <r>    7.8655    0.0000 </r>
       <r>    8.2523    0.0000 </r>
       <r>    8.2523    0.0000 </r>
       <r>    8.2523    0.0000 </r>
       <r>    8.7807    0.0000 </r>
      </set>
      <set comment="kpoint 12">
       <r>   -5.5428    1.0000 </r>
       <r>   -4.1790    1.0000 </r>
       <r>   -3.0857    1.0000 </r>
       <r>   -3.0857    1.0000 </r>
       <r>   -1.0806    1.0000 </r>
       <r>   -1.0806    1.0000 </r>
       <r>    0.1870    1.0000 </r>
       <r>    1.6903    1.0000 </r>
       <r>    1.6903    1.0000 </r>
       <r>    2.1984    1.0000 </r>
       <r>    2.6468    1.0000 </r>
       <r>    3.0199    1.0000 </r>
       <r>    3.0199    1.0000 </r>
       <r>    3.3992    1.0000 </r>
       <r>    4.5266    1.0000 </r>
       <r>    4.6965    1.0000 </r>
       <r>    6.9734    0.0000 </r>
       <r>    7.4192    0.0000 </r>
       <r>    7.4192    0.0000 </r>
       <r>    7.9731    0.0000 </r>
       <r>    8.7586    0.0000 </r>
       <r>    8.7800    0.0000 </r>
       <r>    9.6290    0.0000 </r>
       <r>    9.8291    0.0000 </r>
      </set>
      <set comment="kpoint 13">
       <r>   -4.9656    1.0000 </r>
       <r>   -4.9656    1.0000 </r>
       <r>   -3.0101    1.0000 </r>
       <r>   -3.0101    1.0000 </r>
       <r>   -1.1860    1.0000 </r>
       <r>   -1.1860    1.0000 </r>
       <r>    1.1986    1.0000 </r>
       <r>    1.1986    1.0000 </r>
       <r>    1.6289    1.0000 </r>
       <r>    1.6289    1.0000 </r>
       <r>    2.8766    1.0000 </r>
       <r>    2.8766    1.0000 </r>
       <r>    3.6331    1.0000 </r>
       <r>    3.6331    1.0000 </r>
       <r>    3.8925    1.0000 </r>
       <r>    3.8925    1.0000 </r>
       <r>    7.5103    0.0000 </r>
       <r>    7.5103    0.0000 </r>
       <r>    8.8938    0.0000 </r>
       <r>    8.8938    0.0000 </r>
       <r>    9.0858    0.0000 </r>
       <r>    9.0858    0.0000 </r>
       <r>    9.5791    0.0000 </r>
       <r>    9.5795    0.0000 </r>
      </set>
      <set comment="kpoint 14">
       <r>   -5.2044    1.0000 </r>
       <r>   -3.9247    1.0000 </r>
       <r>   -3.9247    1.0000 </r>
       <r>   -3.2400    1.0000 </r>
       <r>   -1.1406    1.0000 </r>
       <r>   -0.3761    1.0000 </r>
       <r>   -0.3761    1.0000 </r>
       <r>    1.2341    1.0000 </r>
       <r>    1.7397    1.0000 </r>
       <r>    2.4096    1.0000 </r>
       <r>    2.4096    1.0000 </r>
       <r>    3.5120    1.0000 </r>
       <r>    3.5120    1.0000 </r>
       <r>    3.6167    1.0000 </r>
       <r>    3.9388    1.0000 </r>
       <r>    4.9499    1.0000 </r>
       <r>    7.2351    0.0000 </r>
       <r>    7.7836    0.0000 </r>
       <r>    7.7836    0.0000 </r>
       <r>    7.9465    0.0000 </r>
       <r>    9.0360    0.0000 </r>
       <r>    9.3004    0.0000 </r>
       <r>    9.7419    0.0000 </r>
       <r>    9.7421    0.0000 </r>
      </set>
      <set comment="kpoint 15">
       <r>   -4.6551    1.0000 </r>
       <r>   -4.6551    1.0000 </r>
       <r>   -3.5668    1.0000 </r>
       <r>   -3.5668    1.0000 </r>
       <r>   -0.8906    1.0000 </r>
       <r>   -0.8906    1.0000 </r>
       <r>    0.3725    1.0000 </r>
       <r>    0.3725    1.0000 </r>
       <r>    2.0471    1.0000 </r>
       <r>    2.0471    1.0000 </r>
       <r>    3.1940    1.0000 </r>
       <r>    3.1940    1.0000 </r>
       <r>    3.6657    1.0000 </r>
       <r>    3.6657    1.0000 </r>
       <r>    4.3249    1.0000 </r>
       <r>    4.3249    1.0000 </r>
       <r>    8.1571    0.0000 </r>
       <r>    8.1571    0.0000 </r>
       <r>    8.1910    0.0000 </r>
       <r>    8.1910    0.0000 </r>
       <r>    8.9344    0.0000 </r>
       <r>    8.9344    0.0000 </r>
       <r>    9.2810    0.0000 </r>
       <r>    9.2810    0.0000 </r>
      </set>
      <set comment="kpoint 16">
       <r>   -4.1669    1.0000 </r>
       <r>   -4.1669    1.0000 </r>
       <r>   -4.1669    1.0000 </r>
       <r>   -4.1669    1.0000 </r>
       <r>   -0.3568    1.0000 </r>
       <r>   -0.3568    1.0000 </r>
       <r>   -0.3568    1.0000 </r>
       <r>   -0.3568    1.0000 </r>
       <r>    2.5842    1.0000 </r>
       <r>    2.5842    1.0000 </r>
       <r>    2.5842    1.0000 </r>
       <r>    2.5842    1.0000 </r>
       <r>    4.3397    1.0000 </r>
       <r>    4.3397    1.0000 </r>
       <r>    4.3397    1.0000 </r>
       <r>    4.3397    1.0000 </r>
       <r>    7.9815    0.0000 </r>
       <r>    7.9815    0.0000 </r>
       <r>    7.9815    0.0000 </r>
       <r>    7.9815    0.0000 </r>
       <r>    9.6441    0.0000 </r>
       <r>    9.6455    0.0000 </r>
       <r>    9.6580    0.0000 </r>
       <r>    9.7458    0.0000 </r>
      </set>
      <set comment="kpoint 17">
       <r>   -4.8888    1.0000 </r>
       <r>   -3.7856    1.0000 </r>
       <r>   -3.7856    1.0000 </r>
       <r>   -3.7856    1.0000 </r>
       <r>   -0.9506    1.0000 </r>
       <r>   -0.9506    1.0000 </r>
       <r>   -0.9506    1.0000 </r>
       <r>    0.3095    1.0000 </r>
       <r>    2.8521    1.0000 </r>
       <r>    2.8521    1.0000 </r>
       <r>    2.8521    1.0000 </r>
       <r>    3.8636    1.0000 </r>
       <r>    3.8636    1.0000 </r>
       <r>    3.8636    1.0000 </r>
       <r>    4.6343    1.0000 </r>
       <r>    4.6343    1.0000 </r>
       <r>    7.2636    0.0000 </r>
       <r>    7.5767    0.0000 </r>
       <r>    7.5767    0.0000 </r>
       <r>    7.5767    0.0000 </r>
       <r>    9.0735    0.0000 </r>
       <r>    9.0736    0.0000 </r>
       <r>    9.6361    0.0000 </r>
       <r>    9.6361    0.0000 </r>
      </set>
      <set comment="kpoint 18">
       <r>   -4.3924    1.0000 </r>
       <r>   -4.3924    1.0000 </r>
       <r>   -3.7038    1.0000 </r>
       <r>   -3.7038    1.0000 </r>
       <r>   -1.2018    1.0000 </r>
       <r>   -1.2018    1.0000 </r>
       <r>   -0.4461    1.0000 </r>
       <r>   -0.4461    1.0000 </r>
       <r>    3.0304    1.0000 </r>
       <r>    3.0304    1.0000 </r>
       <r>    3.9903    1.0000 </r>
       <r>    3.9903    1.0000 </r>
       <r>    4.0503    1.0000 </r>
       <r>    4.0503    1.0000 </r>
       <r>    4.2305    1.0000 </r>
       <r>    4.2305    1.0000 </r>
       <r>    7.6428    0.0000 </r>
       <r>    7.6428    0.0000 </r>
       <r>    8.1039    0.0000 </r>
       <r>    8.1039    0.0000 </r>
       <r>    8.6661    0.0000 </r>
       <r>    8.6661    0.0000 </r>
       <r>    8.8199    0.0000 </r>
       <r>    8.8199    0.0000 </r>
      </set>
      <set comment="kpoint 19">
       <r>   -4.0259    1.0000 </r>
       <r>   -4.0259    1.0000 </r>
       <r>   -4.0259    1.0000 </r>
       <r>   -4.0259    1.0000 </r>
       <r>   -1.0331    1.0000 </r>
       <r>   -1.0331    1.0000 </r>
       <r>   -1.0331    1.0000 </r>
       <r>   -1.0331    1.0000 </r>
       <r>    3.7525    1.0000 </r>
       <r>    3.7525    1.0000 </r>
       <r>    3.7525    1.0000 </r>
       <r>    3.7525    1.0000 </r>
       <r>    4.4041    1.0000 </r>
       <r>    4.4041    1.0000 </r>
       <r>    4.4041    1.0000 </r>
       <r>    4.4041    1.0000 </r>
       <r>    7.5858    0.0000 </r>
       <r>    7.5858    0.0000 </r>
       <r>    7.5858    0.0000 </r>
       <r>    7.5858    0.0000 </r>
       <r>    8.9380    0.0000 </r>
       <r>    8.9380    0.0000 </r>
       <r>    8.9384    0.0000 </r>
       <r>    8.9385    0.0000 </r>
      </set>
      <set comment="kpoint 20">
       <r>   -3.9430    1.0000 </r>
       <r>   -3.9430    1.0000 </r>
       <r>   -3.9430    1.0000 </r>
       <r>   -3.9430    1.0000 </r>
       <r>   -1.3117    1.0000 </r>
       <r>   -1.3117    1.0000 </r>
       <r>   -1.3117    1.0000 </r>
       <r>   -1.3117    1.0000 </r>
       <r>    4.4382    1.0000 </r>
       <r>    4.4382    1.0000 </r>
       <r>    4.4382    1.0000 </r>
       <r>    4.4382    1.0000 </r>
       <r>    4.4382    1.0000 </r>
       <r>    4.4382    1.0000 </r>
       <r>    4.4382    1.0000 </r>
       <r>    4.4382    1.0000 </r>
       <r>    7.0363    0.0000 </r>
       <r>    7.0363    0.0000 </r>
       <r>    7.0363    0.0000 </r>
       <r>    7.0363    0.0000 </r>
       <r>    8.9075    0.0000 </r>
       <r>    8.9075    0.0000 </r>
       <r>    8.9075    0.0000 </r>
       <r>    8.9075    0.0000 </r>
      </set>
     </set>
     <set comment="spin 2">
      <set comment="kpoint 1">
       <r>   -6.2520    1.0000 </r>
       <r>   -2.1498    1.0000 </r>
       <r>   -2.1498    1.0000 </r>
       <r>   -2.1498    1.0000 </r>
       <r>   -2.1498    1.0000 </r>
       <r>   -2.1498    1.0000 </r>
       <r>   -2.1498    1.0000 </r>
       <r>    2.7956    1.0000 </r>
       <r>    2.7956    1.0000 </r>
       <r>    2.7956    1.0000 </r>
       <r>    2.7956    1.0000 </r>
       <r>    2.7956    1.0000 </r>
       <r>    2.7956    1.0000 </r>
       <r>    5.6275    1.0000 </r>
       <r>    5.6275    1.0000 </r>
       <r>    5.6275    1.0000 </r>
       <r>    6.2483    0.0000 </r>
       <r>    6.2483    0.0000 </r>
       <r>    6.2483    0.0000 </r>
       <r>    6.2483    0.0000 </r>
       <r>    6.2483    0.0000 </r>
       <r>    6.2483    0.0000 </r>
       <r>    8.1384    0.0000 </r>
       <r>    8.1384    0.0000 </r>
      </set>
      <set comment="kpoint 2">
       <r>   -6.1318    1.0000 </r>
       <r>   -3.3479    1.0000 </r>
       <r>   -2.1119    1.0000 </r>
       <r>   -2.1119    1.0000 </r>
       <r>   -2.1119    1.0000 </r>
       <r>   -2.1119    1.0000 </r>
       <r>   -0.8092    1.0000 </r>
       <r>    2.4849    1.0000 </r>
       <r>    2.4849    1.0000 </r>
       <r>    2.4849    1.0000 </r>
       <r>    2.4849    1.0000 </r>
       <r>    2.9042    1.0000 </r>
       <r>    2.9042    1.0000 </r>
       <r>    4.9185    1.0000 </r>
       <r>    5.1986    1.0000 </r>
       <r>    5.1986    1.0000 </r>
       <r>    6.1126    0.0000 </r>
       <r>    6.7109    0.0000 </r>
       <r>    6.8641    0.0000 </r>
       <r>    6.8641    0.0000 </r>
       <r>    6.8641    0.0000 </r>
       <r>    6.8641    0.0000 </r>
       <r>    7.8548    0.0000 </r>
       <r>    8.7140    0.0000 </r>
      </set>
      <set comment="kpoint 3">
       <r>   -5.7728    1.0000 </r>
       <r>   -4.3669    1.0000 </r>
       <r>   -2.0308    1.0000 </r>
       <r>   -2.0308    1.0000 </r>
       <r>   -2.0308    1.0000 </r>
       <r>   -2.0308    1.0000 </r>
       <r>    0.6264    1.0000 </r>
       <r>    1.9960    1.0000 </r>
       <r>    1.9960    1.0000 </r>
       <r>    1.9960    1.0000 </r>
       <r>    1.9960    1.0000 </r>
       <r>    3.2263    1.0000 </r>
       <r>    3.2263    1.0000 </r>
       <r>    3.5727    1.0000 </r>
       <r>    4.4406    1.0000 </r>
       <r>    4.4406    1.0000 </r>
       <r>    6.2701    0.0000 </r>
       <r>    7.2579    0.0000 </r>
       <r>    7.5223    0.0000 </r>
       <r>    8.2851    0.0000 </r>
       <r>    8.2851    0.0000 </r>
       <r>    8.2851    0.0000 </r>
       <r>    8.2851    0.0000 </r>
       <r>    9.7870    0.0000 </r>
      </set>
      <set comment="kpoint 4">
       <r>   -5.1809    1.0000 </r>
       <r>   -5.1809    1.0000 </r>
       <r>   -1.9871    1.0000 </r>
       <r>   -1.9871    1.0000 </r>
       <r>   -1.9871    1.0000 </r>
       <r>   -1.9871    1.0000 </r>
       <r>    1.7878    1.0000 </r>
       <r>    1.7878    1.0000 </r>
       <r>    1.7878    1.0000 </r>
       <r>    1.7878    1.0000 </r>
       <r>    2.1051    1.0000 </r>
       <r>    2.1051    1.0000 </r>
       <r>    3.7494    1.0000 </r>
       <r>    3.7494    1.0000 </r>
       <r>    3.7494    1.0000 </r>
       <r>    3.7494    1.0000 </r>
       <r>    6.6765    0.0000 </r>
       <r>    6.6765    0.0000 </r>
       <r>    8.6550    0.0000 </r>
       <r>    8.6550    0.0000 </r>
       <r>    9.8009    0.0000 </r>
       <r>    9.8010    0.0000 </r>
       <r>    9.8010    0.0000 </r>
       <r>    9.8011    0.0000 </r>
      </set>
      <set comment="kpoint 5">
       <r>   -6.0125    1.0000 </r>
       <r>   -3.2712    1.0000 </r>
       <r>   -3.2712    1.0000 </r>
       <r>   -2.2890    1.0000 </r>
       <r>   -1.8898    1.0000 </r>
       <r>   -0.8452    1.0000 </r>
       <r>   -0.8452    1.0000 </r>
       <r>    1.7962    1.0000 </r>
       <r>    2.5188    1.0000 </r>
       <r>    2.5188    1.0000 </r>
       <r>    2.7165    1.0000 </r>
       <r>    2.7165    1.0000 </r>
       <r>    2.9871    1.0000 </r>
       <r>    4.0274    1.0000 </r>
       <r>    4.7639    1.0000 </r>
       <r>    5.5107    1.0000 </r>
       <r>    6.4703    0.0000 </r>
       <r>    6.7655    0.0000 </r>
       <r>    6.7655    0.0000 </r>
       <r>    7.2697    0.0000 </r>
       <r>    7.2697    0.0000 </r>
       <r>    8.0804    0.0000 </r>
       <r>    8.4017    0.0000 </r>
       <r>    8.4716    0.0000 </r>
      </set>
      <set comment="kpoint 6">
       <r>   -5.6568    1.0000 </r>
       <r>   -4.2692    1.0000 </r>
       <r>   -3.0592    1.0000 </r>
       <r>   -2.4948    1.0000 </r>
       <r>   -1.5937    1.0000 </r>
       <r>   -0.9875    1.0000 </r>
       <r>    0.4536    1.0000 </r>
       <r>    1.3913    1.0000 </r>
       <r>    1.8717    1.0000 </r>
       <r>    2.4899    1.0000 </r>
       <r>    2.7995    1.0000 </r>
       <r>    2.8677    1.0000 </r>
       <r>    2.8939    1.0000 </r>
       <r>    3.2290    1.0000 </r>
       <r>    3.9962    1.0000 </r>
       <r>    4.9226    1.0000 </r>
       <r>    6.9389    0.0000 </r>
       <r>    7.2898    0.0000 </r>
       <r>    7.8936    0.0000 </r>
       <r>    8.0084    0.0000 </r>
       <r>    8.2221    0.0000 </r>
       <r>    8.6174    0.0000 </r>
       <r>    9.0722    0.0000 </r>
       <r>    9.7069    0.0000 </r>
      </set>
      <set comment="kpoint 7">
       <r>   -5.0715    1.0000 </r>
       <r>   -5.0715    1.0000 </r>
       <r>   -2.7702    1.0000 </r>
       <r>   -2.7702    1.0000 </r>
       <r>   -1.2613    1.0000 </r>
       <r>   -1.2613    1.0000 </r>
       <r>    1.4322    1.0000 </r>
       <r>    1.4322    1.0000 </r>
       <r>    1.7083    1.0000 </r>
       <r>    1.7083    1.0000 </r>
       <r>    2.5596    1.0000 </r>
       <r>    2.5596    1.0000 </r>
       <r>    3.3051    1.0000 </r>
       <r>    3.3051    1.0000 </r>
       <r>    4.0079    1.0000 </r>
       <r>    4.0079    1.0000 </r>
       <r>    7.3398    0.0000 </r>
       <r>    7.3398    0.0000 </r>
       <r>    8.8598    0.0000 </r>
       <r>    8.8598    0.0000 </r>
       <r>    9.0467    0.0000 </r>
       <r>    9.0467    0.0000 </r>
       <r>   10.0057    0.0000 </r>
       <r>   10.0064    0.0000 </r>
      </set>
      <set comment="kpoint 8">
       <r>   -5.3121    1.0000 </r>
       <r>   -3.9854    1.0000 </r>
       <r>   -3.9854    1.0000 </r>
       <r>   -3.0201    1.0000 </r>
       <r>   -1.1139    1.0000 </r>
       <r>    0.0014    1.0000 </r>
       <r>    0.0014    1.0000 </r>
       <r>    1.2287    1.0000 </r>
       <r>    1.9117    1.0000 </r>
       <r>    2.0681    1.0000 </r>
       <r>    2.0681    1.0000 </r>
       <r>    3.2182    1.0000 </r>
       <r>    3.3415    1.0000 </r>
       <r>    3.3415    1.0000 </r>
       <r>    3.5305    1.0000 </r>
       <r>    5.0671    1.0000 </r>
       <r>    7.1026    0.0000 </r>
       <r>    8.3958    0.0000 </r>
       <r>    8.3958    0.0000 </r>
       <r>    8.5679    0.0000 </r>
       <r>    9.1224    0.0000 </r>
       <r>    9.2424    0.0000 </r>
       <r>    9.2428    0.0000 </r>
       <r>    9.3817    0.0000 </r>
      </set>
      <set comment="kpoint 9">
       <r>   -4.7483    1.0000 </r>
       <r>   -4.7483    1.0000 </r>
       <r>   -3.5477    1.0000 </r>
       <r>   -3.5477    1.0000 </r>
       <r>   -0.5661    1.0000 </r>
       <r>   -0.5661    1.0000 </r>
       <r>    0.9488    1.0000 </r>
       <r>    0.9488    1.0000 </r>
       <r>    1.4889    1.0000 </r>
       <r>    1.4889    1.0000 </r>
       <r>    2.5354    1.0000 </r>
       <r>    2.5354    1.0000 </r>
       <r>    3.5604    1.0000 </r>
       <r>    3.5604    1.0000 </r>
       <r>    4.3606    1.0000 </r>
       <r>    4.3606    1.0000 </r>
       <r>    8.0653    0.0000 </r>
       <r>    8.0653    0.0000 </r>
       <r>    8.7590    0.0000 </r>
       <r>    8.7590    0.0000 </r>
       <r>    8.8923    0.0000 </r>
       <r>    8.8923    0.0000 </r>
       <r>   10.1776    0.0000 </r>
       <r>   10.1868    0.0000 </r>
      </set>
      <set comment="kpoint 10">
       <r>   -4.2285    1.0000 </r>
       <r>   -4.2285    1.0000 </r>
       <r>   -4.2285    1.0000 </r>
       <r>   -4.2285    1.0000 </r>
       <r>    0.1640    1.0000 </r>
       <r>    0.1640    1.0000 </r>
       <r>    0.1640    1.0000 </r>
       <r>    0.1640    1.0000 </r>
       <r>    1.8841    1.0000 </r>
       <r>    1.8841    1.0000 </r>
       <r>    1.8841    1.0000 </r>
       <r>    1.8841    1.0000 </r>
       <r>    4.3091    1.0000 </r>
       <r>    4.3091    1.0000 </r>
       <r>    4.3091    1.0000 </r>
       <r>    4.3091    1.0000 </r>
       <r>    7.9832    0.0000 </r>
       <r>    7.9832    0.0000 </r>
       <r>    7.9832    0.0000 </r>
       <r>    7.9832    0.0000 </r>
       <r>   10.3394    0.0000 </r>
       <r>   10.3425    0.0000 </r>
       <r>   10.3814    0.0000 </r>
       <r>   10.6436    0.0000 </r>
      </set>
      <set comment="kpoint 11">
       <r>   -5.8945    1.0000 </r>
       <r>   -3.2147    1.0000 </r>
       <r>   -3.2147    1.0000 </r>
       <r>   -3.2147    1.0000 </r>
       <r>   -0.9112    1.0000 </r>
       <r>   -0.9112    1.0000 </r>
       <r>   -0.9112    1.0000 </r>
       <r>    2.0081    1.0000 </r>
       <r>    2.0081    1.0000 </r>
       <r>    2.0081    1.0000 </r>
       <r>    3.0913    1.0000 </r>
       <r>    3.0913    1.0000 </r>
       <r>    3.0913    1.0000 </r>
       <r>    3.2408    1.0000 </r>
       <r>    5.1793    1.0000 </r>
       <r>    5.1793    1.0000 </r>
       <r>    6.6017    0.0000 </r>
       <r>    6.6017    0.0000 </r>
       <r>    6.6017    0.0000 </r>
       <r>    7.8655    0.0000 </r>
       <r>    8.2524    0.0000 </r>
       <r>    8.2524    0.0000 </r>
       <r>    8.2524    0.0000 </r>
       <r>    8.7807    0.0000 </r>
      </set>
      <set comment="kpoint 12">
       <r>   -5.5428    1.0000 </r>
       <r>   -4.1790    1.0000 </r>
       <r>   -3.0857    1.0000 </r>
       <r>   -3.0857    1.0000 </r>
       <r>   -1.0806    1.0000 </r>
       <r>   -1.0806    1.0000 </r>
       <r>    0.1869    1.0000 </r>
       <r>    1.6904    1.0000 </r>
       <r>    1.6904    1.0000 </r>
       <r>    2.1984    1.0000 </r>
       <r>    2.6468    1.0000 </r>
       <r>    3.0199    1.0000 </r>
       <r>    3.0199    1.0000 </r>
       <r>    3.3991    1.0000 </r>
       <r>    4.5265    1.0000 </r>
       <r>    4.6965    1.0000 </r>
       <r>    6.9736    0.0000 </r>
       <r>    7.4193    0.0000 </r>
       <r>    7.4193    0.0000 </r>
       <r>    7.9731    0.0000 </r>
       <r>    8.7586    0.0000 </r>
       <r>    8.7801    0.0000 </r>
       <r>    9.6338    0.0000 </r>
       <r>    9.8292    0.0000 </r>
      </set>
      <set comment="kpoint 13">
       <r>   -4.9656    1.0000 </r>
       <r>   -4.9656    1.0000 </r>
       <r>   -3.0102    1.0000 </r>
       <r>   -3.0102    1.0000 </r>
       <r>   -1.1861    1.0000 </r>
       <r>   -1.1861    1.0000 </r>
       <r>    1.1986    1.0000 </r>
       <r>    1.1986    1.0000 </r>
       <r>    1.6290    1.0000 </r>
       <r>    1.6290    1.0000 </r>
       <r>    2.8766    1.0000 </r>
       <r>    2.8766    1.0000 </r>
       <r>    3.6331    1.0000 </r>
       <r>    3.6331    1.0000 </r>
       <r>    3.8925    1.0000 </r>
       <r>    3.8925    1.0000 </r>
       <r>    7.5104    0.0000 </r>
       <r>    7.5104    0.0000 </r>
       <r>    8.8939    0.0000 </r>
       <r>    8.8939    0.0000 </r>
       <r>    9.0859    0.0000 </r>
       <r>    9.0859    0.0000 </r>
       <r>    9.5790    0.0000 </r>
       <r>    9.5793    0.0000 </r>
      </set>
      <set comment="kpoint 14">
       <r>   -5.2044    1.0000 </r>
       <r>   -3.9247    1.0000 </r>
       <r>   -3.9247    1.0000 </r>
       <r>   -3.2401    1.0000 </r>
       <r>   -1.1406    1.0000 </r>
       <r>   -0.3761    1.0000 </r>
       <r>   -0.3761    1.0000 </r>
       <r>    1.2341    1.0000 </r>
       <r>    1.7397    1.0000 </r>
       <r>    2.4096    1.0000 </r>
       <r>    2.4096    1.0000 </r>
       <r>    3.5119    1.0000 </r>
       <r>    3.5119    1.0000 </r>
       <r>    3.6167    1.0000 </r>
       <r>    3.9387    1.0000 </r>
       <r>    4.9498    1.0000 </r>
       <r>    7.2353    0.0000 </r>
       <r>    7.7837    0.0000 </r>
       <r>    7.7837    0.0000 </r>
       <r>    7.9465    0.0000 </r>
       <r>    9.0361    0.0000 </r>
       <r>    9.3005    0.0000 </r>
       <r>    9.7419    0.0000 </r>
       <r>    9.7420    0.0000 </r>
      </set>
      <set comment="kpoint 15">
       <r>   -4.6551    1.0000 </r>
       <r>   -4.6551    1.0000 </r>
       <r>   -3.5668    1.0000 </r>
       <r>   -3.5668    1.0000 </r>
       <r>   -0.8907    1.0000 </r>
       <r>   -0.8907    1.0000 </r>
       <r>    0.3724    1.0000 </r>
       <r>    0.3724    1.0000 </r>
       <r>    2.0471    1.0000 </r>
       <r>    2.0471    1.0000 </r>
       <r>    3.1940    1.0000 </r>
       <r>    3.1940    1.0000 </r>
       <r>    3.6656    1.0000 </r>
       <r>    3.6656    1.0000 </r>
       <r>    4.3248    1.0000 </r>
       <r>    4.3248    1.0000 </r>
       <r>    8.1571    0.0000 </r>
       <r>    8.1571    0.0000 </r>
       <r>    8.1911    0.0000 </r>
       <r>    8.1911    0.0000 </r>
       <r>    8.9345    0.0000 </r>
       <r>    8.9345    0.0000 </r>
       <r>    9.2811    0.0000 </r>
       <r>    9.2811    0.0000 </r>
      </set>
      <set comment="kpoint 16">
       <r>   -4.1669    1.0000 </r>
       <r>   -4.1669    1.0000 </r>
       <r>   -4.1669    1.0000 </r>
       <r>   -4.1669    1.0000 </r>
       <r>   -0.3568    1.0000 </r>
       <r>   -0.3568    1.0000 </r>
       <r>   -0.3568    1.0000 </r>
       <r>   -0.3568    1.0000 </r>
       <r>    2.5842    1.0000 </r>
       <r>    2.5842    1.0000 </r>
       <r>    2.5842    1.0000 </r>
       <r>    2.5842    1.0000 </r>
       <r>    4.3396    1.0000 </r>
       <r>    4.3396    1.0000 </r>
       <r>    4.3396    1.0000 </r>
       <r>    4.3396    1.0000 </r>
       <r>    7.9815    0.0000 </r>
       <r>    7.9815    0.0000 </r>
       <r>    7.9815    0.0000 </r>
       <r>    7.9815    0.0000 </r>
       <r>    9.6442    0.0000 </r>
       <r>    9.6445    0.0000 </r>
       <r>    9.6455    0.0000 </r>
       <r>    9.6499    0.0000 </r>
      </set>
      <set comment="kpoint 17">
       <r>   -4.8888    1.0000 </r>
       <r>   -3.7856    1.0000 </r>
       <r>   -3.7856    1.0000 </r>
       <r>   -3.7856    1.0000 </r>
       <r>   -0.9506    1.0000 </r>
       <r>   -0.9506    1.0000 </r>
       <r>   -0.9506    1.0000 </r>
       <r>    0.3095    1.0000 </r>
       <r>    2.8521    1.0000 </r>
       <r>    2.8521    1.0000 </r>
       <r>    2.8521    1.0000 </r>
       <r>    3.8635    1.0000 </r>
       <r>    3.8635    1.0000 </r>
       <r>    3.8635    1.0000 </r>
       <r>    4.6342    1.0000 </r>
       <r>    4.6342    1.0000 </r>
       <r>    7.2636    0.0000 </r>
       <r>    7.5768    0.0000 </r>
       <r>    7.5768    0.0000 </r>
       <r>    7.5768    0.0000 </r>
       <r>    9.0736    0.0000 </r>
       <r>    9.0740    0.0000 </r>
       <r>    9.6361    0.0000 </r>
       <r>    9.6361    0.0000 </r>
      </set>
      <set comment="kpoint 18">
       <r>   -4.3924    1.0000 </r>
       <r>   -4.3924    1.0000 </r>
       <r>   -3.7039    1.0000 </r>
       <r>   -3.7039    1.0000 </r>
       <r>   -1.2018    1.0000 </r>
       <r>   -1.2018    1.0000 </r>
       <r>   -0.4461    1.0000 </r>
       <r>   -0.4461    1.0000 </r>
       <r>    3.0304    1.0000 </r>
       <r>    3.0304    1.0000 </r>
       <r>    3.9902    1.0000 </r>
       <r>    3.9902    1.0000 </r>
       <r>    4.0503    1.0000 </r>
       <r>    4.0503    1.0000 </r>
       <r>    4.2304    1.0000 </r>
       <r>    4.2304    1.0000 </r>
       <r>    7.6428    0.0000 </r>
       <r>    7.6428    0.0000 </r>
       <r>    8.1039    0.0000 </r>
       <r>    8.1039    0.0000 </r>
       <r>    8.6661    0.0000 </r>
       <r>    8.6661    0.0000 </r>
       <r>    8.8200    0.0000 </r>
       <r>    8.8200    0.0000 </r>
      </set>
      <set comment="kpoint 19">
       <r>   -4.0259    1.0000 </r>
       <r>   -4.0259    1.0000 </r>
       <r>   -4.0259    1.0000 </r>
       <r>   -4.0259    1.0000 </r>
       <r>   -1.0331    1.0000 </r>
       <r>   -1.0331    1.0000 </r>
       <r>   -1.0331    1.0000 </r>
       <r>   -1.0331    1.0000 </r>
       <r>    3.7525    1.0000 </r>
       <r>    3.7525    1.0000 </r>
       <r>    3.7525    1.0000 </r>
       <r>    3.7525    1.0000 </r>
       <r>    4.4041    1.0000 </r>
       <r>    4.4041    1.0000 </r>
       <r>    4.4041    1.0000 </r>
       <r>    4.4041    1.0000 </r>
       <r>    7.5858    0.0000 </r>
       <r>    7.5858    0.0000 </r>
       <r>    7.5858    0.0000 </r>
       <r>    7.5858    0.0000 </r>
       <r>    8.9380    0.0000 </r>
       <r>    8.9380    0.0000 </r>
       <r>    8.9382    0.0000 </r>
       <r>    8.9386    0.0000 </r>
      </set>
      <set comment="kpoint 20">
       <r>   -3.9431    1.0000 </r>
       <r>   -3.9431    1.0000 </r>
       <r>   -3.9431    1.0000 </r>
       <r>   -3.9431    1.0000 </r>
       <r>   -1.3117    1.0000 </r>
       <r>   -1.3117    1.0000 </r>
       <r>   -1.3117    1.0000 </r>
       <r>   -1.3117    1.0000 </r>
       <r>    4.4382    1.0000 </r>
       <r>    4.4382    1.0000 </r>
       <r>    4.4382    1.0000 </r>
       <r>    4.4382    1.0000 </r>
       <r>    4.4382    1.0000 </r>
       <r>    4.4382    1.0000 </r>
       <r>    4.4382    1.0000 </r>
       <r>    4.4382    1.0000 </r>
       <r>    7.0364    0.0000 </r>
       <r>    7.0364    0.0000 </r>
       <r>    7.0364    0.0000 </r>
       <r>    7.0364    0.0000 </r>
       <r>    8.9076    0.0000 </r>
       <r>    8.9076    0.0000 </r>
       <r>    8.9076    0.0000 </r>
       <r>    8.9076    0.0000 </r>
      </set>
     </set>
    </set>
   </array>
  </eigenvalues>
  <separator name="orbital magnetization" >
   <v name="MAGDIPOLOUT">      0.00000000      0.00000000      0.00000000</v>
  </separator>
  <dos>
   <i name="efermi">      5.62744450 </i>
   <total>
    <array>
     <dimension dim="1">gridpoints</dimension>
     <dimension dim="2">spin</dimension>
     <field>energy</field>
     <field>total</field>
     <field>integrated</field>
     <set>
      <set comment="spin 1">
       <r>    -8.2520     0.0000     0.0000 </r>
       <r>    -8.1824     0.0000     0.0000 </r>
       <r>    -8.1127     0.0000     0.0000 </r>
       <r>    -8.0431     0.0000     0.0000 </r>
       <r>    -7.9734     0.0000     0.0000 </r>
       <r>    -7.9038     0.0000     0.0000 </r>
       <r>    -7.8341     0.0000     0.0000 </r>
       <r>    -7.7645     0.0000     0.0000 </r>
       <r>    -7.6948     0.0000     0.0000 </r>
       <r>    -7.6252     0.0000     0.0000 </r>
       <r>    -7.5555     0.0000     0.0000 </r>
       <r>    -7.4859     0.0000     0.0000 </r>
       <r>    -7.4162     0.0000     0.0000 </r>
       <r>    -7.3466     0.0000     0.0000 </r>
       <r>    -7.2769     0.0000     0.0000 </r>
       <r>    -7.2073     0.0000     0.0000 </r>
       <r>    -7.1376     0.0000     0.0000 </r>
       <r>    -7.0680     0.0000     0.0000 </r>
       <r>    -6.9983     0.0000     0.0000 </r>
       <r>    -6.9287     0.0000     0.0000 </r>
       <r>    -6.8590     0.0000     0.0000 </r>
       <r>    -6.7893     0.0000     0.0000 </r>
       <r>    -6.7197     0.0000     0.0000 </r>
       <r>    -6.6500     0.0000     0.0000 </r>
       <r>    -6.5804     0.0000     0.0000 </r>
       <r>    -6.5107     0.0000     0.0000 </r>
       <r>    -6.4411     0.0000     0.0000 </r>
       <r>    -6.3714     0.0000     0.0000 </r>
       <r>    -6.3018     0.0000     0.0000 </r>
       <r>    -6.2321     0.0042     0.0000 </r>
       <r>    -6.1625     0.0859     0.0026 </r>
       <r>    -6.0928     0.2401     0.0140 </r>
       <r>    -6.0232     0.3105     0.0338 </r>
       <r>    -5.9535     0.3251     0.0558 </r>
       <r>    -5.8839     0.3744     0.0799 </r>
       <r>    -5.8142     0.4400     0.1083 </r>
       <r>    -5.7446     0.5062     0.1413 </r>
       <r>    -5.6749     0.5396     0.1780 </r>
       <r>    -5.6053     0.5509     0.2159 </r>
       <r>    -5.5356     0.5810     0.2552 </r>
       <r>    -5.4660     0.6168     0.2969 </r>
       <r>    -5.3963     0.6519     0.3411 </r>
       <r>    -5.3267     0.6863     0.3877 </r>
       <r>    -5.2570     0.7229     0.4367 </r>
       <r>    -5.1874     0.7675     0.4886 </r>
       <r>    -5.1177     0.8070     0.5435 </r>
       <r>    -5.0480     0.8296     0.6006 </r>
       <r>    -4.9784     0.8540     0.6592 </r>
       <r>    -4.9087     0.8840     0.7197 </r>
       <r>    -4.8391     0.9139     0.7823 </r>
       <r>    -4.7694     0.9423     0.8470 </r>
       <r>    -4.6998     1.0632     0.9159 </r>
       <r>    -4.6301     1.1753     0.9947 </r>
       <r>    -4.5605     1.2146     1.0780 </r>
       <r>    -4.4908     1.2466     1.1637 </r>
       <r>    -4.4212     1.2711     1.2515 </r>
       <r>    -4.3515     1.2738     1.3404 </r>
       <r>    -4.2819     1.2413     1.4281 </r>
       <r>    -4.2122     1.3257     1.5168 </r>
       <r>    -4.1426     1.3577     1.6114 </r>
       <r>    -4.0729     1.3311     1.7050 </r>
       <r>    -4.0033     1.3596     1.7976 </r>
       <r>    -3.9336     1.4650     1.8958 </r>
       <r>    -3.8640     1.6436     2.0040 </r>
       <r>    -3.7943     1.7844     2.1237 </r>
       <r>    -3.7247     1.9208     2.2524 </r>
       <r>    -3.6550     1.7865     2.3845 </r>
       <r>    -3.5854     1.6236     2.5025 </r>
       <r>    -3.5157     1.4114     2.6067 </r>
       <r>    -3.4460     1.3917     2.7043 </r>
       <r>    -3.3764     1.3757     2.8006 </r>
       <r>    -3.3067     1.6078     2.9022 </r>
       <r>    -3.2371     1.4912     3.0103 </r>
       <r>    -3.1674     1.7991     3.1249 </r>
       <r>    -3.0978     1.8096     3.2528 </r>
       <r>    -3.0281     1.2437     3.3553 </r>
       <r>    -2.9585     1.1098     3.4365 </r>
       <r>    -2.8888     1.0105     3.5103 </r>
       <r>    -2.8192     0.9191     3.5775 </r>
       <r>    -2.7495     0.8351     3.6385 </r>
       <r>    -2.6799     0.7589     3.6940 </r>
       <r>    -2.6102     0.6923     3.7445 </r>
       <r>    -2.5406     0.6352     3.7906 </r>
       <r>    -2.4709     0.5818     3.8331 </r>
       <r>    -2.4013     0.5278     3.8717 </r>
       <r>    -2.3316     0.4845     3.9069 </r>
       <r>    -2.2620     0.4542     3.9395 </r>
       <r>    -2.1923     0.4071     3.9696 </r>
       <r>    -2.1227     0.2834     3.9950 </r>
       <r>    -2.0530     0.1946     4.0098 </r>
       <r>    -1.9834     0.2484     4.0247 </r>
       <r>    -1.9137     0.3245     4.0449 </r>
       <r>    -1.8440     0.3827     4.0694 </r>
       <r>    -1.7744     0.4454     4.0982 </r>
       <r>    -1.7047     0.5097     4.1315 </r>
       <r>    -1.6351     0.5755     4.1693 </r>
       <r>    -1.5654     0.6404     4.2117 </r>
       <r>    -1.4958     0.7143     4.2587 </r>
       <r>    -1.4261     0.8053     4.3116 </r>
       <r>    -1.3565     0.9135     4.3713 </r>
       <r>    -1.2868     1.0468     4.4393 </r>
       <r>    -1.2172     1.3473     4.5209 </r>
       <r>    -1.1475     2.7436     4.6541 </r>
       <r>    -1.0779     3.7813     4.9032 </r>
       <r>    -1.0082     3.1378     5.1400 </r>
       <r>    -0.9386     2.4375     5.3366 </r>
       <r>    -0.8689     2.0674     5.4896 </r>
       <r>    -0.7993     1.8408     5.6317 </r>
       <r>    -0.7296     1.5800     5.7461 </r>
       <r>    -0.6600     1.4609     5.8520 </r>
       <r>    -0.5903     1.3505     5.9498 </r>
       <r>    -0.5207     1.2286     6.0398 </r>
       <r>    -0.4510     1.1062     6.1211 </r>
       <r>    -0.3814     0.9998     6.1944 </r>
       <r>    -0.3117     0.9403     6.2618 </r>
       <r>    -0.2420     0.8968     6.3257 </r>
       <r>    -0.1724     0.8668     6.3870 </r>
       <r>    -0.1027     0.8503     6.4467 </r>
       <r>    -0.0331     0.8473     6.5058 </r>
       <r>     0.0366     0.8562     6.5651 </r>
       <r>     0.1062     0.8684     6.6251 </r>
       <r>     0.1759     0.8823     6.6861 </r>
       <r>     0.2455     0.8730     6.7474 </r>
       <r>     0.3152     0.8470     6.8074 </r>
       <r>     0.3848     0.8066     6.8650 </r>
       <r>     0.4545     0.7551     6.9194 </r>
       <r>     0.5241     0.7453     6.9717 </r>
       <r>     0.5938     0.7323     7.0232 </r>
       <r>     0.6634     0.7169     7.0737 </r>
       <r>     0.7331     0.7015     7.1231 </r>
       <r>     0.8027     0.6865     7.1714 </r>
       <r>     0.8724     0.6720     7.2187 </r>
       <r>     0.9420     0.6580     7.2650 </r>
       <r>     1.0117     0.6479     7.3105 </r>
       <r>     1.0813     0.6464     7.3555 </r>
       <r>     1.1510     0.6535     7.4007 </r>
       <r>     1.2206     0.6913     7.4469 </r>
       <r>     1.2903     0.8760     7.5019 </r>
       <r>     1.3599     0.9460     7.5661 </r>
       <r>     1.4296     0.9920     7.6338 </r>
       <r>     1.4993     0.8791     7.6984 </r>
       <r>     1.5689     0.9823     7.7618 </r>
       <r>     1.6386     1.3401     7.8408 </r>
       <r>     1.7082     3.1137     7.9809 </r>
       <r>     1.7779     3.4193     8.2159 </r>
       <r>     1.8475     3.0478     8.4431 </r>
       <r>     1.9172     2.2683     8.6292 </r>
       <r>     1.9868     1.8396     8.7703 </r>
       <r>     2.0565     1.8224     8.8954 </r>
       <r>     2.1261     1.9996     9.0284 </r>
       <r>     2.1958     2.1735     9.1738 </r>
       <r>     2.2654     2.2926     9.3298 </r>
       <r>     2.3351     2.3370     9.4915 </r>
       <r>     2.4047     2.3072     9.6536 </r>
       <r>     2.4744     2.4003     9.8175 </r>
       <r>     2.5440     2.6035    10.0023 </r>
       <r>     2.6137     2.6698    10.1733 </r>
[...]
        <r>  0.0012  0.0005  0.0190  0.0102  0.0000  0.0000  0.0000  0.0000  0.0000 </r>
        <r>  0.0039  0.0017  0.0026  0.0064  0.0000  0.0000  0.0000  0.0000  0.0000 </r>
        <r>  0.0022  0.0095  0.0053  0.0008  0.0000  0.0000  0.0000  0.0000  0.0000 </r>
        <r>  0.0002  0.0063  0.0272  0.0027  0.0000  0.0000  0.0000  0.0000  0.0000 </r>
        <r>  0.0002  0.0028  0.0242  0.0059  0.0000  0.0000  0.0000  0.0000  0.0000 </r>
        <r>  0.0010  0.0101  0.0179  0.0006  0.0000  0.0000  0.0000  0.0000  0.0000 </r>
       </set>
      </set>
      <set comment="kpoint 20">
       <set comment="band 1">
        <r>  0.0029  0.0002  0.0039  0.0003  0.0000  0.0000  0.0000  0.0000  0.0000 </r>
        <r>  0.0996  0.0010  0.0006  0.0009  0.0000  0.0000  0.0000  0.0000  0.0000 </r>
        <r>  0.0149  0.0039  0.0002  0.0001  0.0000  0.0000  0.0000  0.0000  0.0000 </r>
        <r>  0.0435  0.0006  0.0010  0.0020  0.0000  0.0000  0.0000  0.0000  0.0000 </r>
        <r>  0.0100  0.0001  0.0003  0.0039  0.0000  0.0000  0.0000  0.0000  0.0000 </r>
        <r>  0.0513  0.0020  0.0009  0.0006  0.0000  0.0000  0.0000  0.0000  0.0000 </r>
        <r>  0.1965  0.0003  0.0001  0.0002  0.0000  0.0000  0.0000  0.0000  0.0000 </r>
        <r>  0.0298  0.0009  0.0020  0.0010  0.0000  0.0000  0.0000  0.0000  0.0000 </r>
       </set>
       <set comment="band 2">
        <r>  0.1736  0.0004  0.0000  0.0005  0.0000  0.0000  0.0000  0.0000  0.0000 </r>
        <r>  0.0351  0.0011  0.0011  0.0016  0.0000  0.0000  0.0000  0.0000  0.0000 </r>
        <r>  0.0258  0.0000  0.0004  0.0034  0.0000  0.0000  0.0000  0.0000  0.0000 </r>
        <r>  0.0789  0.0011  0.0011  0.0007  0.0000  0.0000  0.0000  0.0000  0.0000 </r>
        <r>  0.0224  0.0034  0.0005  0.0000  0.0000  0.0000  0.0000  0.0000  0.0000 </r>
        <r>  0.0550  0.0007  0.0016  0.0011  0.0000  0.0000  0.0000  0.0000  0.0000 </r>
        <r>  0.0025  0.0005  0.0034  0.0004  0.0000  0.0000  0.0000  0.0000  0.0000 </r>
        <r>  0.0552  0.0016  0.0007  0.0011  0.0000  0.0000  0.0000  0.0000  0.0000 </r>
       </set>
       <set comment="band 3">
        <r>  0.0132  0.0007  0.0004  0.0030  0.0000  0.0000  0.0000  0.0000  0.0000 </r>
        <r>  0.0746  0.0006  0.0017  0.0006  0.0000  0.0000  0.0000  0.0000  0.0000 </r>
        <r>  0.1518  0.0004  0.0007  0.0003  0.0000  0.0000  0.0000  0.0000  0.0000 </r>
        <r>  0.0315  0.0017  0.0006  0.0015  0.0000  0.0000  0.0000  0.0000  0.0000 </r>
        <r>  0.0375  0.0003  0.0030  0.0004  0.0000  0.0000  0.0000  0.0000  0.0000 </r>
        <r>  0.0318  0.0015  0.0006  0.0017  0.0000  0.0000  0.0000  0.0000  0.0000 </r>
        <r>  0.0218  0.0030  0.0003  0.0007  0.0000  0.0000  0.0000  0.0000  0.0000 </r>
        <r>  0.0864  0.0006  0.0015  0.0006  0.0000  0.0000  0.0000  0.0000  0.0000 </r>
       </set>
       <set comment="band 4">
        <r>  0.0346  0.0031  0.0001  0.0006  0.0000  0.0000  0.0000  0.0000  0.0000 </r>
        <r>  0.0150  0.0017  0.0010  0.0014  0.0000  0.0000  0.0000  0.0000  0.0000 </r>
        <r>  0.0317  0.0001  0.0031  0.0007  0.0000  0.0000  0.0000  0.0000  0.0000 </r>
        <r>  0.0704  0.0010  0.0017  0.0003  0.0000  0.0000  0.0000  0.0000  0.0000 </r>
        <r>  0.1543  0.0007  0.0006  0.0001  0.0000  0.0000  0.0000  0.0000  0.0000 </r>
        <r>  0.0861  0.0003  0.0014  0.0010  0.0000  0.0000  0.0000  0.0000  0.0000 </r>
        <r>  0.0036  0.0006  0.0007  0.0031  0.0000  0.0000  0.0000  0.0000  0.0000 </r>
        <r>  0.0528  0.0014  0.0003  0.0017  0.0000  0.0000  0.0000  0.0000  0.0000 </r>
       </set>
       <set comment="band 5">
        <r>  0.0546  0.0027  0.0022  0.0087  0.0000  0.0000  0.0000  0.0000  0.0000 </r>
        <r>  0.0697  0.0037  0.0001  0.0052  0.0000  0.0000  0.0000  0.0000  0.0000 </r>
        <r>  0.0279  0.0022  0.0027  0.0171  0.0000  0.0000  0.0000  0.0000  0.0000 </r>
        <r>  0.0165  0.0001  0.0037  0.0218  0.0000  0.0000  0.0000  0.0000  0.0000 </r>
        <r>  0.0085  0.0171  0.0087  0.0022  0.0000  0.0000  0.0000  0.0000  0.0000 </r>
        <r>  0.0119  0.0218  0.0052  0.0001  0.0000  0.0000  0.0000  0.0000  0.0000 </r>
        <r>  0.0071  0.0087  0.0171  0.0027  0.0000  0.0000  0.0000  0.0000  0.0000 </r>
        <r>  0.0002  0.0052  0.0218  0.0037  0.0000  0.0000  0.0000  0.0000  0.0000 </r>
       </set>
       <set comment="band 6">
        <r>  0.0062  0.0124  0.0013  0.0151  0.0000  0.0000  0.0000  0.0000  0.0000 </r>
        <r>  0.0044  0.0141  0.0019  0.0133  0.0000  0.0000  0.0000  0.0000  0.0000 </r>
        <r>  0.0483  0.0013  0.0124  0.0019  0.0000  0.0000  0.0000  0.0000  0.0000 </r>
        <r>  0.0426  0.0019  0.0141  0.0014  0.0000  0.0000  0.0000  0.0000  0.0000 </r>
        <r>  0.0395  0.0019  0.0151  0.0013  0.0000  0.0000  0.0000  0.0000  0.0000 </r>
        <r>  0.0450  0.0014  0.0133  0.0019  0.0000  0.0000  0.0000  0.0000  0.0000 </r>
        <r>  0.0043  0.0151  0.0019  0.0124  0.0000  0.0000  0.0000  0.0000  0.0000 </r>
        <r>  0.0062  0.0133  0.0014  0.0141  0.0000  0.0000  0.0000  0.0000  0.0000 </r>
       </set>
       <set comment="band 7">
        <r>  0.0217  0.0047  0.0190  0.0003  0.0000  0.0000  0.0000  0.0000  0.0000 </r>
        <r>  0.0102  0.0069  0.0128  0.0078  0.0000  0.0000  0.0000  0.0000  0.0000 </r>
        <r>  0.0009  0.0190  0.0047  0.0068  0.0000  0.0000  0.0000  0.0000  0.0000 </r>
        <r>  0.0250  0.0128  0.0069  0.0032  0.0000  0.0000  0.0000  0.0000  0.0000 </r>
        <r>  0.0150  0.0068  0.0003  0.0190  0.0000  0.0000  0.0000  0.0000  0.0000 </r>
        <r>  0.0221  0.0032  0.0078  0.0128  0.0000  0.0000  0.0000  0.0000  0.0000 </r>
        <r>  0.0607  0.0003  0.0068  0.0047  0.0000  0.0000  0.0000  0.0000  0.0000 </r>
        <r>  0.0410  0.0078  0.0032  0.0069  0.0000  0.0000  0.0000  0.0000  0.0000 </r>
       </set>
       <set comment="band 8">
        <r>  0.0157  0.0110  0.0082  0.0066  0.0000  0.0000  0.0000  0.0000  0.0000 </r>
        <r>  0.0140  0.0060  0.0159  0.0044  0.0000  0.0000  0.0000  0.0000  0.0000 </r>
        <r>  0.0211  0.0082  0.0110  0.0049  0.0000  0.0000  0.0000  0.0000  0.0000 </r>
        <r>  0.0141  0.0159  0.0060  0.0044  0.0000  0.0000  0.0000  0.0000  0.0000 </r>
        <r>  0.0352  0.0049  0.0066  0.0082  0.0000  0.0000  0.0000  0.0000  0.0000 </r>
        <r>  0.0193  0.0044  0.0044  0.0159  0.0000  0.0000  0.0000  0.0000  0.0000 </r>
        <r>  0.0262  0.0066  0.0049  0.0110  0.0000  0.0000  0.0000  0.0000  0.0000 </r>
        <r>  0.0509  0.0044  0.0044  0.0060  0.0000  0.0000  0.0000  0.0000  0.0000 </r>
       </set>
       <set comment="band 9">
        <r>  0.0000  0.0374  0.0050  0.0158  0.0000  0.0000  0.0000  0.0000  0.0000 </r>
        <r>  0.0000  0.0227  0.0238  0.0118  0.0000  0.0000  0.0000  0.0000  0.0000 </r>
        <r>  0.0000  0.0580  0.0261  0.0077  0.0000  0.0000  0.0000  0.0000  0.0000 </r>
        <r>  0.0000  0.0333  0.0044  0.0194  0.0000  0.0000  0.0000  0.0000  0.0000 </r>
        <r>  0.0000  0.0031  0.0120  0.0290  0.0000  0.0000  0.0000  0.0000  0.0000 </r>
        <r>  0.0000  0.0323  0.0029  0.0076  0.0000  0.0000  0.0000  0.0000  0.0000 </r>
        <r>  0.0000  0.0138  0.0014  0.0072  0.0000  0.0000  0.0000  0.0000  0.0000 </r>
        <r>  0.0000  0.0240  0.0132  0.0209  0.0000  0.0000  0.0000  0.0000  0.0000 </r>
       </set>
       <set comment="band 10">
        <r>  0.0000  0.0056  0.0368  0.0236  0.0000  0.0000  0.0000  0.0000  0.0000 </r>
        <r>  0.0000  0.0257  0.0069  0.0279  0.0000  0.0000  0.0000  0.0000  0.0000 </r>
        <r>  0.0000  0.0119  0.0111  0.0045  0.0000  0.0000  0.0000  0.0000  0.0000 </r>
        <r>  0.0000  0.0001  0.0699  0.0135  0.0000  0.0000  0.0000  0.0000  0.0000 </r>
        <r>  0.0000  0.0197  0.0195  0.0103  0.0000  0.0000  0.0000  0.0000  0.0000 </r>
        <r>  0.0000  0.0015  0.0255  0.0075  0.0000  0.0000  0.0000  0.0000  0.0000 </r>
        <r>  0.0000  0.0035  0.0418  0.0282  0.0000  0.0000  0.0000  0.0000  0.0000 </r>
        <r>  0.0000  0.0134  0.0068  0.0176  0.0000  0.0000  0.0000  0.0000  0.0000 </r>
       </set>
       <set comment="band 11">
        <r>  0.0000  0.0110  0.0322  0.0152  0.0000  0.0000  0.0000  0.0000  0.0000 </r>
        <r>  0.0000  0.0380  0.0189  0.0032  0.0000  0.0000  0.0000  0.0000  0.0000 </r>
        <r>  0.0000  0.0192  0.0218  0.0107  0.0000  0.0000  0.0000  0.0000  0.0000 </r>
        <r>  0.0000  0.0038  0.0141  0.0002  0.0000  0.0000  0.0000  0.0000  0.0000 </r>
        <r>  0.0000  0.0128  0.0170  0.0022  0.0000  0.0000  0.0000  0.0000  0.0000 </r>
        <r>  0.0000  0.0495  0.0008  0.0195  0.0000  0.0000  0.0000  0.0000  0.0000 </r>
        <r>  0.0000  0.0552  0.0172  0.0018  0.0000  0.0000  0.0000  0.0000  0.0000 </r>
        <r>  0.0000  0.0069  0.0545  0.0070  0.0000  0.0000  0.0000  0.0000  0.0000 </r>
       </set>
       <set comment="band 12">
        <r>  0.0000  0.0072  0.0263  0.0091  0.0000  0.0000  0.0000  0.0000  0.0000 </r>
        <r>  0.0000  0.0081  0.0605  0.0129  0.0000  0.0000  0.0000  0.0000  0.0000 </r>
        <r>  0.0000  0.0006  0.0224  0.0092  0.0000  0.0000  0.0000  0.0000  0.0000 </r>
        <r>  0.0000  0.0255  0.0062  0.0506  0.0000  0.0000  0.0000  0.0000  0.0000 </r>
        <r>  0.0000  0.0229  0.0182  0.0328  0.0000  0.0000  0.0000  0.0000  0.0000 </r>
        <r>  0.0000  0.0031  0.0036  0.0083  0.0000  0.0000  0.0000  0.0000  0.0000 </r>
        <r>  0.0000  0.0123  0.0321  0.0235  0.0000  0.0000  0.0000  0.0000  0.0000 </r>
        <r>  0.0000  0.0062  0.0287  0.0028  0.0000  0.0000  0.0000  0.0000  0.0000 </r>
       </set>
       <set comment="band 13">
        <r>  0.0000  0.0474  0.0030  0.0297  0.0000  0.0000  0.0000  0.0000  0.0000 </r>
        <r>  0.0000  0.0275  0.0074  0.0280  0.0000  0.0000  0.0000  0.0000  0.0000 </r>
        <r>  0.0000  0.0055  0.0093  0.0288  0.0000  0.0000  0.0000  0.0000  0.0000 </r>
        <r>  0.0000  0.0009  0.0163  0.0025  0.0000  0.0000  0.0000  0.0000  0.0000 </r>
        <r>  0.0000  0.0166  0.0253  0.0013  0.0000  0.0000  0.0000  0.0000  0.0000 </r>
        <r>  0.0000  0.0243  0.0031  0.0135  0.0000  0.0000  0.0000  0.0000  0.0000 </r>
        <r>  0.0000  0.0322  0.0026  0.0147  0.0000  0.0000  0.0000  0.0000  0.0000 </r>
        <r>  0.0000  0.0489  0.0135  0.0306  0.0000  0.0000  0.0000  0.0000  0.0000 </r>
       </set>
       <set comment="band 14">
        <r>  0.0000  0.0106  0.0029  0.0418  0.0000  0.0000  0.0000  0.0000  0.0000 </r>
        <r>  0.0000  0.0120  0.0126  0.0227  0.0000  0.0000  0.0000  0.0000  0.0000 </r>
        <r>  0.0000  0.0201  0.0240  0.0134  0.0000  0.0000  0.0000  0.0000  0.0000 </r>
        <r>  0.0000  0.0217  0.0074  0.0271  0.0000  0.0000  0.0000  0.0000  0.0000 </r>
        <r>  0.0000  0.0112  0.0134  0.0212  0.0000  0.0000  0.0000  0.0000  0.0000 </r>
        <r>  0.0000  0.0038  0.0289  0.0220  0.0000  0.0000  0.0000  0.0000  0.0000 </r>
        <r>  0.0000  0.0113  0.0198  0.0269  0.0000  0.0000  0.0000  0.0000  0.0000 </r>
        <r>  0.0000  0.0157  0.0110  0.0315  0.0000  0.0000  0.0000  0.0000  0.0000 </r>
       </set>
       <set comment="band 15">
        <r>  0.0000  0.0079  0.0303  0.0061  0.0000  0.0000  0.0000  0.0000  0.0000 </r>
        <r>  0.0000  0.0073  0.0090  0.0256  0.0000  0.0000  0.0000  0.0000  0.0000 </r>
        <r>  0.0000  0.0033  0.0290  0.0284  0.0000  0.0000  0.0000  0.0000  0.0000 </r>
        <r>  0.0000  0.0029  0.0232  0.0135  0.0000  0.0000  0.0000  0.0000  0.0000 </r>
        <r>  0.0000  0.0013  0.0387  0.0141  0.0000  0.0000  0.0000  0.0000  0.0000 </r>
        <r>  0.0000  0.0020  0.0785  0.0034  0.0000  0.0000  0.0000  0.0000  0.0000 </r>
        <r>  0.0000  0.0143  0.0179  0.0251  0.0000  0.0000  0.0000  0.0000  0.0000 </r>
        <r>  0.0000  0.0145  0.0052  0.0313  0.0000  0.0000  0.0000  0.0000  0.0000 </r>
       </set>
       <set comment="band 16">
        <r>  0.0000  0.0171  0.0079  0.0030  0.0000  0.0000  0.0000  0.0000  0.0000 </r>
        <r>  0.0000  0.0029  0.0053  0.0122  0.0000  0.0000  0.0000  0.0000  0.0000 </r>
        <r>  0.0000  0.0257  0.0007  0.0417  0.0000  0.0000  0.0000  0.0000  0.0000 </r>
        <r>  0.0000  0.0559  0.0028  0.0175  0.0000  0.0000  0.0000  0.0000  0.0000 </r>
        <r>  0.0000  0.0567  0.0002  0.0332  0.0000  0.0000  0.0000  0.0000  0.0000 </r>
        <r>  0.0000  0.0278  0.0011  0.0624  0.0000  0.0000  0.0000  0.0000  0.0000 </r>
        <r>  0.0000  0.0018  0.0116  0.0168  0.0000  0.0000  0.0000  0.0000  0.0000 </r>
        <r>  0.0000  0.0146  0.0113  0.0026  0.0000  0.0000  0.0000  0.0000  0.0000 </r>
       </set>
       <set comment="band 17">
        <r>  0.0797  0.0020  0.0011  0.0006  0.0000  0.0000  0.0000  0.0000  0.0000 </r>
        <r>  0.0157  0.0012  0.0020  0.0027  0.0000  0.0000  0.0000  0.0000  0.0000 </r>
        <r>  0.0180  0.0011  0.0020  0.0027  0.0000  0.0000  0.0000  0.0000  0.0000 </r>
        <r>  0.0779  0.0020  0.0012  0.0005  0.0000  0.0000  0.0000  0.0000  0.0000 </r>
        <r>  0.0582  0.0027  0.0006  0.0011  0.0000  0.0000  0.0000  0.0000  0.0000 </r>
        <r>  0.0355  0.0005  0.0027  0.0020  0.0000  0.0000  0.0000  0.0000  0.0000 </r>
        <r>  0.0312  0.0006  0.0027  0.0020  0.0000  0.0000  0.0000  0.0000  0.0000 </r>
        <r>  0.0578  0.0027  0.0005  0.0012  0.0000  0.0000  0.0000  0.0000  0.0000 </r>
       </set>
       <set comment="band 18">
        <r>  0.0125  0.0015  0.0027  0.0018  0.0000  0.0000  0.0000  0.0000  0.0000 </r>
        <r>  0.0576  0.0028  0.0011  0.0006  0.0000  0.0000  0.0000  0.0000  0.0000 </r>
        <r>  0.0519  0.0027  0.0015  0.0004  0.0000  0.0000  0.0000  0.0000  0.0000 </r>
        <r>  0.0165  0.0011  0.0028  0.0020  0.0000  0.0000  0.0000  0.0000  0.0000 </r>
        <r>  0.0438  0.0004  0.0018  0.0027  0.0000  0.0000  0.0000  0.0000  0.0000 </r>
        <r>  0.0819  0.0020  0.0006  0.0011  0.0000  0.0000  0.0000  0.0000  0.0000 </r>
        <r>  0.0788  0.0018  0.0004  0.0015  0.0000  0.0000  0.0000  0.0000  0.0000 </r>
        <r>  0.0310  0.0006  0.0020  0.0028  0.0000  0.0000  0.0000  0.0000  0.0000 </r>
       </set>
       <set comment="band 19">
        <r>  0.0225  0.0007  0.0020  0.0030  0.0000  0.0000  0.0000  0.0000  0.0000 </r>
        <r>  0.0204  0.0008  0.0023  0.0026  0.0000  0.0000  0.0000  0.0000  0.0000 </r>
        <r>  0.0878  0.0020  0.0007  0.0008  0.0000  0.0000  0.0000  0.0000  0.0000 </r>
        <r>  0.0763  0.0023  0.0008  0.0007  0.0000  0.0000  0.0000  0.0000  0.0000 </r>
        <r>  0.0195  0.0008  0.0030  0.0020  0.0000  0.0000  0.0000  0.0000  0.0000 </r>
        <r>  0.0239  0.0007  0.0026  0.0023  0.0000  0.0000  0.0000  0.0000  0.0000 </r>
        <r>  0.0572  0.0030  0.0008  0.0007  0.0000  0.0000  0.0000  0.0000  0.0000 </r>
        <r>  0.0665  0.0026  0.0007  0.0008  0.0000  0.0000  0.0000  0.0000  0.0000 </r>
       </set>
       <set comment="band 20">
        <r>  0.0724  0.0022  0.0007  0.0010  0.0000  0.0000  0.0000  0.0000  0.0000 </r>
        <r>  0.0933  0.0016  0.0011  0.0006  0.0000  0.0000  0.0000  0.0000  0.0000 </r>
        <r>  0.0293  0.0007  0.0022  0.0025  0.0000  0.0000  0.0000  0.0000  0.0000 </r>
        <r>  0.0163  0.0011  0.0016  0.0032  0.0000  0.0000  0.0000  0.0000  0.0000 </r>
        <r>  0.0655  0.0025  0.0010  0.0007  0.0000  0.0000  0.0000  0.0000  0.0000 </r>
        <r>  0.0457  0.0032  0.0006  0.0011  0.0000  0.0000  0.0000  0.0000  0.0000 </r>
        <r>  0.0198  0.0010  0.0025  0.0022  0.0000  0.0000  0.0000  0.0000  0.0000 </r>
        <r>  0.0317  0.0006  0.0032  0.0016  0.0000  0.0000  0.0000  0.0000  0.0000 </r>
       </set>
       <set comment="band 21">
        <r>  0.0000  0.0120  0.0096  0.0046  0.0000  0.0000  0.0000  0.0000  0.0000 </r>
        <r>  0.0000  0.0031  0.0134  0.0163  0.0000  0.0000  0.0000  0.0000  0.0000 </r>
        <r>  0.0000  0.0070  0.0008  0.0008  0.0000  0.0000  0.0000  0.0000  0.0000 </r>
        <r>  0.0000  0.0125  0.0002  0.0012  0.0000  0.0000  0.0000  0.0000  0.0000 </r>
        <r>  0.0000  0.0207  0.0023  0.0100  0.0000  0.0000  0.0000  0.0000  0.0000 </r>
        <r>  0.0000  0.0088  0.0018  0.0028  0.0000  0.0000  0.0000  0.0000  0.0000 </r>
        <r>  0.0000  0.0063  0.0134  0.0066  0.0000  0.0000  0.0000  0.0000  0.0000 </r>
        <r>  0.0000  0.0215  0.0108  0.0017  0.0000  0.0000  0.0000  0.0000  0.0000 </r>
       </set>
       <set comment="band 22">
        <r>  0.0000  0.0077  0.0042  0.0030  0.0000  0.0000  0.0000  0.0000  0.0000 </r>
        <r>  0.0000  0.0031  0.0040  0.0028  0.0000  0.0000  0.0000  0.0000  0.0000 </r>
        <r>  0.0000  0.0167  0.0126  0.0050  0.0000  0.0000  0.0000  0.0000  0.0000 </r>
        <r>  0.0000  0.0092  0.0108  0.0046  0.0000  0.0000  0.0000  0.0000  0.0000 </r>
        <r>  0.0000  0.0011  0.0123  0.0049  0.0000  0.0000  0.0000  0.0000  0.0000 </r>
        <r>  0.0000  0.0204  0.0012  0.0051  0.0000  0.0000  0.0000  0.0000  0.0000 </r>
        <r>  0.0000  0.0147  0.0091  0.0028  0.0000  0.0000  0.0000  0.0000  0.0000 </r>
        <r>  0.0000  0.0076  0.0223  0.0031  0.0000  0.0000  0.0000  0.0000  0.0000 </r>
       </set>
       <set comment="band 23">
        <r>  0.0000  0.0026  0.0058  0.0116  0.0000  0.0000  0.0000  0.0000  0.0000 </r>
        <r>  0.0000  0.0173  0.0126  0.0061  0.0000  0.0000  0.0000  0.0000  0.0000 </r>
        <r>  0.0000  0.0070  0.0048  0.0030  0.0000  0.0000  0.0000  0.0000  0.0000 </r>
        <r>  0.0000  0.0073  0.0036  0.0014  0.0000  0.0000  0.0000  0.0000  0.0000 </r>
        <r>  0.0000  0.0130  0.0006  0.0134  0.0000  0.0000  0.0000  0.0000  0.0000 </r>
        <r>  0.0000  0.0043  0.0021  0.0010  0.0000  0.0000  0.0000  0.0000  0.0000 </r>
        <r>  0.0000  0.0086  0.0108  0.0129  0.0000  0.0000  0.0000  0.0000  0.0000 </r>
        <r>  0.0000  0.0022  0.0037  0.0326  0.0000  0.0000  0.0000  0.0000  0.0000 </r>
       </set>
       <set comment="band 24">
        <r>  0.0000  0.0028  0.0034  0.0019  0.0000  0.0000  0.0000  0.0000  0.0000 </r>
        <r>  0.0000  0.0077  0.0059  0.0030  0.0000  0.0000  0.0000  0.0000  0.0000 </r>
        <r>  0.0000  0.0061  0.0069  0.0141  0.0000  0.0000  0.0000  0.0000  0.0000 </r>
        <r>  0.0000  0.0128  0.0236  0.0138  0.0000  0.0000  0.0000  0.0000  0.0000 </r>
        <r>  0.0000  0.0025  0.0233  0.0007  0.0000  0.0000  0.0000  0.0000  0.0000 </r>
        <r>  0.0000  0.0084  0.0040  0.0015  0.0000  0.0000  0.0000  0.0000  0.0000 </r>
        <r>  0.0000  0.0176  0.0087  0.0061  0.0000  0.0000  0.0000  0.0000  0.0000 </r>
        <r>  0.0000  0.0002  0.0089  0.0046  0.0000  0.0000  0.0000  0.0000  0.0000 </r>
       </set>
      </set>
     </set>
    </set>
   </array>
  </projected>
 </calculation>
 <structure name="finalpos" >
  <crystal>
   <varray name="basis" >
    <v>       5.46000000       0.00000000       0.00000000 </v>
    <v>      -0.00000000       5.46000000       0.00000000 </v>
    <v>       0.00000000       0.00000000       5.46000000 </v>
   </varray>
   <i name="volume">    162.77133600 </i>
   <varray name="rec_basis" >
    <v>       0.18315018       0.00000000       0.00000000 </v>
    <v>       0.00000000       0.18315018       0.00000000 </v>
    <v>      -0.00000000      -0.00000000       0.18315018 </v>
   </varray>
  </crystal>
  <varray name="positions" >
   <v>       0.00000000       0.00000000       0.50000000 </v>
   <v>       0.25000000       0.75000000       0.25000000 </v>
   <v>       0.00000000       0.50000000       0.00000000 </v>
   <v>       0.25000000       0.25000000       0.75000000 </v>
   <v>       0.50000000       0.00000000       0.00000000 </v>
   <v>       0.75000000       0.75000000       0.75000000 </v>
   <v>       0.50000000       0.50000000       0.50000000 </v>
   <v>       0.75000000       0.25000000       0.25000000 </v>
  </varray>
 </structure>
</modeling>
