unknown system
   1.00000000000000
     3.348898    0.000000    1.933487
     1.116299    3.157372    1.933487
     0.000000    0.000000    3.866975
   Si
     2
Direct
  0.245521  0.250000  0.252240
  0.000000  0.000000  0.000000

   72   72   72
 -.77179700306E+01 -.73523355763E+01 -.62766304377E+01 -.45647833194E+01 -.23337279041E+01
 0.26682245420E+00 0.30681290207E+01 0.58982687881E+01 0.85978381379E+01 0.11033050853E+02
 0.13104310464E+02 0.14749509572E+02 0.15942633838E+02 0.16689179240E+02 0.17020135103E+02
 0.16985895950E+02 0.16650740941E+02 0.16087848140E+02 0.15374441456E+02 0.14585168730E+02
 0.13765688274E+02 0.12940269684E+02 0.12131200581E+02 0.11357405028E+02 0.10633065380E+02
 0.99671833093E+01 0.93640782445E+01 0.88245474380E+01 0.83472809531E+01 0.79301453620E+01
 0.75710814030E+01 0.72685384388E+01 0.70215269297E+01 0.68294598205E+01 0.66919574471E+01
 0.66087262711E+01 0.65795335725E+01 0.66042347001E+01 0.66827945476E+01 0.68152775276E+01
 0.70018319766E+01 0.72427266968E+01 0.75384814234E+01 0.78900672138E+01 0.82990654651E+01
 0.87676116546E+01 0.92979551161E+01 0.98915561942E+01 0.10547799322E+02 0.11262576077E+02
 0.12027121941E+02 0.12827510678E+02 0.13645080894E+02 0.14457797949E+02 0.15241624073E+02
 0.15951268215E+02 0.16512636971E+02 0.16849012111E+02 0.16887589455E+02 0.16564267823E+02
 0.15828583711E+02 0.14649199994E+02 0.13019987674E+02 0.10966068015E+02 0.85484569572E+01
 0.58655609199E+01 0.30500107762E+01 0.26024277626E+00 -.23324490254E+01 -.45594977395E+01
 -.62708461928E+01 -.73487224061E+01 -.73504500828E+01 -.66028295011E+01 -.51592338225E+01
 -.31207319505E+01 -.62805142578E+00 0.21515361778E+01 0.50402307883E+01 0.78665442489E+01
 0.10480388287E+02 0.12764078221E+02 0.14637932092E+02 0.16060533452E+02 0.17024932099E+02
 0.17552632560E+02 0.17687062001E+02 0.17487556012E+02 0.17024120123E+02 0.16372662316E+02
 0.15610206031E+02 0.14799867717E+02 0.13971032545E+02 0.13146760349E+02 0.12347807004E+02
 0.11590881967E+02 0.10887688132E+02 0.10244934520E+02 0.96651864725E+01 0.91481995371E+01
 0.86923193572E+01 0.82956062243E+01 0.79565054384E+01 0.76740649541E+01 0.74478370893E+01
 0.72776532288E+01 0.71634277816E+01 0.71050635952E+01 0.71024457466E+01 0.71554660239E+01
 0.72640305793E+01 0.74280506996E+01 0.76474636157E+01 0.79223394674E+01 0.82530853151E+01
 0.86406723656E+01 0.90867302075E+01 0.95933211926E+01 0.10162261351E+02 0.10793988977E+02
 0.11486160315E+02 0.12232311930E+02 0.13021004478E+02 0.13835799531E+02 0.14656205116E+02
 0.15459402656E+02 0.16216265677E+02 0.16864195463E+02 0.17326761532E+02 0.17528563457E+02
 0.17399942047E+02 0.16881678659E+02 0.15930181062E+02 0.14523469129E+02 0.12667711144E+02
 0.10403279449E+02 0.78086374084E+01 0.50002050730E+01 0.21269175014E+01 -.64061390420E+00
 -.31250452819E+01 -.51590477029E+01 -.66013047465E+01 -.73496951132E+01 -.62719035509E+01
 -.51563639647E+01 -.33867226147E+01 -.10888246161E+01 0.15777665602E+01 0.44353757287E+01
 0.73055656129E+01 0.10025693378E+02 0.12462096047E+02 0.14518085489E+02 0.16136258977E+02
 0.17296000387E+02 0.18007928831E+02 0.18307189535E+02 0.18246985835E+02 0.17892962320E+02
 0.17318341089E+02 0.16599340912E+02 0.15808214003E+02 0.14986591448E+02 0.14157843028E+02
 0.13343778095E+02 0.12563041080E+02 0.11829732956E+02 0.11152933828E+02 0.10537158871E+02
 0.99834944350E+01 0.94910119084E+01 0.90580614234E+01 0.86831721358E+01 0.83654673377E+01
 0.81046719276E+01 0.79008908983E+01 0.77543475823E+01 0.76652054485E+01 0.76335033986E+01
 0.76591626365E+01 0.77420048195E+01 0.78817541997E+01 0.80780501797E+01 0.83305289277E+01
 0.86390135333E+01 0.90037804800E+01 0.94257778807E+01 0.99066083227E+01 0.10448101132E+02
 0.11051400299E+02 0.11715661931E+02 0.12436633991E+02 0.13205513593E+02 0.14008481527E+02
 0.14827166406E+02 0.15640008556E+02 0.16423855891E+02 0.17137430522E+02 0.17709090894E+02
 0.18063220136E+02 0.18127088441E+02 0.17835353182E+02 0.17134850663E+02 0.15990160265E+02
 0.14390050555E+02 0.12354207943E+02 0.99388560831E+01 0.72393713405E+01 0.43881279786E+01
 0.15466778184E+01 -.11072702343E+01 -.33962829476E+01 -.51604969423E+01 -.62732540845E+01
 -.66532116537E+01 -.45566015036E+01 -.31143172549E+01 -.10852161168E+01 0.13848687982E+01
 0.41246175464E+01 0.69544508517E+01 0.97039395163E+01 0.12226729835E+02 0.14410800298E+02
 0.16183019721E+02 0.17508383828E+02 0.18385418905E+02 0.18839683435E+02 0.18917035322E+02
 0.18677624233E+02 0.18190793423E+02 0.17530541212E+02 0.16770893598E+02 0.15967276936E+02
 0.15145366726E+02 0.14327303305E+02 0.13532997959E+02 0.12778486862E+02 0.12075022855E+02
 0.11429105362E+02 0.10843329034E+02 0.10317708902E+02 0.98510661902E+01 0.94421271134E+01
 0.90901482465E+01 0.87950680027E+01 0.85573275321E+01 0.83775625609E+01 0.82563355697E+01
 0.81939891137E+01 0.81906093875E+01 0.82460399855E+01 0.83598953022E+01 0.85315727797E+01
 0.87603125667E+01 0.90453618772E+01 0.93862520358E+01 0.97831057276E+01 0.10236805841E+02
 0.10748827766E+02 0.11320596521E+02 0.11952372940E+02 0.12641856548E+02 0.13382851085E+02
 0.14164405623E+02 0.14970771687E+02 0.15782297093E+02 0.16577060471E+02 0.17329593015E+02
 0.17984943071E+02 0.18469723446E+02 0.18710528536E+02 0.18638475122E+02 0.18193655165E+02
 0.17330159109E+02 0.16022033383E+02 0.14270002178E+02 0.12108005626E+02 0.96078916516E+01
 0.68803248470E+01 0.40704056753E+01 0.13475944686E+01 -.11090632527E+01 -.31282557028E+01
 -.45636221427E+01 -.53084768478E+01 -.53063713210E+01 -.23216886195E+01 -.61760208253E+00
 0.15855611565E+01 0.41288904679E+01 0.68377529339E+01 0.95394036032E+01 0.12079083468E+02
 0.14332203468E+02 0.16211136897E+02 0.17666474754E+02 0.18683836438E+02 0.19278031901E+02
 0.19486374759E+02 0.19362399934E+02 0.18970479509E+02 0.18381190300E+02 0.17666971034E+02
 0.16892216013E+02 0.16088781858E+02 0.15278560416E+02 0.14482076328E+02 0.13716746734E+02
 0.12995649887E+02 0.12327151758E+02 0.11715417255E+02 0.11161559594E+02 0.10665034283E+02
 0.10224885307E+02 0.98405728575E+01 0.95122949331E+01 0.92408889071E+01 0.90275044634E+01
 0.88732497391E+01 0.87789437186E+01 0.87450078201E+01 0.87714524531E+01 0.88578939737E+01
 0.90035721710E+01 0.92073953847E+01 0.94680745187E+01 0.97843865753E+01 0.10155532096E+02
 0.10581453210E+02 0.11062913309E+02 0.11601152167E+02 0.12197035754E+02 0.12849791663E+02
 0.13555600690E+02 0.14306434458E+02 0.15089530053E+02 0.15887748173E+02 0.16680791726E+02
 0.17446941491E+02 0.18154574019E+02 0.18739854160E+02 0.19130973463E+02 0.19257921190E+02
 0.19056737101E+02 0.18474053610E+02 0.17472404126E+02 0.16036461527E+02 0.14179729701E+02
 0.11950445559E+02 0.94348922898E+01 0.67563140021E+01 0.40683123007E+01 0.15428352366E+01
 -.64579784171E+00 -.23384585078E+01 -.34077379223E+01 -.37712197223E+01 -.34000023452E+01
 0.28303329299E+00 0.21664320433E+01 0.44478630141E+01 0.69635949924E+01 0.95443652122E+01
 0.12032013597E+02 0.14293108718E+02 0.16227759705E+02 0.17772986715E+02 0.18901277314E+02
 0.19615846822E+02 0.19944382613E+02 0.19932719017E+02 0.19639221832E+02 0.19129985852E+02
 0.18474511402E+02 0.17739904341E+02 0.16966666883E+02 0.16176512305E+02 0.15390012147E+02
 0.14625391749E+02 0.13897108153E+02 0.13215141500E+02 0.12585163105E+02 0.12009449639E+02
 0.11488207459E+02 0.11020904016E+02 0.10607271863E+02 0.10247811734E+02 0.99438082633E+01
 0.96970168203E+01 0.95092371476E+01 0.93819532693E+01 0.93161244803E+01 0.93121148637E+01
 0.93696965668E+01 0.94880720353E+01 0.96659131741E+01 0.99014679580E+01 0.10192794771E+02
 0.10538133260E+02 0.10936325392E+02 0.11387109214E+02 0.11891074868E+02 0.12449131045E+02
 0.13061473726E+02 0.13726232801E+02 0.14438129659E+02 0.15187545937E+02 0.15960338062E+02
 0.16738530490E+02 0.17501730101E+02 0.18228341938E+02 0.18878153683E+02 0.19384641280E+02
 0.19678906779E+02 0.19695378894E+02 0.19376041568E+02 0.18675142875E+02 0.17564736774E+02
 0.16040974977E+02 0.14130387276E+02 0.11894711734E+02 0.94324880611E+01 0.68758733234E+01
 0.43820177453E+01 0.21195900193E+01 0.25222754842E+00 -.10786167937E+01 -.17689131915E+01
 -.17633399073E+01 -.10612893112E+01 0.30888252760E+01 0.50599770799E+01 0.73232332106E+01
 0.97185221018E+01 0.12089652326E+02 0.14298794975E+02 0.16236934602E+02 0.17829256553E+02
 0.19035628999E+02 0.19847320522E+02 0.20281573532E+02 0.20375547151E+02 0.20180628085E+02
 0.19757466376E+02 0.19171587031E+02 0.18488957630E+02 0.17757467108E+02 0.16999639015E+02
 0.16235653940E+02 0.15484016045E+02 0.14760071716E+02 0.14075062441E+02 0.13435983985E+02
 0.12846239639E+02 0.12306833910E+02 0.11817725723E+02 0.11378969679E+02 0.10991397179E+02
 0.10656771726E+02 0.10377524565E+02 0.10156278808E+02 0.99953752217E+01 0.98965379440E+01
 0.98607125386E+01 0.98880281322E+01 0.99778141895E+01 0.10128639079E+02 0.10338397459E+02
 0.10604510130E+02 0.10924279496E+02 0.11295365314E+02 0.11716243179E+02 0.12186437352E+02
 0.12706327299E+02 0.13276429272E+02 0.13896223319E+02 0.14562774456E+02 0.15269517008E+02
 0.16005580589E+02 0.16755911922E+02 0.17502209539E+02 0.18224406274E+02 0.18900047568E+02
 0.19481583470E+02 0.19903606912E+02 0.20101151605E+02 0.20014034887E+02 0.19591146880E+02
 0.18795319993E+02 0.17608950145E+02 0.16040035610E+02 0.14127651057E+02 0.11945345859E+02
 0.96008312127E+01 0.72307837184E+01 0.49905672536E+01 0.30398688704E+01 0.15262338783E+01
 0.56896769471E+00 0.24576943417E+00 0.58393192494E+00 0.15572232817E+01 0.59238058109E+01
 0.78915626911E+01 0.10049022012E+02 0.12247287781E+02 0.14348974150E+02 0.16239788233E+02
 0.17835663507E+02 0.19085168062E+02 0.19967909714E+02 0.20490286913E+02 0.20680038877E+02
 0.20580718179E+02 0.20246660493E+02 0.19738509758E+02 0.19119042642E+02 0.18440372763E+02
 0.17726794529E+02 0.16997795494E+02 0.16271712986E+02 0.15564301902E+02 0.14887654315E+02
 0.14249812834E+02 0.13655170063E+02 0.13105493981E+02 0.12601247090E+02 0.12142819496E+02
 0.11731371993E+02 0.11369146497E+02 0.11059284408E+02 0.10805332256E+02 0.10610663650E+02
 0.10478003336E+02 0.10409139017E+02 0.10404805942E+02 0.10464675720E+02 0.10587391174E+02
 0.10770643262E+02 0.11011340513E+02 0.11305932618E+02 0.11650898534E+02 0.12043312583E+02
 0.12481306649E+02 0.12964207256E+02 0.13492177475E+02 0.14065330540E+02 0.14682461093E+02
 0.15339696923E+02 0.16029448029E+02 0.16739983867E+02 0.17455801909E+02 0.18158702096E+02
 0.18829232460E+02 0.19443127071E+02 0.19948628781E+02 0.20283473848E+02 0.20387520653E+02
 0.20206834496E+02 0.19698060067E+02 0.18833358675E+02 0.17605877524E+02 0.16035199597E+02
 0.14171663547E+02 0.12098095491E+02 0.99275798317E+01 0.77965088870E+01 0.58531463287E+01
 0.42430046733E+01 0.30931292087E+01 0.24976702547E+01 0.25069079132E+01 0.31213115303E+01
 0.42914561400E+01 0.86286098623E+01 0.10511106077E+02 0.12491541006E+02 0.14437818462E+02
 0.16234630589E+02 0.17791924254E+02 0.19049063603E+02 0.19974996170E+02 0.20565427659E+02
 0.20838293671E+02 0.20828666993E+02 0.20583828913E+02 0.20158757202E+02 0.19611939918E+02
 0.18996304601E+02 0.18338156810E+02 0.17656104736E+02 0.16967971899E+02 0.16289487178E+02
 0.15633166474E+02 0.15007757459E+02 0.14418418733E+02 0.13867564100E+02 0.13356105546E+02
 0.12884732862E+02 0.12454893395E+02 0.12069262828E+02 0.11731676333E+02 0.11446652644E+02
 0.11218735181E+02 0.11051870692E+02 0.10948965393E+02 0.10911650558E+02 0.10940208200E+02
 0.11033586012E+02 0.11189466622E+02 0.11404415686E+02 0.11674170284E+02 0.11994110024E+02
 0.12359876114E+02 0.12768000956E+02 0.13216335424E+02 0.13704060333E+02 0.14231159696E+02
 0.14797392931E+02 0.15400976427E+02 0.16037308483E+02 0.16698096847E+02 0.17371155770E+02
 0.18040947252E+02 0.18689703469E+02 0.19298765087E+02 0.19841818503E+02 0.20266272533E+02
 0.20514090260E+02 0.20530730856E+02 0.20269241395E+02 0.19694665148E+02 0.18788882172E+02
 0.17555657075E+02 0.16025187244E+02 0.14257019888E+02 0.12340036707E+02 0.10388469350E+02
 0.85335967962E+01 0.69117255715E+01 0.56499602162E+01 0.48518642866E+01 0.45852385129E+01
 0.48739161877E+01 0.56948321674E+01 0.69808050087E+01 0.11069455275E+02 0.12800892567E+02
 0.14554043491E+02 0.16216902631E+02 0.17697117577E+02 0.18927587266E+02 0.19868297429E+02
 0.20505035381E+02 0.20846020972E+02 0.20917514902E+02 0.20759200079E+02 0.20419744584E+02
 0.19952616170E+02 0.19408941594E+02 0.18816218386E+02 0.18192098695E+02 0.17553636727E+02
 0.16916167361E+02 0.16292222018E+02 0.15690881509E+02 0.15117784655E+02 0.14575800533E+02
 0.14066169739E+02 0.13589790616E+02 0.13148305098E+02 0.12744725301E+02 0.12383501225E+02
 0.12070102971E+02 0.11810316137E+02 0.11609487223E+02 0.11471906389E+02 0.11400413988E+02
 0.11396218241E+02 0.11458858572E+02 0.11586257408E+02 0.11774853599E+02 0.12019861910E+02
 0.12315713997E+02 0.12656688091E+02 0.13037641629E+02 0.13454666421E+02 0.13905441003E+02
 0.14389094116E+02 0.14905515849E+02 0.15454220612E+02 0.16033020024E+02 0.16636847571E+02
 0.17257057154E+02 0.17881392855E+02 0.18494629611E+02 0.19079674527E+02 0.19618733426E+02
 0.20084257930E+02 0.20425408403E+02 0.20589099236E+02 0.20527029281E+02 0.20199769808E+02
 0.19581098620E+02 0.18662538562E+02 0.17457719749E+02 0.16005787973E+02 0.14372798014E+02
 0.12650034031E+02 0.10948577746E+02 0.93901565297E+01 0.80951503806E+01 0.71693755633E+01
 0.66916635755E+01 0.67042282560E+01 0.72073880735E+01 0.81594985284E+01 0.94821017974E+01
 0.13146702017E+02 0.14681169742E+02 0.16179037156E+02 0.17549435286E+02 0.18721949806E+02
 0.19649889645E+02 0.20310510455E+02 0.20702937015E+02 0.20844685961E+02 0.20767570607E+02
 0.20513492253E+02 0.20130326781E+02 0.19665695832E+02 0.19146743605E+02 0.18590100450E+02
 0.18011865977E+02 0.17426683791E+02 0.16846734434E+02 0.16281060917E+02 0.15735461981E+02
 0.15213017133E+02 0.14715116789E+02 0.14242723731E+02 0.13797532870E+02 0.13382740564E+02
 0.13003264340E+02 0.12665422003E+02 0.12376225947E+02 0.12142524796E+02 0.11970212675E+02
 0.11863646175E+02 0.11825306033E+02 0.11855663197E+02 0.11953186114E+02 0.12114455196E+02
 0.12334401532E+02 0.12606718693E+02 0.12924478938E+02 0.13280914780E+02 0.13670231502E+02
 0.14088242113E+02 0.14532607358E+02 0.15002538349E+02 0.15497961213E+02 0.16018304866E+02
 0.16561197875E+02 0.17121403610E+02 0.17690267163E+02 0.18255805748E+02 0.18803387480E+02
 0.19316771002E+02 0.19779093010E+02 0.20163102299E+02 0.20421398485E+02 0.20506416596E+02
 0.20376552258E+02 0.20000175275E+02 0.19359738417E+02 0.18455802808E+02 0.17310502023E+02
 0.15969675899E+02 0.14502765065E+02 0.12999694387E+02 0.11564415140E+02 0.10305455086E+02
 0.93245443425E+01 0.87049437611E+01 0.85013274340E+01 0.87329042528E+01 0.93809449540E+01
 0.10391136082E+02 0.11680352854E+02 0.14798156278E+02 0.16110420575E+02 0.17345799525E+02
 0.18433837918E+02 0.19323839477E+02 0.19986431394E+02 0.20412786246E+02 0.20612190012E+02
 0.20608651657E+02 0.20437087317E+02 0.20139388000E+02 0.19758524589E+02 0.19319604684E+02
 0.18838103573E+02 0.18329025970E+02 0.17806090950E+02 0.17280816189E+02 0.16761861879E+02
 0.16254859821E+02 0.15762824439E+02 0.15287075639E+02 0.14828453881E+02 0.14388522987E+02
 0.13970462212E+02 0.13579443699E+02 0.13222442109E+02 0.12907577599E+02 0.12643199089E+02
 0.12436941256E+02 0.12294939254E+02 0.12221292786E+02 0.12217781447E+02 0.12283782813E+02
 0.12416345701E+02 0.12610407813E+02 0.12859185665E+02 0.13154771263E+02 0.13488927759E+02
 0.13853995825E+02 0.14243738323E+02 0.14653906263E+02 0.15082335896E+02 0.15528488297E+02
 0.15992490347E+02 0.16473880083E+02 0.16970350502E+02 0.17476793137E+02 0.17984862707E+02
 0.18483140175E+02 0.18957806782E+02 0.19393608972E+02 0.19774750943E+02 0.20075949092E+02
 0.20254380944E+02 0.20268397871E+02 0.20083315112E+02 0.19675243003E+02 0.19034807823E+02
 0.18170484271E+02 0.17111029833E+02 0.15906331996E+02 0.14625964788E+02 0.13354975523E+02
 0.12186884928E+02 0.11214484625E+02 0.10519593622E+02 0.10163316255E+02 0.10178404258E+02
 0.10565040663E+02 0.11290786154E+02 0.12294693903E+02 0.13494866620E+02 0.15997691637E+02
 0.17081583201E+02 0.18064845586E+02 0.18895577366E+02 0.19540023331E+02 0.19982984529E+02
 0.20226461614E+02 0.20287089352E+02 0.20192860840E+02 0.19979500315E+02 0.19684475868E+02
 0.19329408042E+02 0.18928467039E+02 0.18495447105E+02 0.18042962681E+02 0.17581615382E+02
 0.17119381348E+02 0.16661416922E+02 0.16210390307E+02 0.15767309953E+02 0.15332681017E+02
 0.14907723646E+02 0.14495362864E+02 0.14100759066E+02 0.13731272603E+02 0.13395904466E+02
 0.13104378040E+02 0.12866083246E+02 0.12689053674E+02 0.12579336560E+02 0.12540502480E+02
 0.12573273074E+02 0.12675477554E+02 0.12842324423E+02 0.13066904490E+02 0.13340635509E+02
 0.13654047358E+02 0.13997762883E+02 0.14363482462E+02 0.14744804219E+02 0.15137675184E+02
 0.15540325466E+02 0.15952653517E+02 0.16375171175E+02 0.16807735818E+02 0.17248354774E+02
 0.17692326452E+02 0.18131890904E+02 0.18556427857E+02 0.18953103108E+02 0.19307767452E+02
 0.19605850139E+02 0.19825478711E+02 0.19929260282E+02 0.19881651699E+02 0.19654833841E+02
 0.19232237492E+02 0.18611730668E+02 0.17808138561E+02 0.16854616345E+02 0.15802316637E+02
 0.14717876357E+02 0.13678516884E+02 0.12764991370E+02 0.12053110543E+02 0.11605007630E+02
 0.11461515815E+02 0.11636954302E+02 0.12117246430E+02 0.12861707425E+02 0.13808176763E+02
 0.14880587269E+02 0.16750688131E+02 0.17616059289E+02 0.18371235042E+02 0.18980444637E+02
 0.19423986345E+02 0.19697877748E+02 0.19812156733E+02 0.19788250262E+02 0.19655768380E+02
 0.19445892707E+02 0.19175838192E+02 0.18858372308E+02 0.18505978109E+02 0.18130029425E+02
 0.17740017677E+02 0.17342989344E+02 0.16943355533E+02 0.16543175007E+02 0.16142905574E+02
 0.15742497552E+02 0.15342604655E+02 0.14945643926E+02 0.14556464527E+02 0.14182479401E+02
 0.13833245587E+02 0.13519459946E+02 0.13251735397E+02 0.13040261423E+02 0.12893676200E+02
 0.12817991556E+02 0.12815901806E+02 0.12886510464E+02 0.13025469029E+02 0.13225504691E+02
 0.13477299369E+02 0.13770634301E+02 0.14095016835E+02 0.14440239528E+02 0.14797697580E+02
 0.15161149605E+02 0.15527017319E+02 0.15894149936E+02 0.16263073820E+02 0.16634871635E+02
 0.17009925480E+02 0.17386787645E+02 0.17761404020E+02 0.18126822760E+02 0.18473402760E+02
 0.18789427121E+02 0.19061957972E+02 0.19277759820E+02 0.19419293209E+02 0.19455381374E+02
 0.19356544839E+02 0.19101483691E+02 0.18680183003E+02 0.18096463313E+02 0.17369646378E+02
 0.16534932488E+02 0.15642093694E+02 0.14752228240E+02 0.13932600480E+02 0.13249974576E+02
 0.12763233209E+02 0.12516356456E+02 0.12532902931E+02 0.12812953946E+02 0.13333070776E+02
 0.14049271270E+02 0.14902489462E+02 0.15825572948E+02 0.17088034386E+02 0.17757196258E+02
 0.18318112891E+02 0.18748549676E+02 0.19040073901E+02 0.19197184678E+02 0.19235372809E+02
 0.19178415249E+02 0.19050247746E+02 0.18863677375E+02 0.18629994726E+02 0.18360287365E+02
 0.18064592950E+02 0.17751157403E+02 0.17425915392E+02 0.17092317505E+02 0.16751588141E+02
 0.16403418158E+02 0.16046996959E+02 0.15682198560E+02 0.15310683420E+02 0.14936682355E+02
 0.14567293537E+02 0.14212045054E+02 0.13881506873E+02 0.13587702348E+02 0.13343189519E+02
 0.13159423191E+02 0.13045317273E+02 0.13006178392E+02 0.13043109206E+02 0.13152918119E+02
 0.13328526650E+02 0.13559829607E+02 0.13834928026E+02 0.14141613500E+02 0.14468825172E+02
 0.14806520120E+02 0.15146195897E+02 0.15482116484E+02 0.15811453478E+02 0.16133887789E+02
 0.16450750047E+02 0.16763863494E+02 0.17074316368E+02 0.17381398780E+02 0.17681892542E+02
 0.17969817417E+02 0.18236638676E+02 0.18471855166E+02 0.18663836447E+02 0.18800773367E+02
 0.18869479935E+02 0.18845956843E+02 0.18706519854E+02 0.18435769296E+02 0.18029196774E+02
 0.17495053288E+02 0.16855197985E+02 0.16144631303E+02 0.15409483213E+02 0.14703394545E+02
 0.14082487884E+02 0.13599430466E+02 0.13297362968E+02 0.13204616358E+02 0.13331097274E+02
 0.13666980438E+02 0.14183941060E+02 0.14838707577E+02 0.15578310576E+02 0.16346160146E+02
 0.17060050856E+02 0.17564278317E+02 0.17971091554E+02 0.18269216296E+02 0.18458847422E+02
 0.18550384678E+02 0.18562041378E+02 0.18509632461E+02 0.18402498995E+02 0.18250370957E+02
 0.18062882552E+02 0.17848682149E+02 0.17614694835E+02 0.17365630411E+02 0.17103830013E+02
 0.16829513550E+02 0.16541429751E+02 0.16237832454E+02 0.15917630293E+02 0.15581504459E+02
 0.15232779061E+02 0.14877845596E+02 0.14525083405E+02 0.14184731376E+02 0.13869970695E+02
 0.13595441579E+02 0.13375395025E+02 0.13221917930E+02 0.13143461215E+02 0.13143841796E+02
 0.13221819942E+02 0.13371284942E+02 0.13582017178E+02 0.13840937245E+02 0.14133702022E+02
 0.14446464023E+02 0.14767575450E+02 0.15088065899E+02 0.15400236711E+02 0.15699190956E+02
 0.15983098284E+02 0.16252653423E+02 0.16510137996E+02 0.16758253650E+02 0.16998935791E+02
 0.17232352577E+02 0.17456247748E+02 0.17665712704E+02 0.17853393019E+02 0.18010066031E+02
 0.18125484028E+02 0.18189368156E+02 0.18191975942E+02 0.18117363687E+02 0.17947382816E+02
 0.17671698430E+02 0.17290082074E+02 0.16813613817E+02 0.16264820497E+02 0.15676572651E+02
 0.15089662206E+02 0.14549147161E+02 0.14099767302E+02 0.13780955715E+02 0.13622138666E+02
 0.13639056843E+02 0.13831730036E+02 0.14184422375E+02 0.14667615019E+02 0.15241643230E+02
 0.15861388570E+02 0.16481300516E+02 0.16730971151E+02 0.17107283977E+02 0.17403377873E+02
 0.17616430189E+02 0.17752725303E+02 0.17824543736E+02 0.17839972341E+02 0.17806073103E+02
 0.17730977160E+02 0.17622846874E+02 0.17488935922E+02 0.17334835518E+02 0.17163990796E+02
 0.16977559459E+02 0.16774654324E+02 0.16552962647E+02 0.16309674105E+02 0.16042588328E+02
 0.15751227236E+02 0.15437761536E+02 0.15107389093E+02 0.14766654729E+02 0.14425170470E+02
 0.14096617303E+02 0.13797188738E+02 0.13543637379E+02 0.13351231926E+02 0.13231895571E+02
 0.13192763590E+02 0.13235338375E+02 0.13355340816E+02 0.13543267348E+02 0.13785573762E+02
 0.14066332364E+02 0.14369155349E+02 0.14679147979E+02 0.14984647378E+02 0.15278039896E+02
 0.15553230239E+02 0.15806458039E+02 0.16037092915E+02 0.16246981453E+02 0.16439461230E+02
 0.16618205306E+02 0.16786083642E+02 0.16944218793E+02 0.17091372907E+02 0.17223742795E+02
 0.17335173676E+02 0.17417743537E+02 0.17462628666E+02 0.17461141897E+02 0.17405831708E+02
 0.17288435103E+02 0.17096706481E+02 0.16824406723E+02 0.16474305232E+02 0.16058786899E+02
 0.15599435294E+02 0.15125526687E+02 0.14671477416E+02 0.14273429773E+02 0.13965323878E+02
 0.13774947685E+02 0.13720533037E+02 0.13808437575E+02 0.14032302488E+02 0.14373833056E+02
 0.14805069517E+02 0.15291771577E+02 0.15797385701E+02 0.16287027052E+02 0.16173949873E+02
 0.16462107789E+02 0.16691178317E+02 0.16864195680E+02 0.16986054188E+02 0.17060069498E+02
 0.17091553873E+02 0.17087062684E+02 0.17053317372E+02 0.16996223782E+02 0.16920089929E+02
 0.16827131761E+02 0.16717329855E+02 0.16588663951E+02 0.16437707490E+02 0.16260514549E+02
 0.16053684396E+02 0.15815453458E+02 0.15546650208E+02 0.15250913788E+02 0.14932677191E+02
 0.14600310198E+02 0.14267208158E+02 0.13950380374E+02 0.13668511659E+02 0.13439757158E+02
 0.13279555756E+02 0.13198749232E+02 0.13202259305E+02 0.13288502909E+02 0.13449622670E+02
 0.13672493155E+02 0.13940355354E+02 0.14234852708E+02 0.14538201602E+02 0.14835226592E+02
 0.15115016072E+02 0.15371676977E+02 0.15601107412E+02 0.15800938551E+02 0.15971883211E+02
 0.16117025298E+02 0.16240812986E+02 0.16347928992E+02 0.16442201606E+02 0.16525712577E+02
 0.16598225665E+02 0.16657009959E+02 0.16697074452E+02 0.16711774763E+02 0.16693707546E+02
 0.16635778929E+02 0.16532322528E+02 0.16379843979E+02 0.16173435534E+02 0.15910089823E+02
 0.15594358442E+02 0.15238617994E+02 0.14862277110E+02 0.14490094612E+02 0.14149732907E+02
 0.13868780790E+02 0.13671586656E+02 0.13576320167E+02 0.13592693140E+02 0.13720701024E+02
 0.13950593580E+02 0.14264082330E+02 0.14636590424E+02 0.15040194104E+02 0.15446827979E+02
 0.15831327764E+02 0.15466198003E+02 0.15705759693E+02 0.15906718328E+02 0.16067876877E+02
 0.16190581903E+02 0.16278535952E+02 0.16336805350E+02 0.16370753625E+02 0.16385037734E+02
 0.16382794479E+02 0.16365119457E+02 0.16330903853E+02 0.16277050046E+02 0.16199040109E+02
 0.16091786288E+02 0.15950654901E+02 0.15772530024E+02 0.15556775143E+02 0.15305370314E+02
 0.15020532819E+02 0.14708710442E+02 0.14382172463E+02 0.14057859879E+02 0.13755583211E+02
 0.13495783165E+02 0.13297126056E+02 0.13174243737E+02 0.13135928381E+02 0.13184043463E+02
 0.13313314158E+02 0.13512025960E+02 0.13763519289E+02 0.14048252568E+02 0.14346138670E+02
 0.14638847058E+02 0.14911794970E+02 0.15155608518E+02 0.15366568439E+02 0.15542563423E+02
 0.15682765813E+02 0.15789310937E+02 0.15866548934E+02 0.15920037205E+02 0.15955444317E+02
 0.15977510421E+02 0.15989206230E+02 0.15991207567E+02 0.15981758921E+02 0.15956944669E+02
 0.15911329267E+02 0.15838876841E+02 0.15734024177E+02 0.15592764717E+02 0.15413606270E+02
 0.15197693821E+02 0.14946186823E+02 0.14664379801E+02 0.14363631429E+02 0.14060382107E+02
 0.13774491249E+02 0.13527070069E+02 0.13338049685E+02 0.13223783488E+02 0.13195008596E+02
 0.13255466493E+02 0.13401397733E+02 0.13621994459E+02 0.13900742244E+02 0.14217448755E+02
 0.14550664998E+02 0.14880170243E+02 0.15189206322E+02 0.14682345892E+02 0.14901315809E+02
 0.15091548166E+02 0.15253034654E+02 0.15388067122E+02 0.15500364164E+02 0.15594060145E+02
 0.15672706838E+02 0.15738434434E+02 0.15791392351E+02 0.15829546850E+02 0.15848860400E+02
 0.15843824963E+02 0.15808275400E+02 0.15736375409E+02 0.15623650890E+02 0.15467944916E+02
 0.15269668032E+02 0.15028943656E+02 0.14749693477E+02 0.14442241657E+02 0.14122511216E+02
 0.13810464992E+02 0.13527964490E+02 0.13296281295E+02 0.13133564500E+02 0.13052606023E+02
 0.13059232033E+02 0.13151572856E+02 0.13320328908E+02 0.13549987415E+02 0.13820791288E+02
 0.14111155070E+02 0.14400183483E+02 0.14669970846E+02 0.14907425329E+02 0.15105443459E+02
 0.15262814893E+02 0.15379138902E+02 0.15455178483E+02 0.15494507267E+02 0.15502712798E+02
 0.15486400417E+02 0.15452133966E+02 0.15405446186E+02 0.15350053352E+02 0.15287387395E+02
 0.15216516328E+02 0.15134467155E+02 0.15036904163E+02 0.14919060638E+02 0.14776783601E+02
 0.14607536930E+02 0.14411220359E+02 0.14190696292E+02 0.13951658391E+02 0.13700799227E+02
 0.13447804784E+02 0.13205789935E+02 0.12989810689E+02 0.12815079631E+02 0.12695107724E+02
 0.12640009024E+02 0.12655199378E+02 0.12740677896E+02 0.12891001117E+02 0.13095957787E+02
 0.13341848393E+02 0.13613189431E+02 0.13894611218E+02 0.14172701765E+02 0.14437553199E+02
 0.13867989704E+02 0.14078069313E+02 0.14268930175E+02 0.14441691752E+02 0.14598903784E+02
 0.14743631965E+02 0.14878496830E+02 0.15004823324E+02 0.15122038712E+02 0.15227413374E+02
 0.15316182440E+02 0.15382026987E+02 0.15417842354E+02 0.15416685701E+02 0.15372780042E+02
 0.15282457034E+02 0.15144664241E+02 0.14957895151E+02 0.14723129850E+02 0.14448021105E+02
 0.14146545326E+02 0.13837768362E+02 0.13543921853E+02 0.13287972236E+02 0.13090953846E+02
 0.12969409643E+02 0.12933308571E+02 0.12984768117E+02 0.13117794609E+02 0.13319086547E+02
 0.13569764231E+02 0.13847741162E+02 0.14130372945E+02 0.14397016628E+02 0.14631194080E+02
 0.14822144966E+02 0.14965650794E+02 0.15063020918E+02 0.15115126292E+02 0.15124330704E+02
 0.15095601486E+02 0.15035676638E+02 0.14952085626E+02 0.14852128674E+02 0.14741941897E+02
 0.14625779206E+02 0.14505619678E+02 0.14381163270E+02 0.14250216641E+02 0.14109406398E+02
 0.13955102082E+02 0.13784397139E+02 0.13595990597E+02 0.13390836137E+02 0.13172471810E+02
 0.12947000011E+02 0.12722733459E+02 0.12509118804E+02 0.12316114195E+02 0.12154439112E+02
 0.12034353472E+02 0.11964337292E+02 0.11949983454E+02 0.11993252197E+02 0.12092192395E+02
 0.12241173075E+02 0.12431597013E+02 0.12653002743E+02 0.12894410120E+02 0.13145589393E+02
 0.13396854859E+02 0.13639721240E+02 0.13047314034E+02 0.13258991183E+02 0.13460579254E+02
 0.13653655601E+02 0.13840391536E+02 0.14022661310E+02 0.14201201061E+02 0.14374967169E+02
 0.14540807431E+02 0.14693502660E+02 0.14826172813E+02 0.14930983814E+02 0.15000049789E+02
 0.15026407611E+02 0.15004947210E+02 0.14933145310E+02 0.14808611018E+02 0.14629340314E+02
 0.14399738993E+02 0.14131009517E+02 0.13840292330E+02 0.13549053321E+02 0.13280840357E+02
 0.13058631302E+02 0.12902090649E+02 0.12825114437E+02 0.12834041786E+02 0.12926831072E+02
 0.13093344738E+02 0.13316694599E+02 0.13575418706E+02 0.13846135122E+02 0.14106277133E+02
 0.14336550713E+02 0.14522846528E+02 0.14657446717E+02 0.14739460637E+02 0.14772132747E+02
 0.14757316195E+02 0.14698945141E+02 0.14603278532E+02 0.14478059061E+02 0.14331553144E+02
 0.14171573365E+02 0.14004609882E+02 0.13835198254E+02 0.13665623346E+02 0.13496006851E+02
 0.13324760555E+02 0.13149322927E+02 0.12967046904E+02 0.12776082916E+02 0.12576108985E+02
 0.12368796637E+02 0.12157957308E+02 0.11949373062E+02 0.11750362996E+02 0.11569163744E+02
 0.11414209132E+02 0.11293385895E+02 0.11213305787E+02 0.11178801375E+02 0.11192476261E+02
 0.11254349145E+02 0.11361830228E+02 0.11510037660E+02 0.11692227943E+02 0.11900307095E+02
 0.12125591489E+02 0.12359600106E+02 0.12594820047E+02 0.12825348777E+02 0.12242542650E+02
 0.12464771002E+02 0.12685067021E+02 0.12904878473E+02 0.13125509460E+02 0.13347314806E+02
 0.13569031178E+02 0.13787373969E+02 0.13996979999E+02 0.14190712876E+02 0.14360284398E+02
 0.14497095766E+02 0.14593176876E+02 0.14642104439E+02 0.14639804575E+02 0.14583582702E+02
 0.14469121607E+02 0.14297196492E+02 0.14075573788E+02 0.13818549621E+02 0.13545709270E+02
 0.13279975451E+02 0.13045110255E+02 0.12862942611E+02 0.12750681363E+02 0.12718712241E+02
 0.12769236009E+02 0.12895983984E+02 0.13085063033E+02 0.13316785166E+02 0.13568173298E+02
 0.13815747435E+02 0.14038195483E+02 0.14218603503E+02 0.14346031176E+02 0.14416330511E+02
 0.14432034572E+02 0.14397147551E+02 0.14314621366E+02 0.14189852138E+02 0.14030231797E+02
 0.13844302581E+02 0.13640820071E+02 0.13427829875E+02 0.13211884648E+02 0.12997521562E+02