<?xml version="1.0" encoding="ISO-8859-1"?>
<modeling>
 <generator>
  <i name="program" type="string">vasp </i>
  <i name="version" type="string">6.2.1  </i>
  <i name="subversion" type="string">16May21 (build Oct 27 2021 18:14:32) complex                          parallel </i>
  <i name="platform" type="string">LinuxIFC </i>
  <i name="date" type="string">2021 11 23 </i>
  <i name="time" type="string">17:35:43 </i>
 </generator>
 <incar>
  <i type="string" name="PREC">Accurate</i>
  <i type="string" name="ALGO">Normal</i>
  <i type="int" name="ISPIN">     1</i>
  <i type="int" name="NELM">   200</i>
  <i type="int" name="IBRION">    -1</i>
  <i name="EDIFF">      0.00001000</i>
  <i name="EDIFFG">     -0.02000000</i>
  <i type="int" name="NSW">     1</i>
  <i type="int" name="ISIF">     3</i>
  <i name="ENCUT">    680.00000000</i>
  <i name="ENAUG">   1360.00000000</i>
  <v name="MAGMOM">      0.60000000      0.60000000</v>
  <i type="string" name="LREAL">Auto</i>
  <i type="int" name="ISMEAR">    -5</i>
  <i name="SIGMA">      0.05000000</i>
  <i type="logical" name="LWAVE"> F  </i>
  <i type="logical" name="LCHARG"> T  </i>
  <i type="logical" name="LVTOT"> T  </i>
  <i type="int" name="LORBIT">    11</i>
  <i type="logical" name="LELF"> T  </i>
  <i type="logical" name="LASPH"> T  </i>
  <i type="logical" name="LAECHG"> T  </i>
  <i type="logical" name="LMIXTAU"> T  </i>
 </incar>
 <primitive_cell>
  <structure name="primitive_cell" >
   <crystal>
    <varray name="basis" >
     <v>       3.34889800       0.00000000       1.93348700 </v>
     <v>       1.11629900       3.15737200       1.93348700 </v>
     <v>       0.00000000       0.00000000       3.86697500 </v>
    </varray>
    <i name="volume">     40.88829843 </i>
    <varray name="rec_basis" >
     <v>       0.29860569      -0.10557300       0.00000000 </v>
     <v>       0.00000000       0.31671909       0.00000000 </v>
     <v>      -0.14930281      -0.10557302       0.25860007 </v>
    </varray>
   </crystal>
   <varray name="positions" >
    <v>       0.24552100       0.25000000       0.25224000 </v>
    <v>       0.00000000       0.00000000       0.00000000 </v>
   </varray>
  </structure>
  <varray name="primitive_index" >
   <v type="int" >        1 </v>
   <v type="int" >        2 </v>
  </varray>
 </primitive_cell>
 <kpoints>
  <generation param="Gamma">
   <v type="int" name="divisions">       6        6        6 </v>
   <v name="usershift">      0.00000000       0.00000000       0.00000000 </v>
   <v name="genvec1">      0.16666667      -0.00000000       0.00000000 </v>
   <v name="genvec2">      0.00000000       0.16666667       0.00000000 </v>
   <v name="genvec3">      0.00000000       0.00000000       0.16666667 </v>
   <v name="shift">      0.00000000       0.00000000       0.00000000 </v>
  </generation>
  <varray name="kpointlist" >
   <v>       0.00000000       0.00000000       0.00000000 </v>
   <v>       0.16666667       0.00000000       0.00000000 </v>
   <v>      -0.00000000       0.16666667       0.00000000 </v>
   <v>       0.00000000       0.00000000       0.16666667 </v>
   <v>       0.33333333       0.00000000       0.00000000 </v>
   <v>       0.00000000       0.33333333       0.00000000 </v>
   <v>       0.00000000       0.00000000       0.33333333 </v>
   <v>       0.50000000       0.00000000       0.00000000 </v>
   <v>       0.00000000       0.50000000       0.00000000 </v>
   <v>      -0.00000000       0.00000000       0.50000000 </v>
   <v>       0.16666667       0.16666667       0.00000000 </v>
   <v>       0.00000000       0.16666667       0.16666667 </v>
   <v>       0.33333333       0.16666667       0.00000000 </v>
   <v>       0.00000000       0.33333333       0.16666667 </v>
   <v>       0.16666667       0.00000000       0.33333333 </v>
   <v>       0.16666667       0.16666667      -0.16666667 </v>
   <v>       0.33333333       0.16666667       0.33333333 </v>
   <v>       0.16666667       0.33333333       0.00000000 </v>
   <v>       0.16666667      -0.16666667      -0.16666667 </v>
   <v>       0.50000000       0.16666667       0.00000000 </v>
   <v>       0.00000000       0.50000000       0.16666667 </v>
   <v>       0.16666667       0.00000000       0.50000000 </v>
   <v>       0.16666667       0.16666667      -0.33333333 </v>
   <v>       0.50000000       0.33333333       0.50000000 </v>
   <v>       0.16666667       0.50000000       0.00000000 </v>
   <v>       0.33333333      -0.16666667      -0.16666667 </v>
   <v>      -0.33333333       0.16666667       0.00000000 </v>
   <v>       0.00000000      -0.33333333       0.16666667 </v>
   <v>       0.16666667      -0.00000000      -0.33333333 </v>
   <v>       0.16666667       0.16666667       0.50000000 </v>
   <v>      -0.33333333       0.50000000      -0.33333333 </v>
   <v>       0.16666667      -0.33333333       0.00000000 </v>
   <v>       0.50000000      -0.16666667      -0.16666667 </v>
   <v>      -0.16666667       0.16666667       0.00000000 </v>
   <v>       0.00000000      -0.16666667       0.16666667 </v>
   <v>       0.16666667       0.00000000      -0.16666667 </v>
   <v>       0.16666667       0.16666667       0.33333333 </v>
   <v>       0.33333333       0.33333333       0.00000000 </v>
   <v>       0.00000000       0.33333333       0.33333333 </v>
   <v>       0.50000000       0.33333333       0.00000000 </v>
   <v>       0.00000000       0.50000000       0.33333333 </v>
   <v>       0.33333333       0.00000000       0.50000000 </v>
   <v>       0.33333333       0.33333333      -0.16666667 </v>
   <v>       0.50000000       0.16666667       0.50000000 </v>
   <v>       0.33333333       0.50000000       0.00000000 </v>
   <v>       0.16666667      -0.33333333      -0.33333333 </v>
   <v>      -0.33333333       0.33333333       0.00000000 </v>
   <v>       0.00000000      -0.33333333       0.33333333 </v>
   <v>       0.33333333      -0.00000000      -0.33333333 </v>
   <v>       0.33333333       0.33333333      -0.33333333 </v>
   <v>       0.50000000       0.50000000       0.00000000 </v>
   <v>      -0.00000000       0.50000000       0.50000000 </v>
   <v>       0.50000000       0.33333333       0.16666667 </v>
   <v>       0.16666667       0.50000000       0.33333333 </v>
   <v>       0.33333333       0.16666667       0.50000000 </v>
   <v>       0.50000000       0.16666667       0.33333333 </v>
   <v>       0.16666667      -0.33333333      -0.16666667 </v>
   <v>       0.16666667       0.33333333      -0.16666667 </v>
   <v>      -0.33333333       0.33333333       0.16666667 </v>
   <v>       0.16666667      -0.33333333       0.33333333 </v>
   <v>       0.33333333       0.16666667      -0.33333333 </v>
   <v>      -0.33333333       0.33333333       0.50000000 </v>
   <v>       0.16666667       0.50000000      -0.16666667 </v>
   <v>       0.33333333      -0.16666667      -0.33333333 </v>
   <v>       0.50000000      -0.33333333       0.33333333 </v>
   <v>      -0.33333333       0.50000000       0.16666667 </v>
   <v>       0.16666667      -0.33333333       0.50000000 </v>
   <v>       0.50000000       0.16666667      -0.33333333 </v>
  </varray>
  <varray name="weights" >
   <v>       0.00462963 </v>
   <v>       0.00925926 </v>
   <v>       0.00925926 </v>
   <v>       0.01851852 </v>
   <v>       0.00925926 </v>
   <v>       0.00925926 </v>
   <v>       0.01851852 </v>
   <v>       0.00462963 </v>
   <v>       0.00462963 </v>
   <v>       0.00925926 </v>
   <v>       0.00925926 </v>
   <v>       0.01851852 </v>
   <v>       0.00925926 </v>
   <v>       0.01851852 </v>
   <v>       0.01851852 </v>
   <v>       0.01851852 </v>
   <v>       0.01851852 </v>
   <v>       0.00925926 </v>
   <v>       0.01851852 </v>
   <v>       0.00925926 </v>
   <v>       0.01851852 </v>
   <v>       0.01851852 </v>
   <v>       0.01851852 </v>
   <v>       0.01851852 </v>
   <v>       0.00925926 </v>
   <v>       0.01851852 </v>
   <v>       0.00925926 </v>
   <v>       0.01851852 </v>
   <v>       0.01851852 </v>
   <v>       0.01851852 </v>
   <v>       0.01851852 </v>
   <v>       0.00925926 </v>
   <v>       0.01851852 </v>
   <v>       0.00925926 </v>
   <v>       0.01851852 </v>
   <v>       0.01851852 </v>
   <v>       0.00925926 </v>
   <v>       0.00925926 </v>
   <v>       0.01851852 </v>
   <v>       0.00925926 </v>
   <v>       0.01851852 </v>
   <v>       0.01851852 </v>
   <v>       0.01851852 </v>
   <v>       0.01851852 </v>
   <v>       0.00925926 </v>
   <v>       0.01851852 </v>
   <v>       0.00925926 </v>
   <v>       0.01851852 </v>
   <v>       0.01851852 </v>
   <v>       0.00925926 </v>
   <v>       0.00462963 </v>
   <v>       0.00925926 </v>
   <v>       0.01851852 </v>
   <v>       0.01851852 </v>
   <v>       0.01851852 </v>
   <v>       0.01851852 </v>
   <v>       0.01851852 </v>
   <v>       0.01851852 </v>
   <v>       0.01851852 </v>
   <v>       0.00925926 </v>
   <v>       0.01851852 </v>
   <v>       0.01851852 </v>
   <v>       0.01851852 </v>
   <v>       0.00925926 </v>
   <v>       0.01851852 </v>
   <v>       0.01851852 </v>
   <v>       0.01851852 </v>
   <v>       0.01851852 </v>
  </varray>
  <varray name="tetrahedronlist"  type="int" >
   <v type="int" >        4        1        3        4       11 </v>
   <v type="int" >        4        1        2        4       11 </v>
   <v type="int" >        4        1        2        4       12 </v>
   <v type="int" >        4        1        3        4       12 </v>
   <v type="int" >        4        1        4        4       12 </v>
   <v type="int" >        4        2       11       13       36 </v>
   <v type="int" >        4        2        5       13       36 </v>
   <v type="int" >        4        2        5       19       36 </v>
   <v type="int" >        4        2        4       11       36 </v>
   <v type="int" >        4        2        4       12       36 </v>
   <v type="int" >        4        2       12       19       36 </v>
   <v type="int" >        4        5       13       20       33 </v>
   <v type="int" >        4        5        8       20       33 </v>
   <v type="int" >        4        5        8       26       33 </v>
   <v type="int" >        4        5       13       33       36 </v>
   <v type="int" >        4        5       19       33       36 </v>
   <v type="int" >        4        5       19       26       33 </v>
   <v type="int" >        4        8       20       26       27 </v>
   <v type="int" >        4        5        8       26       27 </v>
   <v type="int" >        4        8       20       26       33 </v>
   <v type="int" >        4        8       26       26       33 </v>
   <v type="int" >        4        5       19       27       34 </v>
   <v type="int" >        4        2        5       19       34 </v>
   <v type="int" >        4        5       19       26       27 </v>
   <v type="int" >        4        2        3       12       34 </v>
   <v type="int" >        4        1        2        3       12 </v>
   <v type="int" >        4        2       12       19       34 </v>
   <v type="int" >        4        3        6       18       35 </v>
   <v type="int" >        4        3       11       18       35 </v>
   <v type="int" >        4        3        4       11       35 </v>
   <v type="int" >        4        3        6       14       35 </v>
   <v type="int" >        4        3       12       14       35 </v>
   <v type="int" >        4        3        4       12       35 </v>
   <v type="int" >        4       11       16       18       38 </v>
   <v type="int" >        4       11       13       16       38 </v>
   <v type="int" >        4       11       13       16       36 </v>
   <v type="int" >        4       11       16       18       35 </v>
   <v type="int" >        4        4       11       16       35 </v>
   <v type="int" >        4        4       11       16       36 </v>
   <v type="int" >        4       13       38       40       53 </v>
   <v type="int" >        4       13       20       40       53 </v>
   <v type="int" >        4       13       20       33       53 </v>
   <v type="int" >        4       13       16       38       53 </v>
   <v type="int" >        4       13       16       36       53 </v>
   <v type="int" >        4       13       33       36       53 </v>
   <v type="int" >        4       20       40       47       59 </v>
   <v type="int" >        4       20       27       47       59 </v>
   <v type="int" >        4       20       26       27       59 </v>
   <v type="int" >        4       20       40       53       59 </v>
   <v type="int" >        4       20       33       53       59 </v>
   <v type="int" >        4       20       26       33       59 </v>
   <v type="int" >        4       27       32       47       57 </v>
   <v type="int" >        4       27       32       34       57 </v>
   <v type="int" >        4       19       27       34       57 </v>
   <v type="int" >        4       27       47       57       59 </v>
   <v type="int" >        4       26       27       57       59 </v>
   <v type="int" >        4       19       26       27       57 </v>
   <v type="int" >        4        6       14       32       34 </v>
   <v type="int" >        4        3        6       14       34 </v>
   <v type="int" >        4        3       12       14       34 </v>
   <v type="int" >        4       14       32       34       57 </v>
   <v type="int" >        4       14       19       34       57 </v>
   <v type="int" >        4       12       14       19       34 </v>
   <v type="int" >        4        6        9       25       28 </v>
   <v type="int" >        4        6       18       25       28 </v>
   <v type="int" >        4        6       18       28       35 </v>
   <v type="int" >        4        6        9       21       28 </v>
   <v type="int" >        4        6       14       21       28 </v>
   <v type="int" >        4        6       14       28       35 </v>
   <v type="int" >        4       18       25       45       58 </v>
   <v type="int" >        4       18       38       45       58 </v>
   <v type="int" >        4       16       18       38       58 </v>
   <v type="int" >        4       18       25       28       58 </v>
   <v type="int" >        4       18       28       35       58 </v>
   <v type="int" >        4       16       18       35       58 </v>
   <v type="int" >        4       38       43       45       51 </v>
   <v type="int" >        4       38       40       43       51 </v>
   <v type="int" >        4       38       40       43       53 </v>
   <v type="int" >        4       38       43       45       58 </v>
   <v type="int" >        4       16       38       43       58 </v>
   <v type="int" >        4       16       38       43       53 </v>
   <v type="int" >        4       40       45       51       66 </v>
   <v type="int" >        4       40       45       47       66 </v>
   <v type="int" >        4       40       47       59       66 </v>
   <v type="int" >        4       40       43       51       66 </v>
   <v type="int" >        4       40       43       53       66 </v>
   <v type="int" >        4       40       53       59       66 </v>
   <v type="int" >        4       25       45       47       63 </v>
   <v type="int" >        4       25       32       47       63 </v>
   <v type="int" >        4       32       47       57       63 </v>
   <v type="int" >        4       45       47       63       66 </v>
   <v type="int" >        4       47       59       63       66 </v>
   <v type="int" >        4       47       57       59       63 </v>
   <v type="int" >        4        9       21       25       32 </v>
   <v type="int" >        4        6        9       21       32 </v>
   <v type="int" >        4        6       14       21       32 </v>
   <v type="int" >        4       21       25       32       63 </v>
   <v type="int" >        4       21       32       57       63 </v>
   <v type="int" >        4       14       21       32       57 </v>
   <v type="int" >        4        9       21       25       28 </v>
   <v type="int" >        4        9       21       21       28 </v>
   <v type="int" >        4       25       45       58       63 </v>
   <v type="int" >        4       21       25       28       63 </v>
   <v type="int" >        4       25       28       58       63 </v>
   <v type="int" >        4       43       45       51       66 </v>
   <v type="int" >        4       45       58       63       66 </v>
   <v type="int" >        4       43       45       58       66 </v>
   <v type="int" >        4       43       43       51       66 </v>
   <v type="int" >        4        4        4       12       37 </v>
   <v type="int" >        4        4       12       15       37 </v>
   <v type="int" >        4        4       12       17       37 </v>
   <v type="int" >        4        4        7       17       37 </v>
   <v type="int" >        4        4        7       15       37 </v>
   <v type="int" >        4        4       12       17       36 </v>
   <v type="int" >        4       12       17       19       36 </v>
   <v type="int" >        4       12       17       19       39 </v>
   <v type="int" >        4       12       15       17       37 </v>
   <v type="int" >        4       12       15       17       39 </v>
   <v type="int" >        4       19       33       36       56 </v>
   <v type="int" >        4       19       26       33       56 </v>
   <v type="int" >        4       19       26       46       56 </v>
   <v type="int" >        4       17       19       36       56 </v>
   <v type="int" >        4       17       19       39       56 </v>
   <v type="int" >        4       19       39       46       56 </v>
   <v type="int" >        4       26       26       33       64 </v>
   <v type="int" >        4       26       33       49       64 </v>
   <v type="int" >        4       26       33       56       64 </v>
   <v type="int" >        4       26       46       56       64 </v>
   <v type="int" >        4       26       46       49       64 </v>
   <v type="int" >        4       29       33       36       56 </v>
   <v type="int" >        4       33       49       56       64 </v>
   <v type="int" >        4       29       33       49       56 </v>
   <v type="int" >        4        4        7       17       36 </v>
   <v type="int" >        4       17       29       36       56 </v>
   <v type="int" >        4        7       17       29       36 </v>
   <v type="int" >        4       12       14       15       35 </v>
   <v type="int" >        4        4       12       15       35 </v>
   <v type="int" >        4       12       14       15       39 </v>
   <v type="int" >        4        4        7       16       35 </v>
   <v type="int" >        4        4        7       16       36 </v>
   <v type="int" >        4        4        7       15       35 </v>
   <v type="int" >        4       16       29       36       53 </v>
   <v type="int" >        4       29       33       36       53 </v>
   <v type="int" >        4        7       16       29       36 </v>
   <v type="int" >        4       33       49       53       59 </v>
   <v type="int" >        4       26       33       49       59 </v>
   <v type="int" >        4       29       33       49       53 </v>
   <v type="int" >        4       26       46       57       59 </v>
   <v type="int" >        4       19       26       46       57 </v>
   <v type="int" >        4       26       46       49       59 </v>
   <v type="int" >        4       14       19       39       57 </v>
   <v type="int" >        4       12       14       19       39 </v>
   <v type="int" >        4       19       39       46       57 </v>
   <v type="int" >        4       14       21       28       54 </v>
   <v type="int" >        4       14       28       35       54 </v>
   <v type="int" >        4       14       15       35       54 </v>
   <v type="int" >        4       14       21       41       54 </v>
   <v type="int" >        4       14       39       41       54 </v>
   <v type="int" >        4       14       15       39       54 </v>
   <v type="int" >        4       28       31       35       58 </v>
   <v type="int" >        4       16       31       35       58 </v>
   <v type="int" >        4        7       16       31       35 </v>
   <v type="int" >        4       28       31       35       54 </v>
   <v type="int" >        4       15       31       35       54 </v>
   <v type="int" >        4        7       15       31       35 </v>
   <v type="int" >        4       16       23       43       58 </v>
   <v type="int" >        4       16       23       43       53 </v>
   <v type="int" >        4       16       23       29       53 </v>
   <v type="int" >        4       16       23       31       58 </v>
   <v type="int" >        4        7       16       23       31 </v>
   <v type="int" >        4        7       16       23       29 </v>
   <v type="int" >        4       43       53       61       66 </v>
   <v type="int" >        4       53       59       61       66 </v>
   <v type="int" >        4       49       53       59       61 </v>
   <v type="int" >        4       23       43       53       61 </v>
   <v type="int" >        4       23       29       53       61 </v>
   <v type="int" >        4       29       49       53       61 </v>
   <v type="int" >        4       59       63       66       68 </v>
   <v type="int" >        4       57       59       63       68 </v>
   <v type="int" >        4       46       57       59       68 </v>
   <v type="int" >        4       59       61       66       68 </v>
   <v type="int" >        4       49       59       61       68 </v>
   <v type="int" >        4       46       49       59       68 </v>
   <v type="int" >        4       21       41       57       63 </v>
   <v type="int" >        4       14       21       41       57 </v>
   <v type="int" >        4       14       39       41       57 </v>
   <v type="int" >        4       41       57       63       68 </v>
   <v type="int" >        4       41       46       57       68 </v>
   <v type="int" >        4       39       41       46       57 </v>
   <v type="int" >        4       21       21       28       60 </v>
   <v type="int" >        4       21       28       54       60 </v>
   <v type="int" >        4       21       28       48       60 </v>
   <v type="int" >        4       21       41       48       60 </v>
   <v type="int" >        4       21       41       54       60 </v>
   <v type="int" >        4       21       28       48       63 </v>
   <v type="int" >        4       28       48       58       63 </v>
   <v type="int" >        4       28       31       48       58 </v>
   <v type="int" >        4       28       48       54       60 </v>
   <v type="int" >        4       28       31       48       54 </v>
   <v type="int" >        4       58       63       65       66 </v>
   <v type="int" >        4       43       58       65       66 </v>
   <v type="int" >        4       23       43       58       65 </v>
   <v type="int" >        4       48       58       63       65 </v>
   <v type="int" >        4       31       48       58       65 </v>
   <v type="int" >        4       23       31       58       65 </v>
   <v type="int" >        4       43       43       50       66 </v>
   <v type="int" >        4       43       50       61       66 </v>
   <v type="int" >        4       43       50       65       66 </v>
   <v type="int" >        4       23       43       50       65 </v>
   <v type="int" >        4       23       43       50       61 </v>
   <v type="int" >        4       63       65       66       68 </v>
   <v type="int" >        4       50       61       65       66 </v>
   <v type="int" >        4       61       65       66       68 </v>
   <v type="int" >        4       21       41       48       63 </v>
   <v type="int" >        4       48       63       65       68 </v>
   <v type="int" >        4       41       48       63       68 </v>
   <v type="int" >        4        7       17       30       37 </v>
   <v type="int" >        4        7       15       30       37 </v>
   <v type="int" >        4        7       15       22       30 </v>
   <v type="int" >        4        7       17       24       30 </v>
   <v type="int" >        4        7       10       24       30 </v>
   <v type="int" >        4        7       10       22       30 </v>
   <v type="int" >        4       15       17       37       55 </v>
   <v type="int" >        4       15       17       39       55 </v>
   <v type="int" >        4       15       39       42       55 </v>
   <v type="int" >        4       15       30       37       55 </v>
   <v type="int" >        4       15       22       30       55 </v>
   <v type="int" >        4       15       22       42       55 </v>
   <v type="int" >        4       17       39       44       56 </v>
   <v type="int" >        4       39       44       46       56 </v>
   <v type="int" >        4       39       44       46       52 </v>
   <v type="int" >        4       17       39       44       55 </v>
   <v type="int" >        4       39       42       44       55 </v>
   <v type="int" >        4       39       42       44       52 </v>
   <v type="int" >        4       46       56       64       67 </v>
   <v type="int" >        4       46       49       64       67 </v>
   <v type="int" >        4       42       46       49       67 </v>
   <v type="int" >        4       44       46       56       67 </v>
   <v type="int" >        4       44       46       52       67 </v>
   <v type="int" >        4       42       46       52       67 </v>
   <v type="int" >        4       49       56       62       64 </v>
   <v type="int" >        4       29       49       56       62 </v>
   <v type="int" >        4       22       29       49       62 </v>
   <v type="int" >        4       49       62       64       67 </v>
   <v type="int" >        4       42       49       62       67 </v>
   <v type="int" >        4       22       42       49       62 </v>
   <v type="int" >        4       17       24       29       56 </v>
   <v type="int" >        4        7       17       24       29 </v>
   <v type="int" >        4        7       10       24       29 </v>
   <v type="int" >        4       24       29       56       62 </v>
   <v type="int" >        4       22       24       29       62 </v>
   <v type="int" >        4       10       22       24       29 </v>
   <v type="int" >        4       17       30       37       55 </v>
   <v type="int" >        4       17       24       44       55 </v>
   <v type="int" >        4       17       24       30       55 </v>
   <v type="int" >        4       30       30       37       55 </v>
   <v type="int" >        4       17       24       44       56 </v>
   <v type="int" >        4       56       62       64       67 </v>
   <v type="int" >        4       24       44       56       62 </v>
   <v type="int" >        4       44       56       62       67 </v>
   <v type="int" >        4       62       64       67       67 </v>
   <v type="int" >        4       39       41       42       54 </v>
   <v type="int" >        4       15       39       42       54 </v>
   <v type="int" >        4       39       41       42       52 </v>
   <v type="int" >        4       15       22       31       54 </v>
   <v type="int" >        4        7       15       22       31 </v>
   <v type="int" >        4       15       22       42       54 </v>
   <v type="int" >        4        7       10       23       31 </v>
   <v type="int" >        4        7       10       23       29 </v>
   <v type="int" >        4        7       10       22       31 </v>
   <v type="int" >        4       22       23       29       61 </v>
   <v type="int" >        4       22       29       49       61 </v>
   <v type="int" >        4       10       22       23       29 </v>
   <v type="int" >        4       42       49       61       68 </v>
   <v type="int" >        4       42       46       49       68 </v>
   <v type="int" >        4       22       42       49       61 </v>
   <v type="int" >        4       41       46       52       68 </v>
   <v type="int" >        4       39       41       46       52 </v>
   <v type="int" >        4       42       46       52       68 </v>
   <v type="int" >        4       41       48       60       67 </v>
   <v type="int" >        4       41       54       60       67 </v>
   <v type="int" >        4       41       42       54       67 </v>
   <v type="int" >        4       41       44       48       67 </v>
   <v type="int" >        4       41       44       52       67 </v>
   <v type="int" >        4       41       42       52       67 </v>
   <v type="int" >        4       48       54       60       62 </v>
   <v type="int" >        4       31       48       54       62 </v>
   <v type="int" >        4       22       31       54       62 </v>
   <v type="int" >        4       54       60       62       67 </v>
   <v type="int" >        4       42       54       62       67 </v>
   <v type="int" >        4       22       42       54       62 </v>
   <v type="int" >        4       24       31       48       65 </v>
   <v type="int" >        4       23       24       31       65 </v>
   <v type="int" >        4       10       23       24       31 </v>
   <v type="int" >        4       24       31       48       62 </v>
   <v type="int" >        4       22       24       31       62 </v>
   <v type="int" >        4       10       22       24       31 </v>
   <v type="int" >        4       23       30       50       65 </v>
   <v type="int" >        4       23       30       50       61 </v>
   <v type="int" >        4       22       23       30       61 </v>
   <v type="int" >        4       23       24       30       65 </v>
   <v type="int" >        4       10       23       24       30 </v>
   <v type="int" >        4       10       22       23       30 </v>
   <v type="int" >        4       50       55       61       65 </v>
   <v type="int" >        4       55       61       65       68 </v>
   <v type="int" >        4       42       55       61       68 </v>
   <v type="int" >        4       30       50       55       61 </v>
   <v type="int" >        4       22       30       55       61 </v>
   <v type="int" >        4       22       42       55       61 </v>
   <v type="int" >        4       44       48       65       68 </v>
   <v type="int" >        4       41       44       48       68 </v>
   <v type="int" >        4       41       44       52       68 </v>
   <v type="int" >        4       44       55       65       68 </v>
   <v type="int" >        4       42       44       55       68 </v>
   <v type="int" >        4       42       44       52       68 </v>
   <v type="int" >        4       48       60       62       67 </v>
   <v type="int" >        4       24       44       48       62 </v>
   <v type="int" >        4       44       48       62       67 </v>
   <v type="int" >        4       60       62       67       67 </v>
   <v type="int" >        4       24       44       48       65 </v>
   <v type="int" >        4       30       50       55       65 </v>
   <v type="int" >        4       24       44       55       65 </v>
   <v type="int" >        4       24       30       55       65 </v>
   <v type="int" >        4       30       30       50       55 </v>
  </varray>
  <i name="volumeweight">      0.00077160 </i>
 </kpoints>
 <parameters>
  <separator name="general" >
   <i type="string" name="SYSTEM">unknown system</i>
   <i type="logical" name="LCOMPAT"> F  </i>
  </separator>
  <separator name="electronic" >
   <i type="string" name="PREC">accura</i>
   <i name="ENMAX">    680.00000000</i>
   <i name="ENAUG">   1360.00000000</i>
   <i name="EDIFF">      0.00001000</i>
   <i type="int" name="IALGO">    38</i>
   <i type="int" name="IWAVPR">    10</i>
   <i type="int" name="NBANDS">     8</i>
   <i type="int" name="NBANDSLOW">    -1</i>
   <i type="int" name="NBANDSHIGH">    -1</i>
   <i name="NELECT">      8.00000000</i>
   <i type="int" name="TURBO">     0</i>
   <i type="int" name="IRESTART">     0</i>
   <i type="int" name="NREBOOT">     0</i>
   <i type="int" name="NMIN">     0</i>
   <i name="EREF">      0.00000000</i>
   <separator name="electronic smearing" >
    <i type="int" name="ISMEAR">    -5</i>
    <i name="SIGMA">      0.05000000</i>
    <i name="KSPACING">      0.50000000</i>
    <i type="logical" name="KGAMMA"> T  </i>
    <i type="logical" name="KBLOWUP"> T  </i>
   </separator>
   <separator name="electronic projectors" >
    <i type="logical" name="LREAL"> T  </i>
    <v name="ROPT">     -0.00025000</v>
    <i type="int" name="LMAXPAW">  -100</i>
    <i type="int" name="LMAXMIX">     2</i>
    <i type="logical" name="NLSPLINE"> F  </i>
   </separator>
   <separator name="electronic startup" >
    <i type="int" name="ISTART">     0</i>
    <i type="int" name="ICHARG">     2</i>
    <i type="int" name="INIWAV">     1</i>
   </separator>
   <separator name="electronic spin" >
    <i type="int" name="ISPIN">     1</i>
    <i type="logical" name="LNONCOLLINEAR"> F  </i>
    <v name="MAGMOM">      0.60000000      0.60000000</v>
    <i name="NUPDOWN">     -1.00000000</i>
    <i type="logical" name="LSORBIT"> F  </i>
    <v name="SAXIS">      0.00000000      0.00000000      1.00000000</v>
    <i type="logical" name="LSPIRAL"> F  </i>
    <v name="QSPIRAL">      0.00000000      0.00000000      0.00000000</v>
    <i type="logical" name="LZEROZ"> F  </i>
   </separator>
   <separator name="electronic exchange-correlation" >
    <i type="logical" name="LASPH"> T  </i>
    <i type="logical" name="LMETAGGA"> F  </i>
   </separator>
   <separator name="electronic convergence" >
    <i type="int" name="NELM">   200</i>
    <i type="int" name="NELMDL">    -5</i>
    <i type="int" name="NELMIN">     2</i>
    <i name="ENINI">    680.00000000</i>
    <separator name="electronic convergence detail" >
     <i type="logical" name="LDIAG"> T  </i>
     <i type="logical" name="LSUBROT"> F  </i>
     <i name="WEIMIN">      0.00000000</i>
     <i name="EBREAK">      0.00000031</i>
     <i name="DEPER">      0.30000000</i>
     <i type="int" name="NRMM">     4</i>
     <i name="TIME">      0.40000000</i>
    </separator>
   </separator>
   <separator name="electronic mixer" >
    <i name="AMIX">      0.40000000</i>
    <i name="BMIX">      1.00000000</i>
    <i name="AMIN">      0.10000000</i>
    <i name="AMIX_MAG">      1.60000000</i>
    <i name="BMIX_MAG">      1.00000000</i>
    <separator name="electronic mixer details" >
     <i type="int" name="IMIX">     4</i>
     <i type="logical" name="MIXFIRST"> F  </i>
     <i type="int" name="MAXMIX">   -45</i>
     <i name="WC">    100.00000000</i>
     <i type="int" name="INIMIX">     1</i>
     <i type="int" name="MIXPRE">     1</i>
     <i type="int" name="MREMOVE">     5</i>
    </separator>
   </separator>
   <separator name="electronic dipolcorrection" >
    <i type="logical" name="LDIPOL"> F  </i>
    <i type="logical" name="LMONO"> F  </i>
    <i type="int" name="IDIPOL">     0</i>
    <i name="EPSILON">      1.00000000</i>
    <v name="DIPOL">   -100.00000000   -100.00000000   -100.00000000</v>
    <i name="EFIELD">      0.00000000</i>
   </separator>
  </separator>
  <separator name="grids" >
   <i type="int" name="NGX">    36</i>
   <i type="int" name="NGY">    36</i>
   <i type="int" name="NGZ">    36</i>
   <i type="int" name="NGXF">    72</i>
   <i type="int" name="NGYF">    72</i>
   <i type="int" name="NGZF">    72</i>
   <i type="logical" name="ADDGRID"> F  </i>
  </separator>
  <separator name="ionic" >
   <i type="int" name="NSW">     1</i>
   <i type="int" name="IBRION">    -1</i>
   <i type="int" name="MDALGO">     0</i>
   <i type="int" name="ISIF">     3</i>
   <i name="PSTRESS">      0.00000000</i>
   <i name="EDIFFG">     -0.02000000</i>
   <i type="int" name="NFREE">     0</i>
   <i name="POTIM">      0.50000000</i>
   <i name="SMASS">     -3.00000000</i>
   <i name="SCALEE">      1.00000000</i>
  </separator>
  <separator name="ionic md" >
   <i name="TEBEG">      0.00010000</i>
   <i name="TEEND">      0.00010000</i>
   <i type="int" name="NBLOCK">     1</i>
   <i type="int" name="KBLOCK">     1</i>
   <i type="int" name="NPACO">   256</i>
   <i name="APACO">     16.00000000</i>
  </separator>
  <separator name="symmetry" >
   <i type="int" name="ISYM">     2</i>
   <i name="SYMPREC">      0.00001000</i>
  </separator>
  <separator name="dos" >
   <i type="int" name="LORBIT">    11</i>
   <v name="RWIGS">     -1.00000000</v>
   <i type="int" name="NEDOS">   301</i>
   <i name="EMIN">     10.00000000</i>
   <i name="EMAX">    -10.00000000</i>
   <i name="EFERMI">      0.00000000</i>
  </separator>
  <separator name="writing" >
   <i type="int" name="NWRITE">     2</i>
   <i type="logical" name="LWAVE"> F  </i>
   <i type="logical" name="LDOWNSAMPLE"> F  </i>
   <i type="logical" name="LCHARG"> T  </i>
   <i type="logical" name="LPARD"> F  </i>
   <i type="logical" name="LVTOT"> T  </i>
   <i type="logical" name="LVHAR"> F  </i>
   <i type="logical" name="LELF"> T  </i>
   <i type="logical" name="LOPTICS"> F  </i>
   <v name="STM">      0.00000000      0.00000000      0.00000000      0.00000000      0.00000000      0.00000000      0.00000000</v>
  </separator>
  <separator name="performance" >
   <i type="int" name="NPAR">     1</i>
   <i type="int" name="NSIM">     4</i>
   <i type="int" name="NBLK">    -1</i>
   <i type="logical" name="LPLANE"> T  </i>
   <i type="logical" name="LSCALAPACK"> F  </i>
   <i type="logical" name="LSCAAWARE"> F  </i>
   <i type="logical" name="LSCALU"> F  </i>
   <i type="logical" name="LASYNC"> F  </i>
   <i type="logical" name="LORBITALREAL"> F  </i>
  </separator>
  <separator name="miscellaneous" >
   <i type="int" name="IDIOT">     3</i>
   <i type="int" name="PHON_NSTRUCT">    -1</i>
   <i type="logical" name="LMUSIC"> F  </i>
   <v name="POMASS">     28.08500000</v>
   <v name="DARWINR">      0.00000000</v>
   <v name="DARWINV">      1.00000000</v>
   <i type="logical" name="LCORR"> T  </i>
  </separator>
  <i type="logical" name="GGA_COMPAT"> T  </i>
  <i type="logical" name="LBERRY"> F  </i>
  <i type="int" name="ICORELEVEL">     0</i>
  <i type="logical" name="LDAU"> F  </i>
  <i type="int" name="I_CONSTRAINED_M">     0</i>
  <separator name="electronic exchange-correlation" >
   <i type="string" name="GGA">--</i>
   <i type="int" name="VOSKOWN">     0</i>
   <i type="logical" name="LHFCALC"> F  </i>
   <i type="string" name="PRECFOCK"></i>
   <i type="logical" name="LSYMGRAD"> F  </i>
   <i type="logical" name="LHFONE"> F  </i>
   <i type="logical" name="LRHFCALC"> F  </i>
   <i type="logical" name="LTHOMAS"> F  </i>
   <i type="logical" name="LMODELHF"> F  </i>
   <i type="logical" name="LFOCKACE"> F  </i>
   <i name="ENCUT4O">     -1.00000000</i>
   <i type="int" name="EXXOEP">     0</i>
   <i type="int" name="FOURORBIT">     0</i>
   <i name="AEXX">      0.00000000</i>
   <i name="HFALPHA">      0.00000000</i>
   <i name="MCALPHA">      0.00000000</i>
   <i name="ALDAX">      1.00000000</i>
   <i name="AGGAX">      1.00000000</i>
   <i name="ALDAC">      1.00000000</i>
   <i name="AGGAC">      1.00000000</i>
   <i type="int" name="NKREDX">     1</i>
   <i type="int" name="NKREDY">     1</i>
   <i type="int" name="NKREDZ">     1</i>
   <i type="logical" name="SHIFTRED"> F  </i>
   <i type="logical" name="ODDONLY"> F  </i>
   <i type="logical" name="EVENONLY"> F  </i>
   <i type="int" name="LMAXFOCK">     0</i>
   <i type="int" name="NMAXFOCKAE">     0</i>
   <i type="logical" name="LFOCKAEDFT"> F  </i>
   <i name="HFSCREEN">      0.00000000</i>
   <i name="HFSCREENC">      0.00000000</i>
   <i type="int" name="NBANDSGWLOW">     0</i>
  </separator>
  <separator name="vdW DFT" >
   <i type="logical" name="LUSE_VDW"> F  </i>
   <i name="Zab_VDW">     -0.84910000</i>
   <i name="PARAM1">      0.12340000</i>
   <i name="PARAM2">      1.00000000</i>
   <i name="PARAM3">      0.00000000</i>
  </separator>
  <separator name="model GW" >
   <i type="int" name="MODEL_GW">     0</i>
   <i name="MODEL_EPS0">     12.26648953</i>
   <i name="MODEL_ALPHA">      1.00000000</i>
  </separator>
  <separator name="linear response parameters" >
   <i type="logical" name="LEPSILON"> F  </i>
   <i type="logical" name="LRPA"> F  </i>
   <i type="logical" name="LNABLA"> F  </i>
   <i type="logical" name="LVEL"> F  </i>
   <i type="int" name="KINTER">     0</i>
   <i name="CSHIFT">      0.10000000</i>
   <i name="OMEGAMAX">     -1.00000000</i>
   <i name="DEG_THRESHOLD">      0.00200000</i>
   <i name="RTIME">     -0.10000000</i>
   <i name="WPLASMAI">      0.00000000</i>
   <v name="DFIELD">      0.00000000      0.00000000      0.00000000</v>
   <v name="WPLASMA">      0.00000000      0.00000000      0.00000000      0.00000000      0.00000000      0.00000000      0.00000000      0.00000000      0.00000000</v>
  </separator>
  <separator name="orbital magnetization" >
   <i type="logical" name="NUCIND"> F  </i>
   <v name="MAGPOS">      0.00000000      0.00000000      0.00000000</v>
   <i type="logical" name="LNICSALL"> T  </i>
   <i type="logical" name="ORBITALMAG"> F  </i>
   <i type="logical" name="LMAGBLOCH"> F  </i>
   <i type="logical" name="LCHIMAG"> F  </i>
   <i type="logical" name="LGAUGE"> T  </i>
   <i type="int" name="MAGATOM">     0</i>
   <v name="MAGDIPOL">      0.00000000      0.00000000      0.00000000</v>
   <v name="AVECCONST">      0.00000000      0.00000000      0.00000000</v>
  </separator>
  <separator name="response functions" >
   <i type="logical" name="LFINITE_TEMPERATURE"> F  </i>
   <i type="logical" name="LADDER"> F  </i>
   <i type="logical" name="LRPAFORCE"> F  </i>
   <i type="logical" name="LFXC"> F  </i>
   <i type="logical" name="LHARTREE"> T  </i>
   <i type="int" name="IBSE">     0</i>
   <v type="int" name="KPOINT">    -1     0     0     0</v>
   <i type="logical" name="LTCTC"> F  </i>
   <i type="logical" name="LTCTE"> F  </i>
   <i type="logical" name="LTETE"> F  </i>
   <i type="logical" name="LTRIPLET"> F  </i>
   <i type="logical" name="LFXCEPS"> F  </i>
   <i type="logical" name="LFXHEG"> F  </i>
   <i type="int" name="NATURALO">     2</i>
   <i type="logical" name="LHOLEGF"> F  </i>
   <i type="logical" name="L2ORDER"> F  </i>
   <i type="logical" name="LDMP1"> F  </i>
   <i type="logical" name="LMP2LT"> F  </i>
   <i type="logical" name="LSMP2LT"> F  </i>
   <i type="logical" name="LGWLF"> F  </i>
   <i name="ENCUTGW">     -2.00000000</i>
   <i name="ENCUTGWSOFT">     -2.00000000</i>
   <i name="ENCUTLF">     -1.00000000</i>
   <i type="logical" name="LESF_SPLINES"> F  </i>
   <i type="int" name="LMAXMP2">    -1</i>
   <i name="SCISSOR">      0.00000000</i>
   <i type="int" name="NOMEGA">     0</i>
   <i type="int" name="NOMEGAR">     0</i>
   <i type="int" name="NBANDSGW">    -1</i>
   <i type="int" name="NBANDSO">    -1</i>
   <i type="int" name="NBANDSV">    -1</i>
   <i type="int" name="NELM">   200</i>
   <i type="int" name="NELMHF">     1</i>
   <i type="int" name="DIM">     3</i>
   <i type="int" name="IESPILON">     4</i>
   <i type="int" name="ANTIRES">     0</i>
   <i name="OMEGAMAX">    -30.00000000</i>
   <i name="OMEGAMIN">    -30.00000000</i>
   <i name="OMEGATL">   -200.00000000</i>
   <i type="int" name="OMEGAGRID">     0</i>
   <i name="CSHIFT">     -0.10000000</i>
   <i type="logical" name="LSELFENERGY"> F  </i>
   <i type="logical" name="LSPECTRAL"> F  </i>
   <i type="logical" name="LSPECTRALGW"> F  </i>
   <i type="logical" name="LSINGLES"> F  </i>
   <i type="logical" name="LFERMIGW"> F  </i>
   <i type="logical" name="ODDONLYGW"> F  </i>
   <i type="logical" name="EVENONLYGW"> F  </i>
   <i type="int" name="NKREDLFX">     1</i>
   <i type="int" name="NKREDLFY">     1</i>
   <i type="int" name="NKREDLFZ">     1</i>
   <i type="int" name="MAXMEM">  2800</i>
   <i type="int" name="TELESCOPE">     0</i>
   <i type="int" name="NTAUPAR">    -1</i>
   <i type="int" name="NOMEGAPAR">    -1</i>
   <i name="DAMP_NEWTON">      0.80000001</i>
   <i name="LAMBDA">      1.00000000</i>
  </separator>
  <separator name="External order field" >
   <i name="OFIELD_KAPPA">      0.00000000</i>
   <v name="OFIELD_K">      0.00000000      0.00000000      0.00000000</v>
   <i name="OFIELD_Q6_NEAR">      0.00000000</i>
   <i name="OFIELD_Q6_FAR">      0.00000000</i>
   <i name="OFIELD_A">      0.00000000</i>
  </separator>
 </parameters>
 <atominfo>
  <atoms>       2 </atoms>
  <types>       1 </types>
  <array name="atoms" >
   <dimension dim="1">ion</dimension>
   <field type="string">element</field>
   <field type="int">atomtype</field>
   <set>
    <rc><c>Si</c><c>   1</c></rc>
    <rc><c>Si</c><c>   1</c></rc>
   </set>
  </array>
  <array name="atomtypes" >
   <dimension dim="1">type</dimension>
   <field type="int">atomspertype</field>
   <field type="string">element</field>
   <field>mass</field>
   <field>valence</field>
   <field type="string">pseudopotential</field>
   <set>
    <rc><c>   2</c><c>Si</c><c>     28.08500000</c><c>      4.00000000</c><c>  PAW_PBE Si 05Jan2001                  </c></rc>
   </set>
  </array>
 </atominfo>
 <structure name="initialpos" >
  <crystal>
   <varray name="basis" >
    <v>       3.34889800       0.00000000       1.93348700 </v>
    <v>       1.11629900       3.15737200       1.93348700 </v>
    <v>       0.00000000       0.00000000       3.86697500 </v>
   </varray>
   <i name="volume">     40.88829843 </i>
   <varray name="rec_basis" >
    <v>       0.29860569      -0.10557300       0.00000000 </v>
    <v>       0.00000000       0.31671909       0.00000000 </v>
    <v>      -0.14930281      -0.10557302       0.25860007 </v>
   </varray>
  </crystal>
  <varray name="positions" >
   <v>       0.24552100       0.25000000       0.25224000 </v>
   <v>       0.00000000       0.00000000       0.00000000 </v>
  </varray>
  <varray name="velocities" >
   <v>       0.00000000       0.00000000       0.00000000 </v>
   <v>       0.00000000       0.00000000       0.00000000 </v>
  </varray>
 </structure>
 <calculation>
  <scstep>
   <time name="dav">    1.12    1.14</time>
   <time name="total">    1.21    1.23</time>
   <energy>
    <i name="alphaZ">      3.29317992 </i>
    <i name="ewald">   -226.94227289 </i>
    <i name="hartreedc">    -11.32391806 </i>
    <i name="XCdc">    -18.68515112 </i>
    <i name="pawpsdc">    176.24759923 </i>
    <i name="pawaedc">   -141.06103558 </i>
    <i name="eentropy">      0.00000000 </i>
    <i name="bandstr">     22.11761375 </i>
    <i name="atom">    206.13322186 </i>
    <i name="e_fr_energy">      9.77923710 </i>
    <i name="e_wo_entrp">      9.77923710 </i>
    <i name="e_0_energy">      9.77923710 </i>
   </energy>
  </scstep>
  <scstep>
   <time name="dav">    1.48    1.48</time>
   <time name="total">    1.48    1.49</time>
   <energy>
    <i name="e_fr_energy">    -10.61805800 </i>
    <i name="e_wo_entrp">    -10.61805800 </i>
    <i name="e_0_energy">    -10.61805800 </i>
   </energy>
  </scstep>
  <scstep>
   <time name="dav">    1.28    1.29</time>
   <time name="total">    1.29    1.29</time>
   <energy>
    <i name="e_fr_energy">    -10.99607892 </i>
    <i name="e_wo_entrp">    -10.99607892 </i>
    <i name="e_0_energy">    -10.99607892 </i>
   </energy>
  </scstep>
  <scstep>
   <time name="dav">    1.68    1.69</time>
   <time name="total">    1.68    1.69</time>
   <energy>
    <i name="e_fr_energy">    -10.99808122 </i>
    <i name="e_wo_entrp">    -10.99808122 </i>
    <i name="e_0_energy">    -10.99808122 </i>
   </energy>
  </scstep>
  <scstep>
   <time name="dav">    1.27    1.28</time>
   <time name="total">    1.32    1.32</time>
   <energy>
    <i name="e_fr_energy">    -10.99808314 </i>
    <i name="e_wo_entrp">    -10.99808314 </i>
    <i name="e_0_energy">    -10.99808314 </i>
   </energy>
  </scstep>
  <scstep>
   <time name="dav">    1.22    1.22</time>
   <time name="total">    1.34    1.35</time>
   <energy>
    <i name="e_fr_energy">    -10.87947741 </i>
    <i name="e_wo_entrp">    -10.87947741 </i>
    <i name="e_0_energy">    -10.87947741 </i>
   </energy>
  </scstep>
  <scstep>
   <time name="dav">    1.25    1.25</time>
   <time name="total">    1.38    1.38</time>
   <energy>
    <i name="e_fr_energy">    -10.82461110 </i>
    <i name="e_wo_entrp">    -10.82461110 </i>
    <i name="e_0_energy">    -10.82461110 </i>
   </energy>
  </scstep>
  <scstep>
   <time name="dav">    1.14    1.15</time>
   <time name="total">    1.27    1.27</time>
   <energy>
    <i name="e_fr_energy">    -10.82579491 </i>
    <i name="e_wo_entrp">    -10.82579491 </i>
    <i name="e_0_energy">    -10.82579491 </i>
   </energy>
  </scstep>
  <scstep>
   <time name="dav">    1.36    1.36</time>
   <time name="total">    1.49    1.49</time>
   <energy>
    <i name="e_fr_energy">    -10.82600362 </i>
    <i name="e_wo_entrp">    -10.82600362 </i>
    <i name="e_0_energy">    -10.82600362 </i>
   </energy>
  </scstep>
  <scstep>
   <time name="dav">    1.14    1.15</time>
   <time name="total">    1.28    1.28</time>
   <energy>
    <i name="e_fr_energy">    -10.82603194 </i>
    <i name="e_wo_entrp">    -10.82603194 </i>
    <i name="e_0_energy">    -10.82603194 </i>
   </energy>
  </scstep>
  <scstep>
   <time name="dav">    0.84    0.85</time>
   <time name="total">    0.93    0.93</time>
   <energy>
    <i name="alphaZ">      3.29317992 </i>
    <i name="ewald">   -226.94227289 </i>
    <i name="hartreedc">    -15.23128132 </i>
    <i name="XCdc">    -18.05408031 </i>
    <i name="pawpsdc">    830.94731644 </i>
    <i name="pawaedc">   -795.96751412 </i>
    <i name="eentropy">      0.00000000 </i>
    <i name="bandstr">      4.99539885 </i>
    <i name="atom">    206.13322186 </i>
    <i name="e_fr_energy">    -10.82603158 </i>
    <i name="e_wo_entrp">    -10.82603158 </i>
    <i name="e_0_energy">    -10.82603158 </i>
   </energy>
  </scstep>
  <structure>
   <crystal>
    <varray name="basis" >
     <v>       3.34889800       0.00000000       1.93348700 </v>
     <v>       1.11629900       3.15737200       1.93348700 </v>
     <v>       0.00000000       0.00000000       3.86697500 </v>
    </varray>
    <i name="volume">     40.88829843 </i>
    <varray name="rec_basis" >
     <v>       0.29860569      -0.10557300       0.00000000 </v>
     <v>       0.00000000       0.31671909       0.00000000 </v>
     <v>      -0.14930281      -0.10557302       0.25860007 </v>
    </varray>
   </crystal>
   <varray name="positions" >
    <v>       0.24552100       0.25000000       0.25224000 </v>
    <v>       0.00000000       0.00000000       0.00000000 </v>
   </varray>
  </structure>
  <varray name="forces" >
   <v>       0.19434663       0.00315952      -0.00000003 </v>
   <v>      -0.19434663      -0.00315952       0.00000003 </v>
  </varray>
  <varray name="stress" >
   <v>      -3.56849194       2.95144138       0.00000022 </v>
   <v>       2.95144136       0.62320521      -0.00000051 </v>
   <v>       0.00000022      -0.00000051       4.91827910 </v>
  </varray>
  <energy>
   <i name="e_fr_energy">    -10.82603158 </i>
   <i name="e_wo_entrp">    -10.82603158 </i>
   <i name="e_0_energy">    -10.82603158 </i>
  </energy>
  <time name="totalsc">   16.59   16.68</time>
  <eigenvalues>
   <array>
    <dimension dim="1">band</dimension>
    <dimension dim="2">kpoint</dimension>
    <dimension dim="3">spin</dimension>
    <field>eigene</field>
    <field>occ</field>
    <set>
     <set comment="spin 1">
      <set comment="kpoint 1">
       <r>   -6.1928    1.0000 </r>
       <r>    5.5654    1.0000 </r>
       <r>    5.6027    1.0000 </r>
       <r>    5.7041    1.0000 </r>
       <r>    8.1302    0.0000 </r>
       <r>    8.1896    0.0000 </r>
       <r>    8.2121    0.0000 </r>
       <r>    8.7573    0.0000 </r>
      </set>
      <set comment="kpoint 2">
       <r>   -5.8396    1.0000 </r>
       <r>    3.3050    1.0000 </r>
       <r>    5.1400    1.0000 </r>
       <r>    5.1738    1.0000 </r>
       <r>    7.8820    0.0000 </r>
       <r>    8.7995    0.0000 </r>
       <r>    8.8257    0.0000 </r>
       <r>   10.9191    0.0000 </r>
      </set>
      <set comment="kpoint 3">
       <r>   -5.8381    1.0000 </r>
       <r>    3.2592    1.0000 </r>
       <r>    5.1325    1.0000 </r>
       <r>    5.2337    1.0000 </r>
       <r>    7.9069    0.0000 </r>
       <r>    8.7752    0.0000 </r>
       <r>    8.8516    0.0000 </r>
       <r>   10.9019    0.0000 </r>
      </set>
      <set comment="kpoint 4">
       <r>   -5.8373    1.0000 </r>
       <r>    3.2366    1.0000 </r>
       <r>    5.1517    1.0000 </r>
       <r>    5.2400    1.0000 </r>
       <r>    7.9200    0.0000 </r>
       <r>    8.7802    0.0000 </r>
       <r>    8.8471    0.0000 </r>
       <r>   10.8934    0.0000 </r>
      </set>
      <set comment="kpoint 5">
       <r>   -4.8515    1.0000 </r>
       <r>    0.3959    1.0000 </r>
       <r>    4.6085    1.0000 </r>
       <r>    4.6400    1.0000 </r>
       <r>    7.2954    0.0000 </r>
       <r>    9.0843    0.0000 </r>
       <r>    9.1203    0.0000 </r>
       <r>   13.3965    0.0000 </r>
      </set>
      <set comment="kpoint 6">
       <r>   -4.8425    1.0000 </r>
       <r>    0.3528    1.0000 </r>
       <r>    4.5941    1.0000 </r>
       <r>    4.6879    1.0000 </r>
       <r>    7.3143    0.0000 </r>
       <r>    9.0704    0.0000 </r>
       <r>    9.1775    0.0000 </r>
       <r>   13.4028    0.0000 </r>
      </set>
      <set comment="kpoint 7">
       <r>   -4.8381    1.0000 </r>
       <r>    0.3313    1.0000 </r>
       <r>    4.6081    1.0000 </r>
       <r>    4.6901    1.0000 </r>
       <r>    7.3241    0.0000 </r>
       <r>    9.0876    0.0000 </r>
       <r>    9.1821    0.0000 </r>
       <r>   13.4073    0.0000 </r>
      </set>
      <set comment="kpoint 8">
       <r>   -3.9412    1.0000 </r>
       <r>   -1.1872    1.0000 </r>
       <r>    4.4151    1.0000 </r>
       <r>    4.4464    1.0000 </r>
       <r>    7.0712    0.0000 </r>
       <r>    8.9290    0.0000 </r>
       <r>    8.9660    0.0000 </r>
       <r>   13.3016    0.0000 </r>
      </set>
      <set comment="kpoint 9">
       <r>   -3.9138    1.0000 </r>
       <r>   -1.2466    1.0000 </r>
       <r>    4.3984    1.0000 </r>
       <r>    4.4918    1.0000 </r>
       <r>    7.0884    0.0000 </r>
       <r>    8.9145    0.0000 </r>
       <r>    9.0247    0.0000 </r>
       <r>   13.3223    0.0000 </r>
      </set>
      <set comment="kpoint 10">
       <r>   -3.8996    1.0000 </r>
       <r>   -1.2766    1.0000 </r>
       <r>    4.4110    1.0000 </r>
       <r>    4.4928    1.0000 </r>
       <r>    7.0974    0.0000 </r>
       <r>    8.9321    0.0000 </r>
       <r>    9.0294    0.0000 </r>
       <r>   13.3330    0.0000 </r>
      </set>
      <set comment="kpoint 11">
       <r>   -5.7173    1.0000 </r>
       <r>    3.5687    1.0000 </r>
       <r>    4.4252    1.0000 </r>
       <r>    4.4915    1.0000 </r>
       <r>    7.3346    0.0000 </r>
       <r>    9.8329    0.0000 </r>
       <r>    9.9154    0.0000 </r>
       <r>    9.9324    0.0000 </r>
      </set>
      <set comment="kpoint 12">
       <r>   -5.7172    1.0000 </r>
       <r>    3.5667    1.0000 </r>
       <r>    4.4420    1.0000 </r>
       <r>    4.4769    1.0000 </r>
       <r>    7.3347    0.0000 </r>
       <r>    9.8318    0.0000 </r>
       <r>    9.9202    0.0000 </r>
       <r>    9.9276    0.0000 </r>
      </set>
      <set comment="kpoint 13">
       <r>   -4.9214    1.0000 </r>
       <r>    1.2552    1.0000 </r>
       <r>    3.6541    1.0000 </r>
       <r>    3.8884    1.0000 </r>
       <r>    7.5683    0.0000 </r>
       <r>    9.6537    0.0000 </r>
       <r>   10.1088    0.0000 </r>
       <r>   10.6415    0.0000 </r>
      </set>
      <set comment="kpoint 14">
       <r>   -4.9179    1.0000 </r>
       <r>    1.2274    1.0000 </r>
       <r>    3.6345    1.0000 </r>
       <r>    3.9325    1.0000 </r>
       <r>    7.5997    0.0000 </r>
       <r>    9.6340    0.0000 </r>
       <r>   10.1085    0.0000 </r>
       <r>   10.6407    0.0000 </r>
      </set>
      <set comment="kpoint 15">
       <r>   -4.9137    1.0000 </r>
       <r>    1.1868    1.0000 </r>
       <r>    3.7166    1.0000 </r>
       <r>    3.8962    1.0000 </r>
       <r>    7.5790    0.0000 </r>
       <r>    9.6032    0.0000 </r>
       <r>   10.1569    0.0000 </r>
       <r>   10.6942    0.0000 </r>
      </set>
      <set comment="kpoint 16">
       <r>   -4.9159    1.0000 </r>
       <r>    1.2101    1.0000 </r>
       <r>    3.6401    1.0000 </r>
       <r>    3.9432    1.0000 </r>
       <r>    7.6104    0.0000 </r>
       <r>    9.6213    0.0000 </r>
       <r>   10.1170    0.0000 </r>
       <r>   10.6466    0.0000 </r>
      </set>
      <set comment="kpoint 17">
       <r>   -4.9152    1.0000 </r>
       <r>    1.2020    1.0000 </r>
       <r>    3.6638    1.0000 </r>
       <r>    3.9299    1.0000 </r>
       <r>    7.5998    0.0000 </r>
       <r>    9.6156    0.0000 </r>
       <r>   10.1285    0.0000 </r>
       <r>   10.6638    0.0000 </r>
      </set>
      <set comment="kpoint 18">
       <r>   -4.9158    1.0000 </r>
       <r>    1.2046    1.0000 </r>
       <r>    3.7130    1.0000 </r>
       <r>    3.8829    1.0000 </r>
       <r>    7.5681    0.0000 </r>
       <r>    9.6157    0.0000 </r>
       <r>   10.1505    0.0000 </r>
       <r>   10.6873    0.0000 </r>
      </set>
      <set comment="kpoint 19">
       <r>   -4.9220    1.0000 </r>
       <r>    1.2629    1.0000 </r>
       <r>    3.6285    1.0000 </r>
       <r>    3.9045    1.0000 </r>
       <r>    7.5790    0.0000 </r>
       <r>    9.6597    0.0000 </r>
       <r>   10.0951    0.0000 </r>
       <r>   10.6253    0.0000 </r>
      </set>
      <set comment="kpoint 20">
       <r>   -3.7763    1.0000 </r>
       <r>   -0.8471    1.0000 </r>
       <r>    2.8845    1.0000 </r>
       <r>    3.8566    1.0000 </r>
       <r>    7.6314    0.0000 </r>
       <r>    9.6673    0.0000 </r>
       <r>   10.2172    0.0000 </r>
       <r>   12.0160    0.0000 </r>
      </set>
      <set comment="kpoint 21">
       <r>   -3.7545    1.0000 </r>
       <r>   -0.8991    1.0000 </r>
       <r>    2.8714    1.0000 </r>
       <r>    3.9003    1.0000 </r>
       <r>    7.6745    0.0000 </r>
       <r>    9.6819    0.0000 </r>
       <r>   10.2064    0.0000 </r>
       <r>   11.9760    0.0000 </r>
      </set>
      <set comment="kpoint 22">
       <r>   -3.7422    1.0000 </r>
       <r>   -0.9337    1.0000 </r>
       <r>    2.9316    1.0000 </r>
       <r>    3.8613    1.0000 </r>
       <r>    7.6458    0.0000 </r>
       <r>    9.6898    0.0000 </r>
       <r>   10.2719    0.0000 </r>
       <r>   11.9927    0.0000 </r>
      </set>
      <set comment="kpoint 23">
       <r>   -3.7432    1.0000 </r>
       <r>   -0.9264    1.0000 </r>
       <r>    2.8754    1.0000 </r>
       <r>    3.9120    1.0000 </r>
       <r>    7.6895    0.0000 </r>
       <r>    9.6913    0.0000 </r>
       <r>   10.2091    0.0000 </r>
       <r>   11.9607    0.0000 </r>
      </set>
      <set comment="kpoint 24">
       <r>   -3.7428    1.0000 </r>
       <r>   -0.9289    1.0000 </r>
       <r>    2.8933    1.0000 </r>
       <r>    3.8961    1.0000 </r>
       <r>    7.6745    0.0000 </r>
       <r>    9.6898    0.0000 </r>
       <r>   10.2316    0.0000 </r>
       <r>   11.9710    0.0000 </r>
      </set>
      <set comment="kpoint 25">
       <r>   -3.7535    1.0000 </r>
       <r>   -0.9062    1.0000 </r>
       <r>    2.9286    1.0000 </r>
       <r>    3.8484    1.0000 </r>
       <r>    7.6311    0.0000 </r>
       <r>    9.6819    0.0000 </r>
       <r>   10.2676    0.0000 </r>
       <r>   12.0079    0.0000 </r>
      </set>
      <set comment="kpoint 26">
       <r>   -3.7766    1.0000 </r>
       <r>   -0.8448    1.0000 </r>
       <r>    2.8656    1.0000 </r>
       <r>    3.8737    1.0000 </r>
       <r>    7.6461    0.0000 </r>
       <r>    9.6673    0.0000 </r>
       <r>   10.1963    0.0000 </r>
       <r>   12.0058    0.0000 </r>
      </set>
      <set comment="kpoint 27">
       <r>   -4.1441    1.0000 </r>
       <r>   -0.2650    1.0000 </r>
       <r>    2.6215    1.0000 </r>
       <r>    4.3184    1.0000 </r>
       <r>    8.0181    0.0000 </r>
       <r>    9.6831    0.0000 </r>
       <r>    9.8385    0.0000 </r>
       <r>   12.8303    0.0000 </r>
      </set>
      <set comment="kpoint 28">
       <r>   -4.1265    1.0000 </r>
       <r>   -0.3227    1.0000 </r>
       <r>    2.6181    1.0000 </r>
       <r>    4.3709    1.0000 </r>
       <r>    8.0596    0.0000 </r>
       <r>    9.6986    0.0000 </r>
       <r>    9.8184    0.0000 </r>
       <r>   12.8173    0.0000 </r>
      </set>
      <set comment="kpoint 29">
       <r>   -4.1260    1.0000 </r>
       <r>   -0.3308    1.0000 </r>
       <r>    2.6587    1.0000 </r>
       <r>    4.3268    1.0000 </r>
       <r>    8.0342    0.0000 </r>
       <r>    9.7100    0.0000 </r>
       <r>    9.8835    0.0000 </r>
       <r>   12.7997    0.0000 </r>
      </set>
      <set comment="kpoint 30">
       <r>   -4.1187    1.0000 </r>
       <r>   -0.3487    1.0000 </r>
       <r>    2.6233    1.0000 </r>
       <r>    4.3858    1.0000 </r>
       <r>    8.0746    0.0000 </r>
       <r>    9.7133    0.0000 </r>
       <r>    9.8122    0.0000 </r>
       <r>   12.8125    0.0000 </r>
      </set>
      <set comment="kpoint 31">
       <r>   -4.1211    1.0000 </r>
       <r>   -0.3426    1.0000 </r>
       <r>    2.6344    1.0000 </r>
       <r>    4.3669    1.0000 </r>
       <r>    8.0605    0.0000 </r>
       <r>    9.7082    0.0000 </r>
       <r>    9.8406    0.0000 </r>
       <r>   12.8050    0.0000 </r>
      </set>
      <set comment="kpoint 32">
       <r>   -4.1336    1.0000 </r>
       <r>   -0.3049    1.0000 </r>
       <r>    2.6544    1.0000 </r>
       <r>    4.3108    1.0000 </r>
       <r>    8.0196    0.0000 </r>
       <r>    9.6999    0.0000 </r>
       <r>    9.8848    0.0000 </r>
       <r>   12.8078    0.0000 </r>
      </set>
      <set comment="kpoint 33">
       <r>   -4.1418    1.0000 </r>
       <r>   -0.2709    1.0000 </r>
       <r>    2.6095    1.0000 </r>
       <r>    4.3383    1.0000 </r>
       <r>    8.0318    0.0000 </r>
       <r>    9.6844    0.0000 </r>
       <r>    9.8144    0.0000 </r>
       <r>   12.8345    0.0000 </r>
      </set>
      <set comment="kpoint 34">
       <r>   -5.2640    1.0000 </r>
       <r>    1.9669    1.0000 </r>
       <r>    3.2583    1.0000 </r>
       <r>    5.0202    1.0000 </r>
       <r>    8.5779    0.0000 </r>
       <r>    9.1922    0.0000 </r>
       <r>    9.4143    0.0000 </r>
       <r>   11.2055    0.0000 </r>
      </set>
      <set comment="kpoint 35">
       <r>   -5.2591    1.0000 </r>
       <r>    1.9055    1.0000 </r>
       <r>    3.2674    1.0000 </r>
       <r>    5.0916    1.0000 </r>
       <r>    8.6078    0.0000 </r>
       <r>    9.1434    0.0000 </r>
       <r>    9.4430    0.0000 </r>
       <r>   11.2042    0.0000 </r>
      </set>
      <set comment="kpoint 36">
       <r>   -5.2623    1.0000 </r>
       <r>    1.9459    1.0000 </r>
       <r>    3.2619    1.0000 </r>
       <r>    5.0438    1.0000 </r>
       <r>    8.5888    0.0000 </r>
       <r>    9.1749    0.0000 </r>
       <r>    9.4240    0.0000 </r>
       <r>   11.2050    0.0000 </r>
      </set>
      <set comment="kpoint 37">
       <r>   -5.2574    1.0000 </r>
       <r>    1.8850    1.0000 </r>
       <r>    3.2717    1.0000 </r>
       <r>    5.1140    1.0000 </r>
       <r>    8.6203    0.0000 </r>
       <r>    9.1246    0.0000 </r>
       <r>    9.4533    0.0000 </r>
       <r>   11.2035    0.0000 </r>
      </set>
      <set comment="kpoint 38">
       <r>   -4.3228    1.0000 </r>
       <r>    0.6331    1.0000 </r>
       <r>    3.2322    1.0000 </r>
       <r>    3.2786    1.0000 </r>
       <r>    6.3781    0.0000 </r>
       <r>    7.6425    0.0000 </r>
       <r>   12.7944    0.0000 </r>
       <r>   12.7965    0.0000 </r>
      </set>
      <set comment="kpoint 39">
       <r>   -4.3227    1.0000 </r>
       <r>    0.6324    1.0000 </r>
       <r>    3.2440    1.0000 </r>
       <r>    3.2678    1.0000 </r>
       <r>    6.3786    0.0000 </r>
       <r>    7.6416    0.0000 </r>
       <r>   12.7947    0.0000 </r>
       <r>   12.7957    0.0000 </r>
      </set>
      <set comment="kpoint 40">
       <r>   -3.1948    1.0000 </r>
       <r>   -0.8688    1.0000 </r>
       <r>    2.0812    1.0000 </r>
       <r>    3.0986    1.0000 </r>
       <r>    6.6886    0.0000 </r>
       <r>    8.3711    0.0000 </r>
       <r>   12.9808    0.0000 </r>
       <r>   12.9894    0.0000 </r>
      </set>
      <set comment="kpoint 41">
       <r>   -3.1833    1.0000 </r>
       <r>   -0.8905    1.0000 </r>
       <r>    2.0557    1.0000 </r>
       <r>    3.1332    1.0000 </r>
       <r>    6.7316    0.0000 </r>
       <r>    8.3299    0.0000 </r>
       <r>   12.9644    0.0000 </r>
       <r>   13.0077    0.0000 </r>
      </set>
      <set comment="kpoint 42">
       <r>   -3.1751    1.0000 </r>
       <r>   -0.9154    1.0000 </r>
       <r>    2.1017    1.0000 </r>
       <r>    3.1081    1.0000 </r>
       <r>    6.6995    0.0000 </r>
       <r>    8.3558    0.0000 </r>
       <r>   12.9967    0.0000 </r>
       <r>   13.0375    0.0000 </r>
      </set>
      <set comment="kpoint 43">
       <r>   -3.1775    1.0000 </r>
       <r>   -0.9026    1.0000 </r>
       <r>    2.0514    1.0000 </r>
       <r>    3.1435    1.0000 </r>
       <r>    6.7459    0.0000 </r>
       <r>    8.3160    0.0000 </r>
       <r>   12.9766    0.0000 </r>
       <r>   13.0051    0.0000 </r>
      </set>
      <set comment="kpoint 44">
       <r>   -3.1766    1.0000 </r>
       <r>   -0.9073    1.0000 </r>
       <r>    2.0681    1.0000 </r>
       <r>    3.1323    1.0000 </r>
       <r>    6.7300    0.0000 </r>
       <r>    8.3295    0.0000 </r>
       <r>   12.9775    0.0000 </r>
       <r>   13.0216    0.0000 </r>
      </set>
      <set comment="kpoint 45">
       <r>   -3.1815    1.0000 </r>
       <r>   -0.9020    1.0000 </r>
       <r>    2.1057    1.0000 </r>
       <r>    3.0969    1.0000 </r>
       <r>    6.6855    0.0000 </r>
       <r>    8.3700    0.0000 </r>
       <r>   12.9934    0.0000 </r>
       <r>   13.0309    0.0000 </r>
      </set>
      <set comment="kpoint 46">
       <r>   -3.1952    1.0000 </r>
       <r>   -0.8654    1.0000 </r>
       <r>    2.0649    1.0000 </r>
       <r>    3.1106    1.0000 </r>
       <r>    6.7042    0.0000 </r>
       <r>    8.3573    0.0000 </r>
       <r>   12.9687    0.0000 </r>
       <r>   12.9844    0.0000 </r>
      </set>
      <set comment="kpoint 47">
       <r>   -3.0177    1.0000 </r>
       <r>   -1.0515    1.0000 </r>
       <r>    1.3199    1.0000 </r>
       <r>    3.5271    1.0000 </r>
       <r>    7.1767    0.0000 </r>
       <r>   11.4332    0.0000 </r>
       <r>   12.0606    0.0000 </r>
       <r>   12.5639    0.0000 </r>
      </set>
      <set comment="kpoint 48">
       <r>   -2.9847    1.0000 </r>
       <r>   -1.1100    1.0000 </r>
       <r>    1.3062    1.0000 </r>
       <r>    3.5676    1.0000 </r>
       <r>    7.2235    0.0000 </r>
       <r>   11.3814    0.0000 </r>
       <r>   12.0133    0.0000 </r>
       <r>   12.6037    0.0000 </r>
      </set>
      <set comment="kpoint 49">
       <r>   -3.0068    1.0000 </r>
       <r>   -1.0713    1.0000 </r>
       <r>    1.3157    1.0000 </r>
       <r>    3.5406    1.0000 </r>
       <r>    7.1925    0.0000 </r>
       <r>   11.4146    0.0000 </r>
       <r>   12.0442    0.0000 </r>
       <r>   12.5778    0.0000 </r>
      </set>
      <set comment="kpoint 50">
       <r>   -2.9734    1.0000 </r>
       <r>   -1.1296    1.0000 </r>
       <r>    1.3021    1.0000 </r>
       <r>    3.5802    1.0000 </r>
       <r>    7.2397    0.0000 </r>
       <r>   11.3638    0.0000 </r>
       <r>   11.9969    0.0000 </r>
       <r>   12.6214    0.0000 </r>
      </set>
      <set comment="kpoint 51">
       <r>   -2.1623    1.0000 </r>
       <r>   -2.0848    1.0000 </r>
       <r>    2.8071    1.0000 </r>
       <r>    2.8491    1.0000 </r>
       <r>    6.3422    0.0000 </r>
       <r>    6.4015    0.0000 </r>
       <r>   15.5495    0.0000 </r>
       <r>   15.5687    0.0000 </r>
      </set>
      <set comment="kpoint 52">
       <r>   -2.1429    1.0000 </r>
       <r>   -2.1047    1.0000 </r>
       <r>    2.8177    1.0000 </r>
       <r>    2.8392    1.0000 </r>
       <r>    6.3571    0.0000 </r>
       <r>    6.3863    0.0000 </r>
       <r>   15.5549    0.0000 </r>
       <r>   15.5641    0.0000 </r>
      </set>
      <set comment="kpoint 53">
       <r>   -3.9512    1.0000 </r>
       <r>    0.0328    1.0000 </r>
       <r>    2.1305    1.0000 </r>
       <r>    3.3639    1.0000 </r>
       <r>    8.4708    0.0000 </r>
       <r>    9.3381    0.0000 </r>
       <r>    9.7871    0.0000 </r>
       <r>   12.6076    0.0000 </r>
      </set>
      <set comment="kpoint 54">
       <r>   -3.9425    1.0000 </r>
       <r>   -0.0025    1.0000 </r>
       <r>    2.1322    1.0000 </r>
       <r>    3.3954    1.0000 </r>
       <r>    8.4596    0.0000 </r>
       <r>    9.3435    0.0000 </r>
       <r>    9.8130    0.0000 </r>
       <r>   12.6034    0.0000 </r>
      </set>
      <set comment="kpoint 55">
       <r>   -3.9382    1.0000 </r>
       <r>   -0.0200    1.0000 </r>
       <r>    2.1338    1.0000 </r>
       <r>    3.4100    1.0000 </r>
       <r>    8.4546    0.0000 </r>
       <r>    9.3459    0.0000 </r>
       <r>    9.8258    0.0000 </r>
       <r>   12.6022    0.0000 </r>
      </set>
      <set comment="kpoint 56">
       <r>   -3.9511    1.0000 </r>
       <r>    0.0324    1.0000 </r>
       <r>    2.1309    1.0000 </r>
       <r>    3.3640    1.0000 </r>
       <r>    8.4713    0.0000 </r>
       <r>    9.3371    0.0000 </r>
       <r>    9.7875    0.0000 </r>
       <r>   12.6069    0.0000 </r>
      </set>
      <set comment="kpoint 57">
       <r>   -3.9554    1.0000 </r>
       <r>    0.0503    1.0000 </r>
       <r>    2.1296    1.0000 </r>
       <r>    3.3486    1.0000 </r>
       <r>    8.4771    0.0000 </r>
       <r>    9.3333    0.0000 </r>
       <r>    9.7751    0.0000 </r>
       <r>   12.6094    0.0000 </r>
      </set>
      <set comment="kpoint 58">
       <r>   -3.9426    1.0000 </r>
       <r>   -0.0021    1.0000 </r>
       <r>    2.1318    1.0000 </r>
       <r>    3.3953    1.0000 </r>
       <r>    8.4591    0.0000 </r>
       <r>    9.3445    0.0000 </r>
       <r>    9.8126    0.0000 </r>
       <r>   12.6041    0.0000 </r>
      </set>
      <set comment="kpoint 59">
       <r>   -3.0151    1.0000 </r>
       <r>   -1.1013    1.0000 </r>
       <r>    1.6902    1.0000 </r>
       <r>    2.9038    1.0000 </r>
       <r>    8.9601    0.0000 </r>
       <r>    9.1243    0.0000 </r>
       <r>   11.7297    0.0000 </r>
       <r>   12.0543    0.0000 </r>
      </set>
      <set comment="kpoint 60">
       <r>   -2.9802    1.0000 </r>
       <r>   -1.1645    1.0000 </r>
       <r>    1.6698    1.0000 </r>
       <r>    2.9567    1.0000 </r>
       <r>    9.0316    0.0000 </r>
       <r>    9.1111    0.0000 </r>
       <r>   11.6897    0.0000 </r>
       <r>   12.0340    0.0000 </r>
      </set>
      <set comment="kpoint 61">
       <r>   -2.9736    1.0000 </r>
       <r>   -1.1829    1.0000 </r>
       <r>    1.7073    1.0000 </r>
       <r>    2.9282    1.0000 </r>
       <r>    8.9830    0.0000 </r>
       <r>    9.1587    0.0000 </r>
       <r>   11.6499    0.0000 </r>
       <r>   12.0697    0.0000 </r>
      </set>
      <set comment="kpoint 62">
       <r>   -2.9767    1.0000 </r>
       <r>   -1.1794    1.0000 </r>
       <r>    1.7212    1.0000 </r>
       <r>    2.9125    1.0000 </r>
       <r>    8.9630    0.0000 </r>
       <r>    9.1697    0.0000 </r>
       <r>   11.6449    0.0000 </r>
       <r>   12.0839    0.0000 </r>
      </set>
      <set comment="kpoint 63">
       <r>   -2.9899    1.0000 </r>
       <r>   -1.1529    1.0000 </r>
       <r>    1.7106    1.0000 </r>
       <r>    2.9099    1.0000 </r>
       <r>    8.9594    0.0000 </r>
       <r>    9.1570    0.0000 </r>
       <r>   11.6729    0.0000 </r>
       <r>   12.0736    0.0000 </r>
      </set>
      <set comment="kpoint 64">
       <r>   -3.0119    1.0000 </r>
       <r>   -1.1053    1.0000 </r>
       <r>    1.6766    1.0000 </r>
       <r>    2.9196    1.0000 </r>
       <r>    8.9835    0.0000 </r>
       <r>    9.1098    0.0000 </r>
       <r>   11.7352    0.0000 </r>
       <r>   12.0408    0.0000 </r>
      </set>
      <set comment="kpoint 65">
       <r>   -2.9671    1.0000 </r>
       <r>   -1.1906    1.0000 </r>
       <r>    1.6801    1.0000 </r>
       <r>    2.9593    1.0000 </r>
       <r>    9.0320    0.0000 </r>
       <r>    9.1271    0.0000 </r>
       <r>   11.6612    0.0000 </r>
       <r>   12.0436    0.0000 </r>
      </set>
      <set comment="kpoint 66">
       <r>   -2.0474    1.0000 </r>
       <r>   -1.9732    1.0000 </r>
       <r>    2.0393    1.0000 </r>
       <r>    2.0841    1.0000 </r>
       <r>    8.3431    0.0000 </r>
       <r>    8.4018    0.0000 </r>
       <r>   12.2965    0.0000 </r>
       <r>   12.3227    0.0000 </r>
      </set>
      <set comment="kpoint 67">
       <r>   -2.0307    1.0000 </r>
       <r>   -1.9904    1.0000 </r>
       <r>    2.0497    1.0000 </r>
       <r>    2.0742    1.0000 </r>
       <r>    8.3574    0.0000 </r>
       <r>    8.3873    0.0000 </r>
       <r>   12.2977    0.0000 </r>
       <r>   12.3220    0.0000 </r>
      </set>
      <set comment="kpoint 68">
       <r>   -2.0369    1.0000 </r>
       <r>   -1.9840    1.0000 </r>
       <r>    2.0466    1.0000 </r>
       <r>    2.0772    1.0000 </r>
       <r>    8.3557    0.0000 </r>
       <r>    8.3891    0.0000 </r>
       <r>   12.2856    0.0000 </r>
       <r>   12.3336    0.0000 </r>
      </set>
     </set>
    </set>
   </array>
  </eigenvalues>
  <separator name="orbital magnetization" >
   <v name="MAGDIPOLOUT">      0.00000000      0.00000000      0.00000000</v>
  </separator>
  <dos>
   <i name="efermi">      6.34194605 </i>
   <total>
    <array>
     <dimension dim="1">gridpoints</dimension>
     <dimension dim="2">spin</dimension>
     <field>energy</field>
     <field>total</field>
     <field>integrated</field>
     <set>
      <set comment="spin 1">
       <r>    -7.2808     0.0000     0.0000 </r>
       <r>    -7.2010     0.0000     0.0000 </r>
       <r>    -7.1212     0.0000     0.0000 </r>
       <r>    -7.0415     0.0000     0.0000 </r>
       <r>    -6.9617     0.0000     0.0000 </r>
       <r>    -6.8819     0.0000     0.0000 </r>
       <r>    -6.8021     0.0000     0.0000 </r>
       <r>    -6.7223     0.0000     0.0000 </r>
       <r>    -6.6425     0.0000     0.0000 </r>
       <r>    -6.5627     0.0000     0.0000 </r>
       <r>    -6.4829     0.0000     0.0000 </r>
       <r>    -6.4031     0.0000     0.0000 </r>
       <r>    -6.3233     0.0000     0.0000 </r>
       <r>    -6.2435     0.0000     0.0000 </r>
       <r>    -6.1637     0.0016     0.0000 </r>
       <r>    -6.0839     0.0220     0.0008 </r>
       <r>    -6.0042     0.0661     0.0042 </r>
       <r>    -5.9244     0.1338     0.0120 </r>
       <r>    -5.8446     0.2252     0.0261 </r>
       <r>    -5.7648     0.2049     0.0434 </r>
       <r>    -5.6850     0.2176     0.0601 </r>
       <r>    -5.6052     0.2401     0.0783 </r>
       <r>    -5.5254     0.2636     0.0984 </r>
       <r>    -5.4456     0.2882     0.1204 </r>
       <r>    -5.3658     0.3137     0.1444 </r>
       <r>    -5.2860     0.3402     0.1705 </r>
       <r>    -5.2062     0.3664     0.1987 </r>
       <r>    -5.1264     0.3884     0.2289 </r>
       <r>    -5.0467     0.4058     0.2606 </r>
       <r>    -4.9669     0.4187     0.2935 </r>
       <r>    -4.8871     0.4300     0.3273 </r>
       <r>    -4.8073     0.4508     0.3624 </r>
       <r>    -4.7275     0.4743     0.3993 </r>
       <r>    -4.6477     0.4991     0.4381 </r>
       <r>    -4.5679     0.5253     0.4790 </r>
       <r>    -4.4881     0.5528     0.5220 </r>
       <r>    -4.4083     0.5817     0.5673 </r>
       <r>    -4.3285     0.6118     0.6149 </r>
       <r>    -4.2487     0.6434     0.6649 </r>
       <r>    -4.1689     0.6763     0.7176 </r>
       <r>    -4.0891     0.7210     0.7731 </r>
       <r>    -4.0094     0.8351     0.8346 </r>
       <r>    -3.9296     1.0272     0.9084 </r>
       <r>    -3.8498     1.1460     0.9970 </r>
       <r>    -3.7700     0.9296     1.0819 </r>
       <r>    -3.6902     0.8273     1.1495 </r>
       <r>    -3.6104     0.8166     1.2151 </r>
       <r>    -3.5306     0.8058     1.2798 </r>
       <r>    -3.4508     0.7949     1.3437 </r>
       <r>    -3.3710     0.7839     1.4067 </r>
       <r>    -3.2912     0.7727     1.4688 </r>
       <r>    -3.2114     0.7615     1.5300 </r>
       <r>    -3.1316     0.7920     1.5915 </r>
       <r>    -3.0518     0.7642     1.6543 </r>
       <r>    -2.9721     0.6648     1.7113 </r>
       <r>    -2.8923     0.6004     1.7617 </r>
       <r>    -2.8125     0.5366     1.8071 </r>
       <r>    -2.7327     0.4740     1.8474 </r>
       <r>    -2.6529     0.4126     1.8828 </r>
       <r>    -2.5731     0.3523     1.9133 </r>
       <r>    -2.4933     0.2931     1.9390 </r>
       <r>    -2.4135     0.2350     1.9601 </r>
       <r>    -2.3337     0.1781     1.9766 </r>
       <r>    -2.2539     0.1224     1.9885 </r>
       <r>    -2.1741     0.0678     1.9961 </r>
       <r>    -2.0943     0.0200     1.9995 </r>
       <r>    -2.0146     0.0095     2.0003 </r>
       <r>    -1.9348     0.0490     2.0023 </r>
       <r>    -1.8550     0.1023     2.0083 </r>
       <r>    -1.7752     0.1575     2.0187 </r>
       <r>    -1.6954     0.2147     2.0335 </r>
       <r>    -1.6156     0.2739     2.0530 </r>
       <r>    -1.5358     0.3350     2.0773 </r>
       <r>    -1.4560     0.3981     2.1065 </r>
       <r>    -1.3762     0.4632     2.1409 </r>
       <r>    -1.2964     0.5303     2.1805 </r>
       <r>    -1.2166     0.6042     2.2256 </r>
       <r>    -1.1368     0.7462     2.2781 </r>
       <r>    -1.0570     1.2359     2.3555 </r>
       <r>    -0.9773     1.5457     2.4699 </r>
       <r>    -0.8975     1.3621     2.5883 </r>
       <r>    -0.8177     1.2178     2.6908 </r>
       <r>    -0.7379     1.0859     2.7826 </r>
       <r>    -0.6581     0.9687     2.8645 </r>
       <r>    -0.5783     0.8662     2.9376 </r>
       <r>    -0.4985     0.7783     3.0031 </r>
       <r>    -0.4187     0.7051     3.0622 </r>
       <r>    -0.3389     0.6455     3.1160 </r>
       <r>    -0.2591     0.5713     3.1647 </r>
       <r>    -0.1793     0.5021     3.2074 </r>
       <r>    -0.0995     0.4521     3.2453 </r>
       <r>    -0.0197     0.4213     3.2800 </r>
       <r>     0.0600     0.4058     3.3130 </r>
       <r>     0.1398     0.3937     3.3449 </r>
       <r>     0.2196     0.3823     3.3758 </r>
       <r>     0.2994     0.3715     3.4059 </r>
       <r>     0.3792     0.3614     3.4351 </r>
       <r>     0.4590     0.3515     3.4636 </r>
       <r>     0.5388     0.3417     3.4912 </r>
       <r>     0.6186     0.3320     3.5181 </r>
       <r>     0.6984     0.3219     3.5442 </r>
       <r>     0.7782     0.3106     3.5694 </r>
       <r>     0.8580     0.2980     3.5937 </r>
[...]
        <r>  0.0287  0.0080  0.0318  0.0615  0.0000  0.0000  0.0000  0.0000  0.0000 </r>
       </set>
       <set comment="band 6">
        <r>  0.0283  0.0362  0.0205  0.0024  0.0000  0.0000  0.0000  0.0000  0.0000 </r>
        <r>  0.0283  0.0362  0.0205  0.0024  0.0000  0.0000  0.0000  0.0000  0.0000 </r>
       </set>
       <set comment="band 7">
        <r>  0.0557  0.0179  0.0408  0.0446  0.0000  0.0000  0.0000  0.0000  0.0000 </r>
        <r>  0.0557  0.0179  0.0408  0.0446  0.0000  0.0000  0.0000  0.0000  0.0000 </r>
       </set>
       <set comment="band 8">
        <r>  0.0058  0.0322  0.0664  0.0497  0.0000  0.0000  0.0000  0.0000  0.0000 </r>
        <r>  0.0058  0.0322  0.0664  0.0497  0.0000  0.0000  0.0000  0.0000  0.0000 </r>
       </set>
      </set>
      <set comment="kpoint 59">
       <set comment="band 1">
        <r>  0.2156  0.0089  0.0037  0.0135  0.0000  0.0000  0.0000  0.0000  0.0000 </r>
        <r>  0.2156  0.0089  0.0037  0.0135  0.0000  0.0000  0.0000  0.0000  0.0000 </r>
       </set>
       <set comment="band 2">
        <r>  0.1656  0.0099  0.0040  0.0505  0.0000  0.0000  0.0000  0.0000  0.0000 </r>
        <r>  0.1656  0.0099  0.0040  0.0505  0.0000  0.0000  0.0000  0.0000  0.0000 </r>
       </set>
       <set comment="band 3">
        <r>  0.0182  0.0707  0.0287  0.0499  0.0000  0.0000  0.0000  0.0000  0.0000 </r>
        <r>  0.0182  0.0707  0.0287  0.0499  0.0000  0.0000  0.0000  0.0000  0.0000 </r>
       </set>
       <set comment="band 4">
        <r>  0.0012  0.0502  0.1173  0.0102  0.0000  0.0000  0.0000  0.0000  0.0000 </r>
        <r>  0.0012  0.0502  0.1173  0.0102  0.0000  0.0000  0.0000  0.0000  0.0000 </r>
       </set>
       <set comment="band 5">
        <r>  0.0083  0.0322  0.0487  0.0039  0.0000  0.0000  0.0000  0.0000  0.0000 </r>
        <r>  0.0083  0.0322  0.0487  0.0039  0.0000  0.0000  0.0000  0.0000  0.0000 </r>
       </set>
       <set comment="band 6">
        <r>  0.0636  0.0296  0.0455  0.0129  0.0000  0.0000  0.0000  0.0000  0.0000 </r>
        <r>  0.0636  0.0296  0.0455  0.0129  0.0000  0.0000  0.0000  0.0000  0.0000 </r>
       </set>
       <set comment="band 7">
        <r>  0.0185  0.0237  0.0149  0.0460  0.0000  0.0000  0.0000  0.0000  0.0000 </r>
        <r>  0.0185  0.0237  0.0149  0.0460  0.0000  0.0000  0.0000  0.0000  0.0000 </r>
       </set>
       <set comment="band 8">
        <r>  0.0330  0.0479  0.0153  0.0605  0.0000  0.0000  0.0000  0.0000  0.0000 </r>
        <r>  0.0330  0.0479  0.0153  0.0605  0.0000  0.0000  0.0000  0.0000  0.0000 </r>
       </set>
      </set>
      <set comment="kpoint 60">
       <set comment="band 1">
        <r>  0.2141  0.0132  0.0129  0.0005  0.0000  0.0000  0.0000  0.0000  0.0000 </r>
        <r>  0.2141  0.0132  0.0129  0.0005  0.0000  0.0000  0.0000  0.0000  0.0000 </r>
       </set>
       <set comment="band 2">
        <r>  0.1676  0.0523  0.0101  0.0017  0.0000  0.0000  0.0000  0.0000  0.0000 </r>
        <r>  0.1676  0.0523  0.0101  0.0017  0.0000  0.0000  0.0000  0.0000  0.0000 </r>
       </set>
       <set comment="band 3">
        <r>  0.0179  0.0560  0.0853  0.0091  0.0000  0.0000  0.0000  0.0000  0.0000 </r>
        <r>  0.0179  0.0560  0.0853  0.0091  0.0000  0.0000  0.0000  0.0000  0.0000 </r>
       </set>
       <set comment="band 4">
        <r>  0.0012  0.0007  0.0285  0.1470  0.0000  0.0000  0.0000  0.0000  0.0000 </r>
        <r>  0.0012  0.0007  0.0285  0.1470  0.0000  0.0000  0.0000  0.0000  0.0000 </r>
       </set>
       <set comment="band 5">
        <r>  0.0080  0.0072  0.0185  0.0566  0.0000  0.0000  0.0000  0.0000  0.0000 </r>
        <r>  0.0080  0.0072  0.0185  0.0566  0.0000  0.0000  0.0000  0.0000  0.0000 </r>
       </set>
       <set comment="band 6">
        <r>  0.0612  0.0047  0.0308  0.0543  0.0000  0.0000  0.0000  0.0000  0.0000 </r>
        <r>  0.0612  0.0047  0.0308  0.0543  0.0000  0.0000  0.0000  0.0000  0.0000 </r>
       </set>
       <set comment="band 7">
        <r>  0.0195  0.0637  0.0053  0.0160  0.0000  0.0000  0.0000  0.0000  0.0000 </r>
        <r>  0.0195  0.0637  0.0053  0.0160  0.0000  0.0000  0.0000  0.0000  0.0000 </r>
       </set>
       <set comment="band 8">
        <r>  0.0338  0.0579  0.0648  0.0009  0.0000  0.0000  0.0000  0.0000  0.0000 </r>
        <r>  0.0338  0.0579  0.0649  0.0009  0.0000  0.0000  0.0000  0.0000  0.0000 </r>
       </set>
      </set>
      <set comment="kpoint 61">
       <set comment="band 1">
        <r>  0.2141  0.0042  0.0109  0.0115  0.0000  0.0000  0.0000  0.0000  0.0000 </r>
        <r>  0.2141  0.0042  0.0109  0.0115  0.0000  0.0000  0.0000  0.0000  0.0000 </r>
       </set>
       <set comment="band 2">
        <r>  0.1672  0.0134  0.0341  0.0171  0.0000  0.0000  0.0000  0.0000  0.0000 </r>
        <r>  0.1672  0.0134  0.0341  0.0171  0.0000  0.0000  0.0000  0.0000  0.0000 </r>
       </set>
       <set comment="band 3">
        <r>  0.0185  0.0002  0.0697  0.0792  0.0000  0.0000  0.0000  0.0000  0.0000 </r>
        <r>  0.0185  0.0002  0.0697  0.0792  0.0000  0.0000  0.0000  0.0000  0.0000 </r>
       </set>
       <set comment="band 4">
        <r>  0.0011  0.1370  0.0144  0.0255  0.0000  0.0000  0.0000  0.0000  0.0000 </r>
        <r>  0.0011  0.1370  0.0144  0.0255  0.0000  0.0000  0.0000  0.0000  0.0000 </r>
       </set>
       <set comment="band 5">
        <r>  0.0096  0.0403  0.0265  0.0181  0.0000  0.0000  0.0000  0.0000  0.0000 </r>
        <r>  0.0096  0.0403  0.0265  0.0181  0.0000  0.0000  0.0000  0.0000  0.0000 </r>
       </set>
       <set comment="band 6">
        <r>  0.0612  0.0544  0.0050  0.0276  0.0000  0.0000  0.0000  0.0000  0.0000 </r>
        <r>  0.0612  0.0544  0.0050  0.0276  0.0000  0.0000  0.0000  0.0000  0.0000 </r>
       </set>
       <set comment="band 7">
        <r>  0.0192  0.0019  0.0637  0.0233  0.0000  0.0000  0.0000  0.0000  0.0000 </r>
        <r>  0.0192  0.0019  0.0637  0.0233  0.0000  0.0000  0.0000  0.0000  0.0000 </r>
       </set>
       <set comment="band 8">
        <r>  0.0331  0.0111  0.0498  0.0606  0.0000  0.0000  0.0000  0.0000  0.0000 </r>
        <r>  0.0331  0.0111  0.0498  0.0606  0.0000  0.0000  0.0000  0.0000  0.0000 </r>
       </set>
      </set>
      <set comment="kpoint 62">
       <set comment="band 1">
        <r>  0.2143  0.0089  0.0124  0.0052  0.0000  0.0000  0.0000  0.0000  0.0000 </r>
        <r>  0.2143  0.0089  0.0124  0.0052  0.0000  0.0000  0.0000  0.0000  0.0000 </r>
       </set>
       <set comment="band 2">
        <r>  0.1668  0.0096  0.0456  0.0095  0.0000  0.0000  0.0000  0.0000  0.0000 </r>
        <r>  0.1668  0.0096  0.0456  0.0095  0.0000  0.0000  0.0000  0.0000  0.0000 </r>
       </set>
       <set comment="band 3">
        <r>  0.0187  0.0732  0.0181  0.0574  0.0000  0.0000  0.0000  0.0000  0.0000 </r>
        <r>  0.0187  0.0732  0.0181  0.0574  0.0000  0.0000  0.0000  0.0000  0.0000 </r>
       </set>
       <set comment="band 4">
        <r>  0.0011  0.0481  0.0585  0.0708  0.0000  0.0000  0.0000  0.0000  0.0000 </r>
        <r>  0.0011  0.0481  0.0585  0.0708  0.0000  0.0000  0.0000  0.0000  0.0000 </r>
       </set>
       <set comment="band 5">
        <r>  0.0087  0.0352  0.0056  0.0451  0.0000  0.0000  0.0000  0.0000  0.0000 </r>
        <r>  0.0087  0.0352  0.0056  0.0451  0.0000  0.0000  0.0000  0.0000  0.0000 </r>
       </set>
       <set comment="band 6">
        <r>  0.0630  0.0265  0.0343  0.0253  0.0000  0.0000  0.0000  0.0000  0.0000 </r>
        <r>  0.0630  0.0265  0.0343  0.0253  0.0000  0.0000  0.0000  0.0000  0.0000 </r>
       </set>
       <set comment="band 7">
        <r>  0.0188  0.0279  0.0161  0.0459  0.0000  0.0000  0.0000  0.0000  0.0000 </r>
        <r>  0.0188  0.0279  0.0161  0.0459  0.0000  0.0000  0.0000  0.0000  0.0000 </r>
       </set>
       <set comment="band 8">
        <r>  0.0329  0.0457  0.0433  0.0318  0.0000  0.0000  0.0000  0.0000  0.0000 </r>
        <r>  0.0329  0.0457  0.0433  0.0318  0.0000  0.0000  0.0000  0.0000  0.0000 </r>
       </set>
      </set>
      <set comment="kpoint 63">
       <set comment="band 1">
        <r>  0.2147  0.0133  0.0038  0.0094  0.0000  0.0000  0.0000  0.0000  0.0000 </r>
        <r>  0.2147  0.0133  0.0038  0.0094  0.0000  0.0000  0.0000  0.0000  0.0000 </r>
       </set>
       <set comment="band 2">
        <r>  0.1664  0.0534  0.0038  0.0075  0.0000  0.0000  0.0000  0.0000  0.0000 </r>
        <r>  0.1663  0.0534  0.0038  0.0075  0.0000  0.0000  0.0000  0.0000  0.0000 </r>
       </set>
       <set comment="band 3">
        <r>  0.0186  0.0549  0.0306  0.0634  0.0000  0.0000  0.0000  0.0000  0.0000 </r>
        <r>  0.0186  0.0549  0.0306  0.0634  0.0000  0.0000  0.0000  0.0000  0.0000 </r>
       </set>
       <set comment="band 4">
        <r>  0.0011  0.0006  0.1158  0.0611  0.0000  0.0000  0.0000  0.0000  0.0000 </r>
        <r>  0.0011  0.0006  0.1158  0.0611  0.0000  0.0000  0.0000  0.0000  0.0000 </r>
       </set>
       <set comment="band 5">
        <r>  0.0094  0.0067  0.0495  0.0294  0.0000  0.0000  0.0000  0.0000  0.0000 </r>
        <r>  0.0094  0.0067  0.0495  0.0294  0.0000  0.0000  0.0000  0.0000  0.0000 </r>
       </set>
       <set comment="band 6">
        <r>  0.0624  0.0052  0.0439  0.0376  0.0000  0.0000  0.0000  0.0000  0.0000 </r>
        <r>  0.0624  0.0052  0.0439  0.0376  0.0000  0.0000  0.0000  0.0000  0.0000 </r>
       </set>
       <set comment="band 7">
        <r>  0.0188  0.0636  0.0167  0.0078  0.0000  0.0000  0.0000  0.0000  0.0000 </r>
        <r>  0.0188  0.0636  0.0167  0.0078  0.0000  0.0000  0.0000  0.0000  0.0000 </r>
       </set>
       <set comment="band 8">
        <r>  0.0329  0.0567  0.0135  0.0517  0.0000  0.0000  0.0000  0.0000  0.0000 </r>
        <r>  0.0329  0.0567  0.0135  0.0517  0.0000  0.0000  0.0000  0.0000  0.0000 </r>
       </set>
      </set>
      <set comment="kpoint 64">
       <set comment="band 1">
        <r>  0.2154  0.0038  0.0127  0.0097  0.0000  0.0000  0.0000  0.0000  0.0000 </r>
        <r>  0.2154  0.0038  0.0127  0.0097  0.0000  0.0000  0.0000  0.0000  0.0000 </r>
       </set>
       <set comment="band 2">
        <r>  0.1660  0.0135  0.0106  0.0402  0.0000  0.0000  0.0000  0.0000  0.0000 </r>
        <r>  0.1660  0.0135  0.0106  0.0402  0.0000  0.0000  0.0000  0.0000  0.0000 </r>
       </set>
       <set comment="band 3">
        <r>  0.0180  0.0001  0.0840  0.0656  0.0000  0.0000  0.0000  0.0000  0.0000 </r>
        <r>  0.0180  0.0001  0.0840  0.0656  0.0000  0.0000  0.0000  0.0000  0.0000 </r>
       </set>
       <set comment="band 4">
        <r>  0.0012  0.1373  0.0293  0.0107  0.0000  0.0000  0.0000  0.0000  0.0000 </r>
        <r>  0.0012  0.1373  0.0293  0.0107  0.0000  0.0000  0.0000  0.0000  0.0000 </r>
       </set>
       <set comment="band 5">
        <r>  0.0081  0.0391  0.0192  0.0254  0.0000  0.0000  0.0000  0.0000  0.0000 </r>
        <r>  0.0081  0.0391  0.0192  0.0254  0.0000  0.0000  0.0000  0.0000  0.0000 </r>
       </set>
       <set comment="band 6">
        <r>  0.0630  0.0570  0.0319  0.0001  0.0000  0.0000  0.0000  0.0000  0.0000 </r>
        <r>  0.0630  0.0570  0.0319  0.0001  0.0000  0.0000  0.0000  0.0000  0.0000 </r>
       </set>
       <set comment="band 7">
        <r>  0.0187  0.0015  0.0048  0.0773  0.0000  0.0000  0.0000  0.0000  0.0000 </r>
        <r>  0.0187  0.0015  0.0048  0.0773  0.0000  0.0000  0.0000  0.0000  0.0000 </r>
       </set>
       <set comment="band 8">
        <r>  0.0333  0.0119  0.0636  0.0488  0.0000  0.0000  0.0000  0.0000  0.0000 </r>
        <r>  0.0333  0.0119  0.0636  0.0488  0.0000  0.0000  0.0000  0.0000  0.0000 </r>
       </set>
      </set>
      <set comment="kpoint 65">
       <set comment="band 1">
        <r>  0.2137  0.0092  0.0110  0.0066  0.0000  0.0000  0.0000  0.0000  0.0000 </r>
        <r>  0.2137  0.0092  0.0110  0.0066  0.0000  0.0000  0.0000  0.0000  0.0000 </r>
       </set>
       <set comment="band 2">
        <r>  0.1680  0.0097  0.0336  0.0209  0.0000  0.0000  0.0000  0.0000  0.0000 </r>
        <r>  0.1680  0.0097  0.0336  0.0209  0.0000  0.0000  0.0000  0.0000  0.0000 </r>
       </set>
       <set comment="band 3">
        <r>  0.0180  0.0717  0.0698  0.0086  0.0000  0.0000  0.0000  0.0000  0.0000 </r>
        <r>  0.0180  0.0717  0.0698  0.0086  0.0000  0.0000  0.0000  0.0000  0.0000 </r>
       </set>
       <set comment="band 4">
        <r>  0.0012  0.0492  0.0148  0.1122  0.0000  0.0000  0.0000  0.0000  0.0000 </r>
        <r>  0.0012  0.0492  0.0148  0.1122  0.0000  0.0000  0.0000  0.0000  0.0000 </r>
       </set>
       <set comment="band 5">
        <r>  0.0086  0.0304  0.0255  0.0268  0.0000  0.0000  0.0000  0.0000  0.0000 </r>
        <r>  0.0086  0.0304  0.0255  0.0268  0.0000  0.0000  0.0000  0.0000  0.0000 </r>
       </set>
       <set comment="band 6">
        <r>  0.0606  0.0299  0.0058  0.0534  0.0000  0.0000  0.0000  0.0000  0.0000 </r>
        <r>  0.0606  0.0299  0.0058  0.0534  0.0000  0.0000  0.0000  0.0000  0.0000 </r>
       </set>
       <set comment="band 7">
        <r>  0.0197  0.0243  0.0618  0.0007  0.0000  0.0000  0.0000  0.0000  0.0000 </r>
        <r>  0.0197  0.0243  0.0618  0.0007  0.0000  0.0000  0.0000  0.0000  0.0000 </r>
       </set>
       <set comment="band 8">
        <r>  0.0338  0.0488  0.0506  0.0234  0.0000  0.0000  0.0000  0.0000  0.0000 </r>
        <r>  0.0338  0.0488  0.0506  0.0234  0.0000  0.0000  0.0000  0.0000  0.0000 </r>
       </set>
      </set>
      <set comment="kpoint 66">
       <set comment="band 1">
        <r>  0.2023  0.0134  0.0049  0.0231  0.0000  0.0000  0.0000  0.0000  0.0000 </r>
        <r>  0.2023  0.0134  0.0049  0.0231  0.0000  0.0000  0.0000  0.0000  0.0000 </r>
       </set>
       <set comment="band 2">
        <r>  0.1996  0.0151  0.0040  0.0230  0.0000  0.0000  0.0000  0.0000  0.0000 </r>
        <r>  0.1996  0.0151  0.0040  0.0230  0.0000  0.0000  0.0000  0.0000  0.0000 </r>
       </set>
       <set comment="band 3">
        <r>  0.0017  0.0170  0.1368  0.0110  0.0000  0.0000  0.0000  0.0000  0.0000 </r>
        <r>  0.0017  0.0170  0.1368  0.0110  0.0000  0.0000  0.0000  0.0000  0.0000 </r>
       </set>
       <set comment="band 4">
        <r>  0.0016  0.0918  0.0020  0.0697  0.0000  0.0000  0.0000  0.0000  0.0000 </r>
        <r>  0.0016  0.0918  0.0020  0.0697  0.0000  0.0000  0.0000  0.0000  0.0000 </r>
       </set>
       <set comment="band 5">
        <r>  0.0341  0.0059  0.0530  0.0182  0.0000  0.0000  0.0000  0.0000  0.0000 </r>
        <r>  0.0341  0.0059  0.0530  0.0182  0.0000  0.0000  0.0000  0.0000  0.0000 </r>
       </set>
       <set comment="band 6">
        <r>  0.0332  0.0444  0.0017  0.0300  0.0000  0.0000  0.0000  0.0000  0.0000 </r>
        <r>  0.0332  0.0444  0.0017  0.0300  0.0000  0.0000  0.0000  0.0000  0.0000 </r>
       </set>
       <set comment="band 7">
        <r>  0.0279  0.0737  0.0239  0.0162  0.0000  0.0000  0.0000  0.0000  0.0000 </r>
        <r>  0.0279  0.0737  0.0239  0.0162  0.0000  0.0000  0.0000  0.0000  0.0000 </r>
       </set>
       <set comment="band 8">
        <r>  0.0271  0.0025  0.0567  0.0548  0.0000  0.0000  0.0000  0.0000  0.0000 </r>
        <r>  0.0271  0.0025  0.0567  0.0548  0.0000  0.0000  0.0000  0.0000  0.0000 </r>
       </set>
      </set>
      <set comment="kpoint 67">
       <set comment="band 1">
        <r>  0.2017  0.0134  0.0213  0.0068  0.0000  0.0000  0.0000  0.0000  0.0000 </r>
        <r>  0.2017  0.0134  0.0213  0.0068  0.0000  0.0000  0.0000  0.0000  0.0000 </r>
       </set>
       <set comment="band 2">
        <r>  0.2002  0.0139  0.0218  0.0062  0.0000  0.0000  0.0000  0.0000  0.0000 </r>
        <r>  0.2002  0.0139  0.0219  0.0062  0.0000  0.0000  0.0000  0.0000  0.0000 </r>
       </set>
       <set comment="band 3">
        <r>  0.0017  0.1093  0.0456  0.0097  0.0000  0.0000  0.0000  0.0000  0.0000 </r>
        <r>  0.0017  0.1093  0.0456  0.0097  0.0000  0.0000  0.0000  0.0000  0.0000 </r>
       </set>
       <set comment="band 4">
        <r>  0.0016  0.0007  0.0445  0.1186  0.0000  0.0000  0.0000  0.0000  0.0000 </r>
        <r>  0.0016  0.0007  0.0445  0.1186  0.0000  0.0000  0.0000  0.0000  0.0000 </r>
       </set>
       <set comment="band 5">
        <r>  0.0338  0.0368  0.0203  0.0197  0.0000  0.0000  0.0000  0.0000  0.0000 </r>
        <r>  0.0339  0.0368  0.0203  0.0197  0.0000  0.0000  0.0000  0.0000  0.0000 </r>
       </set>
       <set comment="band 6">
        <r>  0.0335  0.0147  0.0199  0.0419  0.0000  0.0000  0.0000  0.0000  0.0000 </r>
        <r>  0.0335  0.0147  0.0199  0.0419  0.0000  0.0000  0.0000  0.0000  0.0000 </r>
       </set>
       <set comment="band 7">
        <r>  0.0279  0.0591  0.0318  0.0228  0.0000  0.0000  0.0000  0.0000  0.0000 </r>
        <r>  0.0279  0.0591  0.0318  0.0228  0.0000  0.0000  0.0000  0.0000  0.0000 </r>
       </set>
       <set comment="band 8">
        <r>  0.0271  0.0176  0.0308  0.0654  0.0000  0.0000  0.0000  0.0000  0.0000 </r>
        <r>  0.0271  0.0176  0.0308  0.0654  0.0000  0.0000  0.0000  0.0000  0.0000 </r>
       </set>
      </set>
      <set comment="kpoint 68">
       <set comment="band 1">
        <r>  0.2019  0.0144  0.0160  0.0111  0.0000  0.0000  0.0000  0.0000  0.0000 </r>
        <r>  0.2020  0.0144  0.0160  0.0111  0.0000  0.0000  0.0000  0.0000  0.0000 </r>
       </set>
       <set comment="band 2">
        <r>  0.2000  0.0133  0.0182  0.0106  0.0000  0.0000  0.0000  0.0000  0.0000 </r>
        <r>  0.1999  0.0133  0.0182  0.0106  0.0000  0.0000  0.0000  0.0000  0.0000 </r>
       </set>
       <set comment="band 3">
        <r>  0.0017  0.0687  0.0788  0.0172  0.0000  0.0000  0.0000  0.0000  0.0000 </r>
        <r>  0.0017  0.0687  0.0788  0.0172  0.0000  0.0000  0.0000  0.0000  0.0000 </r>
       </set>
       <set comment="band 4">
        <r>  0.0016  0.0409  0.0189  0.1038  0.0000  0.0000  0.0000  0.0000  0.0000 </r>
        <r>  0.0016  0.0408  0.0189  0.1038  0.0000  0.0000  0.0000  0.0000  0.0000 </r>
       </set>
       <set comment="band 5">
        <r>  0.0337  0.0503  0.0146  0.0118  0.0000  0.0000  0.0000  0.0000  0.0000 </r>
        <r>  0.0337  0.0503  0.0146  0.0118  0.0000  0.0000  0.0000  0.0000  0.0000 </r>
       </set>
       <set comment="band 6">
        <r>  0.0336  0.0011  0.0428  0.0326  0.0000  0.0000  0.0000  0.0000  0.0000 </r>
        <r>  0.0336  0.0011  0.0428  0.0326  0.0000  0.0000  0.0000  0.0000  0.0000 </r>
       </set>
       <set comment="band 7">
        <r>  0.0283  0.0086  0.0809  0.0242  0.0000  0.0000  0.0000  0.0000  0.0000 </r>
        <r>  0.0283  0.0086  0.0809  0.0242  0.0000  0.0000  0.0000  0.0000  0.0000 </r>
       </set>
       <set comment="band 8">
        <r>  0.0267  0.0662  0.0013  0.0464  0.0000  0.0000  0.0000  0.0000  0.0000 </r>
        <r>  0.0267  0.0662  0.0013  0.0464  0.0000  0.0000  0.0000  0.0000  0.0000 </r>
       </set>
      </set>
     </set>
    </set>
   </array>
  </projected>
 </calculation>
 <structure name="finalpos" >
  <crystal>
   <varray name="basis" >
    <v>       3.34889800       0.00000000       1.93348700 </v>
    <v>       1.11629900       3.15737200       1.93348700 </v>
    <v>       0.00000000       0.00000000       3.86697500 </v>
   </varray>
   <i name="volume">     40.88829843 </i>
   <varray name="rec_basis" >
    <v>       0.29860569      -0.10557300       0.00000000 </v>
    <v>       0.00000000       0.31671909       0.00000000 </v>
    <v>      -0.14930281      -0.10557302       0.25860007 </v>
   </varray>
  </crystal>
  <varray name="positions" >
   <v>       0.24552100       0.25000000       0.25224000 </v>
   <v>       0.00000000       0.00000000       0.00000000 </v>
  </varray>
  <varray name="velocities" >
   <v>       0.00000000       0.00000000       0.00000000 </v>
   <v>       0.00000000       0.00000000       0.00000000 </v>
  </varray>
 </structure>
</modeling>
