 vasp.6.3.0 20Jan22 (build Feb 02 2022 18:12:33) complex                        
  
 executed on             LinuxIFC date 2022.04.15  08:45:19
 running on  144 total cores
 distrk:  each k-point on  144 cores,    1 groups
 distr:  one band on NCORE=   1 cores,  144 groups


--------------------------------------------------------------------------------------------------------


 INCAR:
   ALGO = Fast
   EDIFF = 1e-05
   ENAUG = 1360.0
   ENCUT = 500
   GGA = Ps
   ISMEAR = 0
   ISPIN = 2
   LAECHG = False
   LASPH = True
   LCHARG = True
   LELF = False
   LMIXTAU = True
   LORBIT = 11
   LREAL = False
   LVTOT = True
   LWAVE = True
   MAGMOM = 1*0.001 1*0.0 1*0.001 1*0.0 1*0.001 1*0.0 1*0.001
   NELECT = 28.0
   NELM = 200
   NELMIN = 6
   NSW = 0
   PREC = Accurate
   SIGMA = 0.05

 POTCAR:    PAW_PBE Si 05Jan2001                  
 WARNING: For LVTOT=.TRUE., VASP.5.x writes the TOTAL local potential to the
     file LOCPOT. If you want only the Hartree contributions, use LVHAR=.TRUE.
     instead. 

 -----------------------------------------------------------------------------
|                                                                             |
|           W    W    AA    RRRRR   N    N  II  N    N   GGGG   !!!           |
|           W    W   A  A   R    R  NN   N  II  NN   N  G    G  !!!           |
|           W    W  A    A  R    R  N N  N  II  N N  N  G       !!!           |
|           W WW W  AAAAAA  RRRRR   N  N N  II  N  N N  G  GGG   !            |
|           WW  WW  A    A  R   R   N   NN  II  N   NN  G    G                |
|           W    W  A    A  R    R  N    N  II  N    N   GGGG   !!!           |
|                                                                             |
|     For optimal performance we recommend to set                             |
|       NCORE = 2 up to number-of-cores-per-socket                            |
|     NCORE specifies how many cores store one orbital (NPAR=cpu/NCORE).      |
|     This setting can greatly improve the performance of VASP for DFT.       |
|     The default, NCORE=1 might be grossly inefficient on modern             |
|     multi-core architectures or massively parallel machines. Do your        |
|     own testing! More info at https://www.vasp.at/wiki/index.php/NCORE      |
|     Unfortunately you need to use the default for GW and RPA                |
|     calculations (for HF NCORE is supported but not extensively tested      |
|     yet).                                                                   |
|                                                                             |
 -----------------------------------------------------------------------------

 POTCAR:    PAW_PBE Si 05Jan2001                  
   VRHFIN =Si: s2p2                                                                                 
   LEXCH  = PE                                                                                      
   EATOM  =   103.0669 eV,    7.5752 Ry                                                             
                                                                                                    
   TITEL  = PAW_PBE Si 05Jan2001                                                                    
   LULTRA =        F    use ultrasoft PP ?                                                          
   IUNSCR =        1    unscreen: 0-lin 1-nonlin 2-no                                               
   RPACOR =    1.500    partial core radius                                                         
   POMASS =   28.085; ZVAL   =    4.000    mass and valenz                                          
   RCORE  =    1.900    outmost cutoff radius                                                       
   RWIGS  =    2.480; RWIGS  =    1.312    wigner-seitz radius (au A)                               
   ENMAX  =  245.345; ENMIN  =  184.009 eV                                                          
   ICORE  =        2    local potential                                                             
   LCOR   =        T    correct aug charges                                                         
   LPAW   =        T    paw PP                                                                      
   EAUG   =  322.069                                                                                
   DEXC   =    0.000                                                                                
   RMAX   =    1.950    core radius for proj-oper                                                   
   RAUG   =    1.300    factor for augmentation sphere                                              
   RDEP   =    1.993    radius for radial grids                                                     
   RDEPT  =    1.837    core radius for aug-charge                                                  
                                                                                                    
   Atomic configuration                                                                             
    6 entries                                                                                       
     n  l   j            E        occ.                                                              
     1  0  0.50     -1785.8828   2.0000                                                             
     2  0  0.50      -139.4969   2.0000                                                             
     2  1  1.50       -95.5546   6.0000                                                             
     3  0  0.50       -10.8127   2.0000                                                             
     3  1  0.50        -4.0811   2.0000                                                             
     3  2  1.50        -4.0817   0.0000                                                             
   Description                                                                                      
     l       E           TYP  RCUT    TYP  RCUT                                                     
     0    -10.8127223     23  1.900                                                                 
     0     -7.6451159     23  1.900                                                                 
     1     -4.0811372     23  1.900                                                                 
     1      2.4879257     23  1.900                                                                 
     2     -4.0817478      7  1.900                                                                 
  local pseudopotential read in
  partial core-charges read in
  partial kinetic energy density read in
  atomic valenz-charges read in
  non local Contribution for L=           0  read in
    real space projection operators read in
  non local Contribution for L=           0  read in
    real space projection operators read in
  non local Contribution for L=           1  read in
    real space projection operators read in
  non local Contribution for L=           1  read in
    real space projection operators read in
    PAW grid and wavefunctions read in
 
   number of l-projection  operators is LMAX  =           4
   number of lm-projection operators is LMMAX =           8
 
 -----------------------------------------------------------------------------
|                                                                             |
|               ----> ADVICE to this user running VASP <----                  |
|                                                                             |
|     You enforced a specific xc type in the INCAR file but a different       |
|     type was found in the POTCAR file.                                      |
|     I HOPE YOU KNOW WHAT YOU ARE DOING!                                     |
|                                                                             |
 -----------------------------------------------------------------------------

  PAW_PBE Si 05Jan2001                  :
 energy of atom  1       EATOM= -103.0669
 kinetic energy error for atom=    0.0006 (will be added to EATOM!!)
 
 
 POSCAR: Si7
  positions in direct lattice
  No initial velocities read in
 exchange correlation table for  LEXCH =       14
   RHO(1)=    0.500       N(1)  =     2000
   RHO(2)= 2000.500       N(2)  =     4000
 


--------------------------------------------------------------------------------------------------------


 ion  position               nearest neighbor table
   1  0.252  0.748  0.252-   2 2.36   4 2.36   6 2.36
   2  0.000  0.000  0.500-   1 2.36   3 2.36   5 2.36   7 2.36
   3  0.252  0.252  0.748-   2 2.36   4 2.36   6 2.36
   4  0.000  0.500  0.000-   1 2.36   3 2.36   5 2.36   7 2.36
   5  0.748  0.748  0.748-   2 2.36   4 2.36   6 2.36
   6  0.500  0.000  0.000-   1 2.36   3 2.36   5 2.36   7 2.36
   7  0.748  0.252  0.252-   2 2.36   4 2.36   6 2.36
 
  LATTYP: Found a simple cubic cell.
 ALAT       =     5.4378483500
  
  Lattice vectors:
  
 A1 = (   5.4378483500,   0.0000000000,   0.0000000000)
 A2 = (   0.0000000000,   5.4378483500,   0.0000000000)
 A3 = (   0.0000000000,   0.0000000000,   5.4378483500)


Analysis of symmetry for initial positions (statically):
=====================================================================
 Subroutine PRICEL returns:
 Original cell was already a primitive cell.
 

 Routine SETGRP: Setting up the symmetry group for a 
 simple cubic supercell.


 Subroutine GETGRP returns: Found 24 space group operations
 (whereof 24 operations were pure point group operations)
 out of a pool of 48 trial point group operations.


The static configuration has the point symmetry T_d .


Analysis of symmetry for dynamics (positions and initial velocities):
=====================================================================
 Subroutine PRICEL returns:
 Original cell was already a primitive cell.
 

 Routine SETGRP: Setting up the symmetry group for a 
 simple cubic supercell.


 Subroutine GETGRP returns: Found 24 space group operations
 (whereof 24 operations were pure point group operations)
 out of a pool of 48 trial point group operations.


The dynamic configuration has the point symmetry T_d .


Analysis of structural, dynamic, and magnetic symmetry:
=====================================================================
 Subroutine PRICEL returns:
 Original cell was already a primitive cell.
 

 Routine SETGRP: Setting up the symmetry group for a 
 simple cubic supercell.


 Subroutine GETGRP returns: Found 24 space group operations
 (whereof 24 operations were pure point group operations)
 out of a pool of 48 trial point group operations.


The overall configuration has the point symmetry T_d .


 Subroutine INISYM returns: Found 24 space group operations
 (whereof 24 operations are pure point group operations),
 and found     1 'primitive' translations


----------------------------------------------------------------------------------------

                                     Primitive cell                                     

  volume of cell :     160.7982

  direct lattice vectors                    reciprocal lattice vectors
     5.437848350  0.000000000  0.000000000     0.183896265  0.000000000  0.000000000
     0.000000000  5.437848350  0.000000000     0.000000000  0.183896265  0.000000000
     0.000000000  0.000000000  5.437848350     0.000000000  0.000000000  0.183896265

  length of vectors
     5.437848350  5.437848350  5.437848350     0.183896265  0.183896265  0.183896265

  position of ions in fractional coordinates (direct lattice)
     0.252276978  0.747723022  0.252276978
     0.000000000  0.000000000  0.500000000
     0.252276978  0.252276978  0.747723022
     0.000000000  0.500000000  0.000000000
     0.747723022  0.747723022  0.747723022
     0.500000000  0.000000000  0.000000000
     0.747723022  0.252276978  0.252276978

  ion indices of the primitive-cell ions
   primitive index   ion index
                 1           1
                 2           2
                 3           3
                 4           4
                 5           5
                 6           6
                 7           7

----------------------------------------------------------------------------------------

 
 
 KPOINTS: pymatgen with grid density = 691 / numbe

Automatic generation of k-mesh.
 Grid dimensions read from file:
 generate k-points for:    4    4    4

 Generating k-lattice:

  Cartesian coordinates                     Fractional coordinates (reciprocal lattice)
     0.045974066  0.000000000  0.000000000     0.250000000  0.000000000  0.000000000
     0.000000000  0.045974066  0.000000000     0.000000000  0.250000000  0.000000000
     0.000000000  0.000000000  0.045974066     0.000000000  0.000000000  0.250000000

  Length of vectors
     0.045974066  0.045974066  0.045974066

  Shift w.r.t. Gamma in fractional coordinates (k-lattice)
     0.000000000  0.000000000  0.000000000

 
 Subroutine IBZKPT returns following result:
 ===========================================
 
 Found     10 irreducible k-points:
 
 Following reciprocal coordinates:
            Coordinates               Weight
  0.000000  0.000000  0.000000      1.000000
  0.250000  0.000000  0.000000      6.000000
  0.500000  0.000000  0.000000      3.000000
  0.250000  0.250000  0.000000     12.000000
  0.500000  0.250000  0.000000     12.000000
  0.500000  0.500000  0.000000      3.000000
  0.250000  0.250000  0.250000      8.000000
  0.500000  0.250000  0.250000     12.000000
  0.500000  0.500000  0.250000      6.000000
  0.500000  0.500000  0.500000      1.000000
 
 Following cartesian coordinates:
            Coordinates               Weight
  0.000000  0.000000  0.000000      1.000000
  0.045974  0.000000  0.000000      6.000000
  0.091948  0.000000  0.000000      3.000000
  0.045974  0.045974  0.000000     12.000000
  0.091948  0.045974  0.000000     12.000000
  0.091948  0.091948  0.000000      3.000000
  0.045974  0.045974  0.045974      8.000000
  0.091948  0.045974  0.045974     12.000000
  0.091948  0.091948  0.045974      6.000000
  0.091948  0.091948  0.091948      1.000000
 


--------------------------------------------------------------------------------------------------------




 Dimension of arrays:
   k-points           NKPTS =     10   k-points in BZ     NKDIM =     10   number of bands    NBANDS=    144
   number of dos      NEDOS =    301   number of ions     NIONS =      7
   non local maximal  LDIM  =      4   non local SUM 2l+1 LMDIM =      8
   total plane-waves  NPLWV =  64000
   max r-space proj   IRMAX =      1   max aug-charges    IRDMAX=  13506
   dimension x,y,z NGX =    40 NGY =   40 NGZ =   40
   dimension x,y,z NGXF=    80 NGYF=   80 NGZF=   80
   support grid    NGXF=    80 NGYF=   80 NGZF=   80
   ions per type =               7
   NGX,Y,Z   is equivalent  to a cutoff of  12.23, 12.23, 12.23 a.u.
   NGXF,Y,Z  is equivalent  to a cutoff of  24.46, 24.46, 24.46 a.u.

 SYSTEM =  unknown system                          
 POSCAR =  Si7                                     

 Startparameter for this run:
   NWRITE =      2    write-flag & timer
   PREC   = accura    normal or accurate (medium, high low for compatibility)
   ISTART =      0    job   : 0-new  1-cont  2-samecut
   ICHARG =      2    charge: 1-file 2-atom 10-const
   ISPIN  =      2    spin polarized calculation?
   LNONCOLLINEAR =      F non collinear calculations
   LSORBIT =      F    spin-orbit coupling
   INIWAV =      1    electr: 0-lowe 1-rand  2-diag
   LASPH  =      T    aspherical Exc in radial PAW
 Electronic Relaxation 1
   ENCUT  =  500.0 eV  36.75 Ry    6.06 a.u.   9.91  9.91  9.91*2*pi/ulx,y,z
   ENINI  =  500.0     initial cutoff
   ENAUG  = 1360.0 eV  augmentation charge cutoff
   NELM   =    200;   NELMIN=  6; NELMDL= -5     # of ELM steps 
   EDIFF  = 0.1E-04   stopping-criterion for ELM
   LREAL  =      F    real-space projection
   NLSPLINE    = F    spline interpolate recip. space projectors
   LCOMPAT=      F    compatible to vasp.4.4
   GGA_COMPAT  = T    GGA compatible to vasp.4.4-vasp.4.6
   LMAXPAW     = -100 max onsite density
   LMAXMIX     =    2 max onsite mixed and CHGCAR
   VOSKOWN=      0    Vosko Wilk Nusair interpolation
   ROPT   =    0.00000
 Ionic relaxation
   EDIFFG = 0.1E-03   stopping-criterion for IOM
   NSW    =      0    number of steps for IOM
   NBLOCK =      1;   KBLOCK =      1    inner block; outer block 
   IBRION =     -1    ionic relax: 0-MD 1-quasi-New 2-CG
   NFREE  =      0    steps in history (QN), initial steepest desc. (CG)
   ISIF   =      2    stress and relaxation
   IWAVPR =     10    prediction:  0-non 1-charg 2-wave 3-comb
   ISYM   =      2    0-nonsym 1-usesym 2-fastsym
   LCORR  =      T    Harris-Foulkes like correction to forces

   POTIM  = 0.5000    time-step for ionic-motion
   TEIN   =    0.0    initial temperature
   TEBEG  =    0.0;   TEEND  =   0.0 temperature during run
   SMASS  =  -3.00    Nose mass-parameter (am)
   estimated Nose-frequenzy (Omega)   =  0.10E-29 period in steps = 0.13E+47 mass=  -0.676E-27a.u.
   SCALEE = 1.0000    scale energy and forces
   NPACO  =    256;   APACO  = 10.0  distance and # of slots for P.C.
   PSTRESS=    0.0 pullay stress

  Mass of Ions in am
   POMASS =  28.09
  Ionic Valenz
   ZVAL   =   4.00
  Atomic Wigner-Seitz radii
   RWIGS  =  -1.00
  virtual crystal weights 
   VCA    =   1.00
   NELECT =      28.0000    total number of electrons
   NUPDOWN=      -1.0000    fix difference up-down

 DOS related values:
   EMIN   =  10.00;   EMAX   =-10.00  energy-range for DOS
   EFERMI =   0.00
   ISMEAR =     0;   SIGMA  =   0.05  broadening in eV -4-tet -1-fermi 0-gaus

 Electronic relaxation 2 (details)
   IALGO  =     68    algorithm
   LDIAG  =      T    sub-space diagonalisation (order eigenvalues)
   LSUBROT=      F    optimize rotation matrix (better conditioning)
   TURBO    =      0    0=normal 1=particle mesh
   IRESTART =      0    0=no restart 2=restart with 2 vectors
   NREBOOT  =      0    no. of reboots
   NMIN     =      0    reboot dimension
   EREF     =   0.00    reference energy to select bands
   IMIX   =      4    mixing-type and parameters
     AMIX     =   0.40;   BMIX     =  1.00
     AMIX_MAG =   1.60;   BMIX_MAG =  1.00
     AMIN     =   0.10
     WC   =   100.;   INIMIX=   1;  MIXPRE=   1;  MAXMIX= -45

 Intra band minimization:
   WEIMIN = 0.0000     energy-eigenvalue tresh-hold
   EBREAK =  0.17E-07  absolut break condition
   DEPER  =   0.30     relativ break condition  

   TIME   =   0.40     timestep for ELM

  volume/ion in A,a.u.               =      22.97       155.02
  Fermi-wavevector in a.u.,A,eV,Ry     =   0.914184  1.727558 11.370836  0.835733
  Thomas-Fermi vector in A             =   2.038782
 
 Write flags
   LWAVE        =      T    write WAVECAR
   LDOWNSAMPLE  =      F    k-point downsampling of WAVECAR
   LCHARG       =      T    write CHGCAR
   LVTOT        =      T    write LOCPOT, total local potential
   LVHAR        =      F    write LOCPOT, Hartree potential only
   LELF         =      F    write electronic localiz. function (ELF)
   LORBIT       =     11    0 simple, 1 ext, 2 COOP (PROOUT), +10 PAW based schemes


 Dipole corrections
   LMONO  =      F    monopole corrections only (constant potential shift)
   LDIPOL =      F    correct potential (dipole corrections)
   IDIPOL =      0    1-x, 2-y, 3-z, 4-all directions 
   EPSILON=  1.0000000 bulk dielectric constant

 Exchange correlation treatment:
   GGA     =    PS    GGA type
   LEXCH   =    14    internal setting for exchange type
   LIBXC   =     F    Libxc                    
   VOSKOWN =     0    Vosko Wilk Nusair interpolation
   LHFCALC =     F    Hartree Fock is set to
   LHFONE  =     F    Hartree Fock one center treatment
   AEXX    =    0.0000 exact exchange contribution

 Linear response parameters
   LEPSILON=     F    determine dielectric tensor
   LRPA    =     F    only Hartree local field effects (RPA)
   LNABLA  =     F    use nabla operator in PAW spheres
   LVEL    =     F    velocity operator in full k-point grid
   CSHIFT  =0.1000    complex shift for real part using Kramers Kronig
   OMEGAMAX=  -1.0    maximum frequency
   DEG_THRESHOLD= 0.2000000E-02 threshold for treating states as degnerate
   RTIME   =   -0.100 relaxation time in fs
  (WPLASMAI=    0.000 imaginary part of plasma frequency in eV, 0.658/RTIME)
   DFIELD  = 0.0000000 0.0000000 0.0000000 field for delta impulse in time
 
  Optional k-point grid parameters
   LKPOINTS_OPT  =     F    use optional k-point grid
   KPOINTS_OPT_MODE=     1    mode for optional k-point grid
 
 Orbital magnetization related:
   ORBITALMAG=     F  switch on orbital magnetization
   LCHIMAG   =     F  perturbation theory with respect to B field
   DQ        =  0.001000  dq finite difference perturbation B field
   LLRAUG    =     F  two centre corrections for induced B field



--------------------------------------------------------------------------------------------------------


 Static calculation
 charge density and potential will be updated during run
 spin polarized calculation
 RMM-DIIS sequential band-by-band and
  variant of blocked Davidson during initial phase
 perform sub-space diagonalisation
    before iterative eigenvector-optimisation
 modified Broyden-mixing scheme, WC =      100.0
 initial mixing is a Kerker type mixing with AMIX =  0.4000 and BMIX =      1.0000
 Hartree-type preconditioning will be used
 using additional bands          130
 reciprocal scheme for non local part
 use partial core corrections
 calculate Harris-corrections to forces 
   (improved forces if not selfconsistent)
 use gradient corrections 
 use of overlap-Matrix (Vanderbilt PP)
 Gauss-broadening in eV      SIGMA  =   0.05


--------------------------------------------------------------------------------------------------------


  energy-cutoff  :      500.00
  volume of cell :      160.80
      direct lattice vectors                 reciprocal lattice vectors
     5.437848350  0.000000000  0.000000000     0.183896265  0.000000000  0.000000000
     0.000000000  5.437848350  0.000000000     0.000000000  0.183896265  0.000000000
     0.000000000  0.000000000  5.437848350     0.000000000  0.000000000  0.183896265

  length of vectors
     5.437848350  5.437848350  5.437848350     0.183896265  0.183896265  0.183896265


 
 k-points in units of 2pi/SCALE and weight: pymatgen with grid density = 691 / numbe
   0.00000000  0.00000000  0.00000000       0.016
   0.04597407  0.00000000  0.00000000       0.094
   0.09194813  0.00000000  0.00000000       0.047
   0.04597407  0.04597407  0.00000000       0.188
   0.09194813  0.04597407  0.00000000       0.188
   0.09194813  0.09194813  0.00000000       0.047
   0.04597407  0.04597407  0.04597407       0.125
   0.09194813  0.04597407  0.04597407       0.188
   0.09194813  0.09194813  0.04597407       0.094
   0.09194813  0.09194813  0.09194813       0.016
 
 k-points in reciprocal lattice and weights: pymatgen with grid density = 691 / numbe
   0.00000000  0.00000000  0.00000000       0.016
   0.25000000  0.00000000  0.00000000       0.094
   0.50000000  0.00000000  0.00000000       0.047
   0.25000000  0.25000000  0.00000000       0.188
   0.50000000  0.25000000  0.00000000       0.188
   0.50000000  0.50000000  0.00000000       0.047
   0.25000000  0.25000000  0.25000000       0.125
   0.50000000  0.25000000  0.25000000       0.188
   0.50000000  0.50000000  0.25000000       0.094
   0.50000000  0.50000000  0.50000000       0.016
 
 position of ions in fractional coordinates (direct lattice) 
   0.25227698  0.74772302  0.25227698
   0.00000000  0.00000000  0.50000000
   0.25227698  0.25227698  0.74772302
   0.00000000  0.50000000  0.00000000
   0.74772302  0.74772302  0.74772302
   0.50000000  0.00000000  0.00000000
   0.74772302  0.25227698  0.25227698
 
 position of ions in cartesian coordinates  (Angst):
   1.37184395  4.06600440  1.37184395
   0.00000000  0.00000000  2.71892418
   1.37184395  1.37184395  4.06600440
   0.00000000  2.71892418  0.00000000
   4.06600440  4.06600440  4.06600440
   2.71892418  0.00000000  0.00000000
   4.06600440  1.37184395  1.37184395
 


--------------------------------------------------------------------------------------------------------


 k-point   1 :   0.0000 0.0000 0.0000  plane waves:    4067
 k-point   2 :   0.2500 0.0000 0.0000  plane waves:    4072
 k-point   3 :   0.5000 0.0000 0.0000  plane waves:    4116
 k-point   4 :   0.2500 0.2500 0.0000  plane waves:    4080
 k-point   5 :   0.5000 0.2500 0.0000  plane waves:    4072
 k-point   6 :   0.5000 0.5000 0.0000  plane waves:    4076
 k-point   7 :   0.2500 0.2500 0.2500  plane waves:    4094
 k-point   8 :   0.5000 0.2500 0.2500  plane waves:    4076
 k-point   9 :   0.5000 0.5000 0.2500  plane waves:    4092
 k-point  10 :   0.5000 0.5000 0.5000  plane waves:    4032

 maximum and minimum number of plane-waves per node :      4116     4032

 maximum number of plane-waves:      4116
 maximum index in each direction: 
   IXMAX=    9   IYMAX=    9   IZMAX=    9
   IXMIN=  -10   IYMIN=  -10   IZMIN=  -10


 serial   3D FFT for wavefunctions
 parallel 3D FFT for charge:
    minimum data exchange during FFTs selected (reduces bandwidth)


 total amount of memory used by VASP MPI-rank0    40713. kBytes
=======================================================================

   base      :      30000. kBytes
   nonl-proj :       3140. kBytes
   fftplans  :        508. kBytes
   grid      :       5640. kBytes
   one-center:         43. kBytes
   wavefun   :       1382. kBytes
 
     INWAV:  cpu time      0.0001: real time      0.0001
 Broyden mixing: mesh for mixing (old mesh)
   NGX = 19   NGY = 19   NGZ = 19
  (NGX  = 80   NGY  = 80   NGZ  = 80)
  gives a total of   6859 points

 initial charge density was supplied:
 charge density of overlapping atoms calculated
 number of electron      28.0000000 magnetization       0.0040000
 keeping initial charge density in first step


--------------------------------------------------------------------------------------------------------


 Maximum index for augmentation-charges          665 (set IRDMAX)


--------------------------------------------------------------------------------------------------------


 First call to EWALD:  gamma=   0.326
 Maximum number of real-space cells 3x 3x 3
 Maximum number of reciprocal cells 3x 3x 3

    FEWALD:  cpu time      0.0016: real time      0.0028


--------------------------------------- Iteration      1(   1)  ---------------------------------------


    POTLOK:  cpu time      0.0249: real time      0.0294
    SETDIJ:  cpu time      0.2011: real time      0.2011
     EDDAV:  cpu time      5.1745: real time      5.1751
       DOS:  cpu time      0.0034: real time      0.0034
    --------------------------------------------
      LOOP:  cpu time      5.4039: real time      5.4091

 eigenvalue-minimisations  :  5760
 total energy-change (2. order) :-0.1907548E+02  (-0.1140015E+04)
 number of electron      28.0000000 magnetization       0.0040000
 augmentation part       28.0000000 magnetization       0.0040000

 Free energy of the ion-electron system (eV)
  ---------------------------------------------------
  alpha Z        PSCENC =        10.25815623
  Ewald energy   TEWEN  =      -747.50453942
  -Hartree energ DENC   =       -57.31352719
  -exchange      EXHF   =         0.00000000
  -V(xc)+E(xc)   XCENC  =       -62.56609614
  PAW double counting   =       612.34974622     -491.33201668
  entropy T*S    EENTRO =        -0.00791032
  eigenvalues    EBANDS =        -0.98741076
  atomic energy  EATOM  =       718.02812073
  Solvation  Ediel_sol  =         0.00000000
  ---------------------------------------------------
  free energy    TOTEN  =       -19.07547734 eV

  energy without entropy =      -19.06756702  energy(sigma->0) =      -19.07152218


--------------------------------------------------------------------------------------------------------




--------------------------------------- Iteration      1(   2)  ---------------------------------------


     EDDAV:  cpu time     12.3368: real time     12.3444
       DOS:  cpu time      0.0029: real time      0.0029
    --------------------------------------------
      LOOP:  cpu time     12.3397: real time     12.3474

 eigenvalue-minimisations  :  8640
 total energy-change (2. order) :-0.1867799E+02  (-0.1867017E+02)
 number of electron      28.0000000 magnetization       0.0040000
 augmentation part       28.0000000 magnetization       0.0040000

 Free energy of the ion-electron system (eV)
  ---------------------------------------------------
  alpha Z        PSCENC =        10.25815623
  Ewald energy   TEWEN  =      -747.50453942
  -Hartree energ DENC   =       -57.31352719
  -exchange      EXHF   =         0.00000000
  -V(xc)+E(xc)   XCENC  =       -62.56609614
  PAW double counting   =       612.34974622     -491.33201668
  entropy T*S    EENTRO =        -0.01101331
  eigenvalues    EBANDS =       -19.66230093
  atomic energy  EATOM  =       718.02812073
  Solvation  Ediel_sol  =         0.00000000
  ---------------------------------------------------
  free energy    TOTEN  =       -37.75347050 eV

  energy without entropy =      -37.74245719  energy(sigma->0) =      -37.74796384


--------------------------------------------------------------------------------------------------------




--------------------------------------- Iteration      1(   3)  ---------------------------------------


     EDDAV:  cpu time      5.3175: real time      5.3344
       DOS:  cpu time      0.0028: real time      0.0028
    --------------------------------------------
      LOOP:  cpu time      5.3202: real time      5.3371

 eigenvalue-minimisations  :  5760
 total energy-change (2. order) :-0.1505913E-01  (-0.1505907E-01)
 number of electron      28.0000000 magnetization       0.0040000
 augmentation part       28.0000000 magnetization       0.0040000

 Free energy of the ion-electron system (eV)
  ---------------------------------------------------
  alpha Z        PSCENC =        10.25815623
  Ewald energy   TEWEN  =      -747.50453942
  -Hartree energ DENC   =       -57.31352719
  -exchange      EXHF   =         0.00000000
  -V(xc)+E(xc)   XCENC  =       -62.56609614
  PAW double counting   =       612.34974622     -491.33201668
  entropy T*S    EENTRO =        -0.01101325
  eigenvalues    EBANDS =       -19.67736012
  atomic energy  EATOM  =       718.02812073
  Solvation  Ediel_sol  =         0.00000000
  ---------------------------------------------------
  free energy    TOTEN  =       -37.76852963 eV

  energy without entropy =      -37.75751638  energy(sigma->0) =      -37.76302300


--------------------------------------------------------------------------------------------------------




--------------------------------------- Iteration      1(   4)  ---------------------------------------


     EDDAV:  cpu time     25.4460: real time     25.4645
       DOS:  cpu time      0.0028: real time      0.0028
    --------------------------------------------
      LOOP:  cpu time     25.4488: real time     25.4674

 eigenvalue-minimisations  : 11520
 total energy-change (2. order) :-0.7718390E-05  (-0.7718743E-05)
 number of electron      28.0000000 magnetization       0.0040000
 augmentation part       28.0000000 magnetization       0.0040000

 Free energy of the ion-electron system (eV)
  ---------------------------------------------------
  alpha Z        PSCENC =        10.25815623
  Ewald energy   TEWEN  =      -747.50453942
  -Hartree energ DENC   =       -57.31352719
  -exchange      EXHF   =         0.00000000
  -V(xc)+E(xc)   XCENC  =       -62.56609614
  PAW double counting   =       612.34974622     -491.33201668
  entropy T*S    EENTRO =        -0.01101325
  eigenvalues    EBANDS =       -19.67736783
  atomic energy  EATOM  =       718.02812073
  Solvation  Ediel_sol  =         0.00000000
  ---------------------------------------------------
  free energy    TOTEN  =       -37.76853734 eV

  energy without entropy =      -37.75752410  energy(sigma->0) =      -37.76303072


--------------------------------------------------------------------------------------------------------




--------------------------------------- Iteration      1(   5)  ---------------------------------------


     EDDAV:  cpu time      5.6771: real time      5.6959
       DOS:  cpu time      0.0027: real time      0.0027
    CHARGE:  cpu time      0.0446: real time      0.0447
    MIXING:  cpu time      0.0019: real time      0.0020
    --------------------------------------------
      LOOP:  cpu time      5.7265: real time      5.7454

 eigenvalue-minimisations  :  5760
 total energy-change (2. order) :-0.1182343E-09  (-0.1854573E-11)
 number of electron      28.0000002 magnetization       0.0031967
 augmentation part       -1.6674869 magnetization      -0.0000401

 Broyden mixing:
  rms(total) = 0.82684E+00    rms(broyden)= 0.82684E+00
  rms(prec ) = 0.12006E+01
  weight for this iteration     100.00

 Free energy of the ion-electron system (eV)
  ---------------------------------------------------
  alpha Z        PSCENC =        10.25815623
  Ewald energy   TEWEN  =      -747.50453942
  -Hartree energ DENC   =       -57.31352719
  -exchange      EXHF   =         0.00000000
  -V(xc)+E(xc)   XCENC  =       -62.56609614
  PAW double counting   =       612.34974622     -491.33201668
  entropy T*S    EENTRO =        -0.01101325
  eigenvalues    EBANDS =       -19.67736783
  atomic energy  EATOM  =       718.02812073
  Solvation  Ediel_sol  =         0.00000000
  ---------------------------------------------------
  free energy    TOTEN  =       -37.76853734 eV

  energy without entropy =      -37.75752410  energy(sigma->0) =      -37.76303072


--------------------------------------------------------------------------------------------------------




--------------------------------------- Iteration      1(   6)  ---------------------------------------


    POTLOK:  cpu time      0.0306: real time      0.0429
    SETDIJ:  cpu time      0.2004: real time      0.2004
    EDDIAG:  cpu time      0.8098: real time      0.8103
  RMM-DIIS:  cpu time      0.1985: real time      0.1992
    ORTHCH:  cpu time      0.1142: real time      0.1142
       DOS:  cpu time      0.0025: real time      0.0025
    CHARGE:  cpu time      0.0382: real time      0.0382
    MIXING:  cpu time      0.0006: real time      0.0006
    --------------------------------------------
      LOOP:  cpu time      1.3948: real time      1.4083

 eigenvalue-minimisations  :  5813
 total energy-change (2. order) : 0.5791008E+00  (-0.1064108E-02)
 number of electron      28.0000002 magnetization       0.0021112
 augmentation part       -1.6561448 magnetization      -0.0005730

 Broyden mixing:
  rms(total) = 0.48361E+00    rms(broyden)= 0.48361E+00
  rms(prec ) = 0.64823E+00
  weight for this iteration     100.00

 eigenvalues of (default mixing * dielectric matrix)
  average eigenvalue GAMMA=   2.3543
  2.3543

 Free energy of the ion-electron system (eV)
  ---------------------------------------------------
  alpha Z        PSCENC =        10.25815623
  Ewald energy   TEWEN  =      -747.50453942
  -Hartree energ DENC   =       -62.21454873
  -exchange      EXHF   =         0.00000000
  -V(xc)+E(xc)   XCENC  =       -61.95356455
  PAW double counting   =      1208.17569567    -1087.40853896
  entropy T*S    EENTRO =        -0.00754493
  eigenvalues    EBANDS =       -14.56267252
  atomic energy  EATOM  =       718.02812073
  Solvation  Ediel_sol  =         0.00000000
  ---------------------------------------------------
  free energy    TOTEN  =       -37.18943650 eV

  energy without entropy =      -37.18189157  energy(sigma->0) =      -37.18566403


--------------------------------------------------------------------------------------------------------




--------------------------------------- Iteration      1(   7)  ---------------------------------------


    POTLOK:  cpu time      0.0208: real time      0.0365
    SETDIJ:  cpu time      0.2005: real time      0.2005
    EDDIAG:  cpu time      0.7886: real time      0.7886
  RMM-DIIS:  cpu time      0.2879: real time      0.2879
    ORTHCH:  cpu time      0.1125: real time      0.1125
       DOS:  cpu time      0.0026: real time      0.0026
    CHARGE:  cpu time      0.0372: real time      0.0372
    MIXING:  cpu time      0.0004: real time      0.0004
    --------------------------------------------
      LOOP:  cpu time      1.4504: real time      1.4662

 eigenvalue-minimisations  :  6386
 total energy-change (2. order) : 0.1674158E+00  (-0.1949826E-02)
 number of electron      28.0000002 magnetization       0.0014278
 augmentation part       -1.6471926 magnetization      -0.0003259

 Broyden mixing:
  rms(total) = 0.88154E-01    rms(broyden)= 0.88154E-01
  rms(prec ) = 0.12901E+00
  weight for this iteration     100.00

 eigenvalues of (default mixing * dielectric matrix)
  average eigenvalue GAMMA=   1.8600
  1.3832  2.3368

 Free energy of the ion-electron system (eV)
  ---------------------------------------------------
  alpha Z        PSCENC =        10.25815623
  Ewald energy   TEWEN  =      -747.50453942
  -Hartree energ DENC   =       -67.37963539
  -exchange      EXHF   =         0.00000000
  -V(xc)+E(xc)   XCENC  =       -61.16889988
  PAW double counting   =      2248.45438698    -2127.95056342
  entropy T*S    EENTRO =        -0.00648671
  eigenvalues    EBANDS =        -9.75255977
  atomic energy  EATOM  =       718.02812073
  Solvation  Ediel_sol  =         0.00000000
  ---------------------------------------------------
  free energy    TOTEN  =       -37.02202065 eV

  energy without entropy =      -37.01553394  energy(sigma->0) =      -37.01877729


--------------------------------------------------------------------------------------------------------




--------------------------------------- Iteration      1(   8)  ---------------------------------------


    POTLOK:  cpu time      0.0204: real time      0.0381
    SETDIJ:  cpu time      0.2003: real time      0.2003
    EDDIAG:  cpu time      0.7770: real time      0.7772
  RMM-DIIS:  cpu time      0.2866: real time      0.2866
    ORTHCH:  cpu time      0.1116: real time      0.1116
       DOS:  cpu time      0.0026: real time      0.0026
    CHARGE:  cpu time      0.0384: real time      0.0384
    MIXING:  cpu time      0.0004: real time      0.0004
    --------------------------------------------
      LOOP:  cpu time      1.4373: real time      1.4553

 eigenvalue-minimisations  :  6262
 total energy-change (2. order) : 0.5769769E-02  (-0.2665007E-03)
 number of electron      28.0000002 magnetization       0.0009649
 augmentation part       -1.6487649 magnetization      -0.0002027

 Broyden mixing:
  rms(total) = 0.17567E-01    rms(broyden)= 0.17567E-01
  rms(prec ) = 0.25594E-01
  weight for this iteration     100.00

 eigenvalues of (default mixing * dielectric matrix)
  average eigenvalue GAMMA=   1.7870
  1.6017  1.6017  2.1577

 Free energy of the ion-electron system (eV)
  ---------------------------------------------------
  alpha Z        PSCENC =        10.25815623
  Ewald energy   TEWEN  =      -747.50453942
  -Hartree energ DENC   =       -67.66334936
  -exchange      EXHF   =         0.00000000
  -V(xc)+E(xc)   XCENC  =       -61.02705735
  PAW double counting   =      2489.11376544    -2368.63114734
  entropy T*S    EENTRO =        -0.00647248
  eigenvalues    EBANDS =        -9.58372731
  atomic energy  EATOM  =       718.02812073
  Solvation  Ediel_sol  =         0.00000000
  ---------------------------------------------------
  free energy    TOTEN  =       -37.01625088 eV

  energy without entropy =      -37.00977840  energy(sigma->0) =      -37.01301464


--------------------------------------------------------------------------------------------------------




--------------------------------------- Iteration      1(   9)  ---------------------------------------


    POTLOK:  cpu time      0.0405: real time      0.0409
    SETDIJ:  cpu time      0.2009: real time      0.2009
    EDDIAG:  cpu time      0.7668: real time      0.7669
  RMM-DIIS:  cpu time      0.3087: real time      0.3087
    ORTHCH:  cpu time      0.1208: real time      0.1208
       DOS:  cpu time      0.0025: real time      0.0025
    CHARGE:  cpu time      0.0377: real time      0.0377
    MIXING:  cpu time      0.0004: real time      0.0004
    --------------------------------------------
      LOOP:  cpu time      1.4783: real time      1.4788

 eigenvalue-minimisations  :  6782
 total energy-change (2. order) : 0.2272196E-04  (-0.2193707E-04)
 number of electron      28.0000002 magnetization       0.0005086
 augmentation part       -1.6497877 magnetization      -0.0002334

 Broyden mixing:
  rms(total) = 0.92754E-02    rms(broyden)= 0.92754E-02
  rms(prec ) = 0.11397E-01
  weight for this iteration     100.00

 eigenvalues of (default mixing * dielectric matrix)
  average eigenvalue GAMMA=   1.9079
  2.3328  2.3328  1.4830  1.4830

 Free energy of the ion-electron system (eV)
  ---------------------------------------------------
  alpha Z        PSCENC =        10.25815623
  Ewald energy   TEWEN  =      -747.50453942
  -Hartree energ DENC   =       -67.62789251
  -exchange      EXHF   =         0.00000000
  -V(xc)+E(xc)   XCENC  =       -61.01536508
  PAW double counting   =      2470.20265215    -2349.71348199
  entropy T*S    EENTRO =        -0.00649816
  eigenvalues    EBANDS =        -9.63738009
  atomic energy  EATOM  =       718.02812073
  Solvation  Ediel_sol  =         0.00000000
  ---------------------------------------------------
  free energy    TOTEN  =       -37.01622816 eV

  energy without entropy =      -37.00973000  energy(sigma->0) =      -37.01297908


--------------------------------------------------------------------------------------------------------




--------------------------------------- Iteration      1(  10)  ---------------------------------------


    POTLOK:  cpu time      0.0229: real time      0.0402
    SETDIJ:  cpu time      0.2003: real time      0.2003
    EDDIAG:  cpu time      0.7593: real time      0.7593
  RMM-DIIS:  cpu time      0.3147: real time      0.3147
    ORTHCH:  cpu time      0.1115: real time      0.1116
       DOS:  cpu time      0.0025: real time      0.0025
    CHARGE:  cpu time      0.0367: real time      0.0367
    MIXING:  cpu time      0.0004: real time      0.0004
    --------------------------------------------
      LOOP:  cpu time      1.4484: real time      1.4658

 eigenvalue-minimisations  :  6682
 total energy-change (2. order) :-0.3337279E-04  (-0.3362828E-05)
 number of electron      28.0000002 magnetization       0.0003656
 augmentation part       -1.6501047 magnetization      -0.0000986

 Broyden mixing:
  rms(total) = 0.30263E-02    rms(broyden)= 0.30263E-02
  rms(prec ) = 0.39612E-02
  weight for this iteration     100.00

 eigenvalues of (default mixing * dielectric matrix)
  average eigenvalue GAMMA=   1.7648
  2.4519  2.4519  1.7088  1.4761  0.7353

 Free energy of the ion-electron system (eV)
  ---------------------------------------------------
  alpha Z        PSCENC =        10.25815623
  Ewald energy   TEWEN  =      -747.50453942
  -Hartree energ DENC   =       -67.62527612
  -exchange      EXHF   =         0.00000000
  -V(xc)+E(xc)   XCENC  =       -61.00832998
  PAW double counting   =      2449.44295194    -2328.95200356
  entropy T*S    EENTRO =        -0.00650930
  eigenvalues    EBANDS =        -9.64883204
  atomic energy  EATOM  =       718.02812073
  Solvation  Ediel_sol  =         0.00000000
  ---------------------------------------------------
  free energy    TOTEN  =       -37.01626153 eV

  energy without entropy =      -37.00975223  energy(sigma->0) =      -37.01300688


--------------------------------------------------------------------------------------------------------




--------------------------------------- Iteration      1(  11)  ---------------------------------------


    POTLOK:  cpu time      0.0204: real time      0.0380
    SETDIJ:  cpu time      0.2001: real time      0.2001
    EDDIAG:  cpu time      0.7520: real time      0.7520
  RMM-DIIS:  cpu time      0.3127: real time      0.3127
    ORTHCH:  cpu time      0.1113: real time      0.1113
       DOS:  cpu time      0.0024: real time      0.0024
    --------------------------------------------
      LOOP:  cpu time      1.3989: real time      1.4164

 eigenvalue-minimisations  :  6532
 total energy-change (2. order) :-0.7247501E-06  (-0.5539801E-06)
 number of electron      28.0000002 magnetization       0.0003656
 augmentation part       -1.6501047 magnetization      -0.0000986

 Free energy of the ion-electron system (eV)
  ---------------------------------------------------
  alpha Z        PSCENC =        10.25815623
  Ewald energy   TEWEN  =      -747.50453942
  -Hartree energ DENC   =       -67.65937813
  -exchange      EXHF   =         0.00000000
  -V(xc)+E(xc)   XCENC  =       -61.00334251
  PAW double counting   =      2442.87293319    -2322.38301178
  entropy T*S    EENTRO =        -0.00650849
  eigenvalues    EBANDS =        -9.61869206
  atomic energy  EATOM  =       718.02812073
  Solvation  Ediel_sol  =         0.00000000
  ---------------------------------------------------
  free energy    TOTEN  =       -37.01626226 eV

  energy without entropy =      -37.00975376  energy(sigma->0) =      -37.01300801


--------------------------------------------------------------------------------------------------------




 average (electrostatic) potential at core
  the test charge radii are     0.9892
  (the norm of the test charge is              1.0000)
       1 -84.6910       2 -84.4944       3 -84.6910       4 -84.4944       5 -84.6910
       6 -84.4944       7 -84.6910
 
 
 
 E-fermi :   4.7952     XC(G=0):  -9.0702     alpha+bet :-10.4411

 Fermi energy:         4.7952466270

 spin component 1

 k-point     1 :       0.0000    0.0000    0.0000
  band No.  band energies     occupation 
      1      -6.9674      1.00000
      2      -3.2972      1.00000
      3      -3.2972      1.00000
      4      -2.9192      1.00000
      5      -2.9192      1.00000
      6      -2.9192      1.00000
      7       1.2841      1.00000
      8       1.6697      1.00000
      9       1.6697      1.00000
     10       1.6697      1.00000
     11       2.8787      1.00000
     12       2.8787      1.00000
     13       2.8787      1.00000
     14       5.5857      0.00000
     15       5.5857      0.00000
     16       5.5857      0.00000
     17       5.6171      0.00000
     18       5.6171      0.00000
     19       6.1389      0.00000
     20       6.1389      0.00000
     21       6.1389      0.00000
     22       6.2067      0.00000
     23       8.6077      0.00000
     24       8.6077      0.00000
     25       8.6077      0.00000
     26      10.2426      0.00000
     27      12.9252      0.00000
     28      12.9252      0.00000
     29      13.1709      0.00000
     30      14.6006      0.00000
     31      14.6006      0.00000
     32      14.6006      0.00000
     33      15.5499      0.00000
     34      15.5499      0.00000
     35      15.5499      0.00000
     36      15.6099      0.00000
     37      15.6099      0.00000
     38      15.6099      0.00000
     39      16.3199      0.00000
     40      16.3199      0.00000
     41      16.3199      0.00000
     42      16.9819      0.00000
     43      17.4280      0.00000
     44      17.4280      0.00000
     45      17.4793      0.00000
     46      17.4793      0.00000
     47      17.4793      0.00000
     48      18.2224      0.00000
     49      18.2224      0.00000
     50      18.2224      0.00000
     51      19.1769      0.00000
     52      19.1972      0.00000
     53      19.1972      0.00000
     54      20.2598      0.00000
     55      20.9690      0.00000
     56      20.9690      0.00000
     57      20.9690      0.00000
     58      23.5288      0.00000
     59      23.6867      0.00000
     60      23.6867      0.00000
     61      23.6867      0.00000
     62      24.4213      0.00000
     63      24.4213      0.00000
     64      24.4213      0.00000
     65      24.8774      0.00000
     66      24.8774      0.00000
     67      24.8774      0.00000
     68      24.9459      0.00000
     69      24.9459      0.00000
     70      24.9459      0.00000
     71      25.4007      0.00000
     72      25.4007      0.00000
     73      26.0994      0.00000
     74      26.0994      0.00000
     75      26.3025      0.00000
     76      26.3025      0.00000
     77      26.3025      0.00000
     78      27.1753      0.00000
     79      27.1753      0.00000
     80      27.1753      0.00000
     81      27.5402      0.00000
     82      28.3727      0.00000
     83      28.3727      0.00000
     84      28.3727      0.00000
     85      29.3393      0.00000
     86      29.3393      0.00000
     87      30.8622      0.00000
     88      31.6342      0.00000
     89      31.6342      0.00000
     90      31.6342      0.00000
     91      32.9253      0.00000
     92      32.9253      0.00000
     93      33.1964      0.00000
     94      33.1964      0.00000
     95      33.1964      0.00000
     96      33.8173      0.00000
     97      33.8173      0.00000
     98      33.8173      0.00000
     99      35.2293      0.00000
    100      35.2293      0.00000
    101      35.2293      0.00000
    102      37.4976      0.00000
    103      37.4976      0.00000
    104      37.4976      0.00000
    105      38.9061      0.00000
    106      38.9061      0.00000
    107      38.9061      0.00000
    108      39.0582      0.00000
    109      39.0582      0.00000
    110      39.0582      0.00000
    111      39.1271      0.00000
    112      39.1271      0.00000
    113      39.3361      0.00000
    114      40.2247      0.00000
    115      40.3732      0.00000
    116      40.3732      0.00000
    117      40.3732      0.00000
    118      40.8641      0.00000
    119      40.8641      0.00000
    120      40.8641      0.00000
    121      41.9527      0.00000
    122      41.9527      0.00000
    123      41.9527      0.00000
    124      42.1912      0.00000
    125      42.1912      0.00000
    126      42.5737      0.00000
    127      42.8016      0.00000
    128      43.0041      0.00000
    129      43.0041      0.00000
    130      43.2037      0.00000
    131      43.2037      0.00000
    132      43.2037      0.00000
    133      44.2479      0.00000
    134      44.2479      0.00000
    135      44.2479      0.00000
    136      44.8154      0.00000
    137      44.8157      0.00000
    138      45.1319      0.00000
    139      45.1319      0.00000
    140      45.1319      0.00000
    141      45.7163      0.00000
    142      45.7163      0.00000
    143      45.7164      0.00000
    144      46.1381      0.00000

 k-point     2 :       0.2500    0.0000    0.0000
  band No.  band energies     occupation 
      1      -6.7243      1.00000
      2      -4.6262      1.00000
      3      -3.2277      1.00000
      4      -2.8519      1.00000
      5      -2.8519      1.00000
      6      -1.5360      1.00000
      7       1.1787      1.00000
      8       1.4222      1.00000
      9       1.4222      1.00000
     10       1.5760      1.00000
     11       2.1427      1.00000
     12       2.6853      1.00000
     13       2.6853      1.00000
     14       4.9080      0.00071
     15       5.3393      0.00000
     16       5.3393      0.00000
     17       5.6916      0.00000
     18       6.3633      0.00000
     19       6.8054      0.00000
     20       6.9835      0.00000
     21       6.9835      0.00000
     22       7.4411      0.00000
     23       8.1863      0.00000
     24       9.6373      0.00000
     25       9.6373      0.00000
     26      10.7486      0.00000
     27      11.9813      0.00000
     28      12.4386      0.00000
     29      12.4459      0.00000
     30      12.4459      0.00000
     31      13.2583      0.00000
     32      13.5980      0.00000
     33      14.2854      0.00000
     34      14.3579      0.00000
     35      14.3579      0.00000
     36      15.0298      0.00000
     37      15.9288      0.00000
     38      15.9386      0.00000
     39      15.9386      0.00000
     40      16.7804      0.00000
     41      16.7804      0.00000
     42      16.7849      0.00000
     43      16.9647      0.00000
     44      17.4854      0.00000
     45      17.7015      0.00000
     46      18.3695      0.00000
     47      18.3695      0.00000
     48      18.9991      0.00000
     49      18.9991      0.00000
     50      19.4230      0.00000
     51      19.8955      0.00000
     52      19.9212      0.00000
     53      20.6779      0.00000
     54      21.0774      0.00000
     55      21.3986      0.00000
     56      21.3986      0.00000
     57      21.5890      0.00000
     58      22.0576      0.00000
     59      22.2372      0.00000
     60      22.2372      0.00000
     61      22.9026      0.00000
     62      23.3255      0.00000
     63      23.3255      0.00000
     64      23.5065      0.00000
     65      23.9334      0.00000
     66      24.3325      0.00000
     67      24.3325      0.00000
     68      24.5181      0.00000
     69      24.9037      0.00000
     70      25.7463      0.00000
     71      25.7463      0.00000
     72      26.3183      0.00000
     73      26.8374      0.00000
     74      27.0230      0.00000
     75      27.0230      0.00000
     76      27.5713      0.00000
     77      28.0795      0.00000
     78      28.1630      0.00000
     79      28.4230      0.00000
     80      28.4723      0.00000
     81      28.5984      0.00000
     82      28.5984      0.00000
     83      29.2893      0.00000
     84      29.4788      0.00000
     85      29.4788      0.00000
     86      29.9600      0.00000
     87      30.2413      0.00000
     88      30.7488      0.00000
     89      31.1724      0.00000
     90      31.1724      0.00000
     91      31.4125      0.00000
     92      32.7685      0.00000
     93      32.7685      0.00000
     94      32.8506      0.00000
     95      33.8789      0.00000
     96      34.6818      0.00000
     97      34.6818      0.00000
     98      34.7516      0.00000
     99      35.1701      0.00000
    100      36.0907      0.00000
    101      36.0907      0.00000
    102      36.3850      0.00000
    103      36.3850      0.00000
    104      36.7519      0.00000
    105      36.8596      0.00000
    106      36.9982      0.00000
    107      37.5174      0.00000
    108      37.5174      0.00000
    109      37.5459      0.00000
    110      38.2312      0.00000
    111      38.2312      0.00000
    112      38.3400      0.00000
    113      38.6275      0.00000
    114      39.8217      0.00000
    115      39.8217      0.00000
    116      39.9489      0.00000
    117      40.4458      0.00000
    118      40.5288      0.00000
    119      40.5288      0.00000
    120      40.7256      0.00000
    121      40.8949      0.00000
    122      41.4194      0.00000
    123      41.9596      0.00000
    124      42.0232      0.00000
    125      42.3644      0.00000
    126      42.3644      0.00000
    127      42.7747      0.00000
    128      43.3330      0.00000
    129      43.3330      0.00000
    130      43.3914      0.00000
    131      44.1838      0.00000
    132      44.1881      0.00000
    133      44.4611      0.00000
    134      44.7041      0.00000
    135      44.7041      0.00000
    136      44.8620      0.00000
    137      45.0403      0.00000
    138      45.0403      0.00000
    139      45.1962      0.00000
    140      45.3252      0.00000
    141      45.6126      0.00000
    142      45.6126      0.00000
    143      46.0038      0.00000
    144      46.0043      0.00000

 k-point     3 :       0.5000    0.0000    0.0000
  band No.  band energies     occupation 
      1      -6.2367      1.00000
      2      -5.5578      1.00000
      3      -3.1521      1.00000
      4      -2.7791      1.00000
      5      -2.7791      1.00000
      6      -0.5598      1.00000
      7       0.7857      1.00000
      8       0.8768      1.00000
      9       1.1263      1.00000
     10       1.1263      1.00000
     11       2.7102      1.00000
     12       2.7102      1.00000
     13       2.9445      1.00000
     14       3.5305      1.00000
     15       4.8587      0.03627
     16       4.8587      0.03627
     17       6.1186      0.00000
     18       6.4207      0.00000
     19       8.1429      0.00000
     20       8.8696      0.00000
     21       9.1448      0.00000
     22       9.1448      0.00000
     23       9.1825      0.00000
     24       9.5642      0.00000
     25       9.7781      0.00000
     26       9.7781      0.00000
     27      10.4948      0.00000
     28      10.6230      0.00000
     29      11.0676      0.00000
     30      11.0676      0.00000
     31      12.8997      0.00000
     32      12.8997      0.00000
     33      13.5975      0.00000
     34      13.7947      0.00000
     35      14.8499      0.00000
     36      14.9176      0.00000
     37      15.1420      0.00000
     38      15.9303      0.00000
     39      15.9303      0.00000
     40      16.2856      0.00000
     41      16.6264      0.00000
     42      17.5064      0.00000
     43      17.5591      0.00000
     44      17.5591      0.00000
     45      18.1870      0.00000
     46      18.3532      0.00000
     47      18.5449      0.00000
     48      18.5449      0.00000
     49      19.2802      0.00000
     50      19.4653      0.00000
     51      19.4653      0.00000
     52      20.4165      0.00000
     53      21.3657      0.00000
     54      21.3657      0.00000
     55      21.3773      0.00000
     56      21.6188      0.00000
     57      22.5304      0.00000
     58      22.5304      0.00000
     59      22.5610      0.00000
     60      22.5610      0.00000
     61      23.0499      0.00000
     62      23.0839      0.00000
     63      23.4883      0.00000
     64      23.4883      0.00000
     65      23.5708      0.00000
     66      23.9544      0.00000
     67      24.1509      0.00000
     68      24.3700      0.00000
     69      24.8153      0.00000
     70      25.6479      0.00000
     71      26.1670      0.00000
     72      26.1670      0.00000
     73      26.4565      0.00000
     74      26.7339      0.00000
     75      26.7339      0.00000
     76      26.8047      0.00000
     77      27.0559      0.00000
     78      27.5612      0.00000
     79      28.9860      0.00000
     80      29.5214      0.00000
     81      29.7624      0.00000
     82      29.7624      0.00000
     83      30.0359      0.00000
     84      31.3649      0.00000
     85      31.7455      0.00000
     86      31.7455      0.00000
     87      31.8040      0.00000
     88      31.9982      0.00000
     89      32.0925      0.00000
     90      32.3832      0.00000
     91      32.3832      0.00000
     92      32.4166      0.00000
     93      32.5009      0.00000
     94      32.5009      0.00000
     95      33.5988      0.00000
     96      33.9334      0.00000
     97      33.9334      0.00000
     98      34.1143      0.00000
     99      34.2264      0.00000
    100      34.5073      0.00000
    101      34.7640      0.00000
    102      34.7640      0.00000
    103      34.8203      0.00000
    104      35.3423      0.00000
    105      35.3423      0.00000
    106      35.8334      0.00000
    107      36.0033      0.00000
    108      36.0033      0.00000
    109      36.5224      0.00000
    110      37.8845      0.00000
    111      38.5038      0.00000
    112      38.5317      0.00000
    113      38.5317      0.00000
    114      39.7770      0.00000
    115      39.9555      0.00000
    116      40.0233      0.00000
    117      40.4285      0.00000
    118      40.4285      0.00000
    119      40.4797      0.00000
    120      41.4173      0.00000
    121      41.6366      0.00000
    122      41.6684      0.00000
    123      41.6684      0.00000
    124      41.8052      0.00000
    125      41.8052      0.00000
    126      42.3538      0.00000
    127      42.4781      0.00000
    128      42.4781      0.00000
    129      42.5125      0.00000
    130      42.6593      0.00000
    131      43.1821      0.00000
    132      43.1821      0.00000
    133      44.7159      0.00000
    134      44.8233      0.00000
    135      44.8233      0.00000
    136      44.8255      0.00000
    137      45.1093      0.00000
    138      45.3118      0.00000
    139      45.3119      0.00000
    140      45.4096      0.00000
    141      45.4518      0.00000
    142      45.8945      0.00000
    143      46.4641      0.00000
    144      46.6898      0.00000

 k-point     4 :       0.2500    0.2500    0.0000
  band No.  band energies     occupation 
      1      -6.4850      1.00000
      2      -4.6908      1.00000
      3      -4.2084      1.00000
      4      -2.9346      1.00000
      5      -2.0272      1.00000
      6      -1.1623      1.00000
      7       0.4769      1.00000
      8       1.3088      1.00000
      9       1.4395      1.00000
     10       1.8309      1.00000
     11       1.8337      1.00000
     12       2.7962      1.00000
     13       2.9015      1.00000
     14       4.0004      1.00000
     15       4.7747      0.71982
     16       5.7793      0.00000
     17       6.1814      0.00000
     18       6.7739      0.00000
     19       7.1644      0.00000
     20       7.4516      0.00000
     21       7.5513      0.00000
     22       9.0278      0.00000
     23       9.1826      0.00000
     24       9.3168      0.00000
     25       9.5003      0.00000
     26      10.2892      0.00000
     27      11.5045      0.00000
     28      11.5143      0.00000
     29      12.0262      0.00000
     30      12.3751      0.00000
     31      12.6076      0.00000
     32      13.1784      0.00000
     33      13.2767      0.00000
     34      14.0183      0.00000
     35      14.1913      0.00000
     36      14.7880      0.00000
     37      15.0239      0.00000
     38      15.5185      0.00000
     39      15.8004      0.00000
     40      16.1527      0.00000
     41      16.3665      0.00000
     42      16.6944      0.00000
     43      17.4943      0.00000
     44      18.1387      0.00000
     45      18.5519      0.00000
     46      18.6621      0.00000
     47      18.9324      0.00000
     48      19.2075      0.00000
     49      19.4955      0.00000
     50      19.5272      0.00000
     51      19.7704      0.00000
     52      19.8949      0.00000
     53      20.3315      0.00000
     54      20.7285      0.00000
     55      21.2017      0.00000
     56      21.2409      0.00000
     57      21.4344      0.00000
     58      22.3347      0.00000
     59      22.3497      0.00000
     60      22.6924      0.00000
     61      22.9148      0.00000
     62      23.0228      0.00000
     63      23.2827      0.00000
     64      23.8398      0.00000
     65      24.4254      0.00000
     66      24.6996      0.00000
     67      24.9221      0.00000
     68      25.0644      0.00000
     69      25.9210      0.00000
     70      26.0064      0.00000
     71      26.2730      0.00000
     72      26.3797      0.00000
     73      26.4134      0.00000
     74      26.9794      0.00000
     75      27.1083      0.00000
     76      27.2198      0.00000
     77      27.4199      0.00000
     78      27.7867      0.00000
     79      28.3113      0.00000
     80      28.5427      0.00000
     81      28.6744      0.00000
     82      29.0743      0.00000
     83      29.3068      0.00000
     84      29.9179      0.00000
     85      30.2900      0.00000
     86      30.5484      0.00000
     87      30.9071      0.00000
     88      31.0369      0.00000
     89      31.9773      0.00000
     90      32.2291      0.00000
     91      32.5235      0.00000
     92      32.8385      0.00000
     93      32.9635      0.00000
     94      33.2112      0.00000
     95      33.3733      0.00000
     96      33.6033      0.00000
     97      34.2654      0.00000
     98      34.5314      0.00000
     99      34.6634      0.00000
    100      35.1154      0.00000
    101      35.5164      0.00000
    102      35.5821      0.00000
    103      36.0540      0.00000
    104      36.3619      0.00000
    105      36.9916      0.00000
    106      37.0171      0.00000
    107      37.3168      0.00000
    108      37.6006      0.00000
    109      37.7741      0.00000
    110      37.8042      0.00000
    111      37.9404      0.00000
    112      38.2678      0.00000
    113      38.4932      0.00000
    114      38.7491      0.00000
    115      38.9650      0.00000
    116      39.1944      0.00000
    117      39.4857      0.00000
    118      39.5239      0.00000
    119      40.0545      0.00000
    120      40.0905      0.00000
    121      40.5027      0.00000
    122      40.9208      0.00000
    123      41.4220      0.00000
    124      42.0656      0.00000
    125      42.0990      0.00000
    126      42.2930      0.00000
    127      42.4677      0.00000
    128      42.9868      0.00000
    129      43.1159      0.00000
    130      43.2280      0.00000
    131      43.3482      0.00000
    132      43.4295      0.00000
    133      44.1531      0.00000
    134      44.2635      0.00000
    135      44.6165      0.00000
    136      44.7650      0.00000
    137      44.8283      0.00000
    138      44.9727      0.00000
    139      45.2399      0.00000
    140      45.7824      0.00000
    141      45.8329      0.00000
    142      46.1051      0.00000
    143      46.3045      0.00000
    144      46.5740      0.00000

 k-point     5 :       0.5000    0.2500    0.0000
  band No.  band energies     occupation 
      1      -5.9936      1.00000
      2      -5.4186      1.00000
      3      -4.2205      1.00000
      4      -3.0730      1.00000
      5      -1.7568      1.00000
      6      -0.6796      1.00000
      7       0.3211      1.00000
      8       0.5767      1.00000
      9       1.4113      1.00000
     10       1.7419      1.00000
     11       2.4140      1.00000
     12       2.5251      1.00000
     13       2.9986      1.00000
     14       3.5030      1.00000
     15       4.9289      0.00008
     16       4.9650      0.00000
     17       7.3328      0.00000
     18       7.6192      0.00000
     19       7.7428      0.00000
     20       7.8161      0.00000
     21       8.9746      0.00000
     22       9.3311      0.00000
     23       9.4025      0.00000
     24       9.7577      0.00000
     25       9.8873      0.00000
     26       9.8938      0.00000
     27      10.2870      0.00000
     28      10.6578      0.00000
     29      11.4674      0.00000
     30      11.9482      0.00000
     31      12.3592      0.00000
     32      12.4825      0.00000
     33      12.8863      0.00000
     34      13.0320      0.00000
     35      13.5422      0.00000
     36      14.1765      0.00000
     37      15.1090      0.00000
     38      15.3554      0.00000
     39      15.9323      0.00000
     40      16.2677      0.00000
     41      16.7788      0.00000
     42      16.8428      0.00000
     43      17.1442      0.00000
     44      17.6306      0.00000
     45      18.7119      0.00000
     46      18.9053      0.00000
     47      19.0049      0.00000
     48      19.2480      0.00000
     49      19.6001      0.00000
     50      19.6486      0.00000
     51      19.8637      0.00000
     52      20.2262      0.00000
     53      20.2420      0.00000
     54      20.3763      0.00000
     55      20.9949      0.00000
     56      21.3465      0.00000
     57      21.9848      0.00000
     58      22.0718      0.00000
     59      22.2732      0.00000
     60      22.9042      0.00000
     61      23.0914      0.00000
     62      23.7010      0.00000
     63      23.8220      0.00000
     64      23.9252      0.00000
     65      24.5262      0.00000
     66      24.5988      0.00000
     67      25.2211      0.00000
     68      25.4702      0.00000
     69      25.5556      0.00000
     70      25.9429      0.00000
     71      26.1740      0.00000
     72      26.5403      0.00000
     73      27.0186      0.00000
     74      27.2646      0.00000
     75      27.3307      0.00000
     76      27.3448      0.00000
     77      27.8448      0.00000
     78      28.2479      0.00000
     79      28.5585      0.00000
     80      28.9998      0.00000
     81      29.0913      0.00000
     82      29.5718      0.00000
     83      29.5759      0.00000
     84      30.1256      0.00000
     85      30.7672      0.00000
     86      30.9244      0.00000
     87      31.4780      0.00000
     88      31.7376      0.00000
     89      32.0904      0.00000
     90      32.1783      0.00000
     91      32.4118      0.00000
     92      32.7414      0.00000
     93      32.7430      0.00000
     94      33.2848      0.00000
     95      33.3668      0.00000
     96      33.7430      0.00000
     97      33.8353      0.00000
     98      34.1860      0.00000
     99      34.5124      0.00000
    100      34.7017      0.00000
    101      35.0047      0.00000
    102      35.0505      0.00000
    103      35.6022      0.00000
    104      36.1443      0.00000
    105      36.1679      0.00000
    106      36.2249      0.00000
    107      36.4153      0.00000
    108      36.9092      0.00000
    109      37.1753      0.00000
    110      37.3735      0.00000
    111      37.3971      0.00000
    112      38.1005      0.00000
    113      38.1845      0.00000
    114      38.3631      0.00000
    115      38.7587      0.00000
    116      39.0131      0.00000
    117      39.2488      0.00000
    118      39.4586      0.00000
    119      40.2446      0.00000
    120      40.3829      0.00000
    121      40.5574      0.00000
    122      40.7808      0.00000
    123      41.1614      0.00000
    124      41.5350      0.00000
    125      41.7506      0.00000
    126      41.9327      0.00000
    127      42.1172      0.00000
    128      42.5359      0.00000
    129      42.6756      0.00000
    130      43.0130      0.00000
    131      43.1746      0.00000
    132      43.6854      0.00000
    133      43.7722      0.00000
    134      44.0726      0.00000
    135      44.2302      0.00000
    136      44.6892      0.00000
    137      44.9383      0.00000
    138      45.1723      0.00000
    139      45.3627      0.00000
    140      45.4639      0.00000
    141      45.7509      0.00000
    142      45.9512      0.00000
    143      46.2205      0.00000
    144      46.6397      0.00000

 k-point     6 :       0.5000    0.5000    0.0000
  band No.  band energies     occupation 
      1      -5.3353      1.00000
      2      -5.2412      1.00000
      3      -5.2412      1.00000
      4      -3.4166      1.00000
      5      -0.6449      1.00000
      6      -0.6449      1.00000
      7      -0.6066      1.00000
      8       0.6532      1.00000
      9       1.2208      1.00000
     10       1.2208      1.00000
     11       2.6181      1.00000
     12       3.1088      1.00000
     13       3.2005      1.00000
     14       3.2776      1.00000
     15       5.4121      0.00000
     16       5.4121      0.00000
     17       6.9822      0.00000
     18       6.9822      0.00000
     19       8.4565      0.00000
     20       8.5082      0.00000
     21       9.3934      0.00000
     22       9.4472      0.00000
     23       9.7614      0.00000
     24       9.7614      0.00000
     25       9.9738      0.00000
     26      10.2171      0.00000
     27      10.2171      0.00000
     28      10.5139      0.00000
     29      11.0306      0.00000
     30      11.8271      0.00000
     31      11.8271      0.00000
     32      12.6758      0.00000
     33      12.6927      0.00000
     34      12.6927      0.00000
     35      12.8040      0.00000
     36      12.9949      0.00000
     37      14.4726      0.00000
     38      15.4628      0.00000
     39      15.4628      0.00000
     40      15.6199      0.00000
     41      17.3057      0.00000
     42      17.5458      0.00000
     43      17.5458      0.00000
     44      18.1196      0.00000
     45      18.2003      0.00000
     46      18.2003      0.00000
     47      18.4453      0.00000
     48      18.8998      0.00000
     49      19.1388      0.00000
     50      19.1388      0.00000
     51      19.2108      0.00000
     52      20.6154      0.00000
     53      21.3723      0.00000
     54      21.6908      0.00000
     55      21.6908      0.00000
     56      21.8754      0.00000
     57      21.8754      0.00000
     58      21.8911      0.00000
     59      21.9224      0.00000
     60      22.3507      0.00000
     61      23.1441      0.00000
     62      23.2677      0.00000
     63      23.5528      0.00000
     64      23.5528      0.00000
     65      24.4628      0.00000
     66      25.2506      0.00000
     67      26.2501      0.00000
     68      26.2501      0.00000
     69      26.4782      0.00000
     70      26.4782      0.00000
     71      26.6735      0.00000
     72      26.9388      0.00000
     73      26.9388      0.00000
     74      27.3671      0.00000
     75      27.6251      0.00000
     76      27.7386      0.00000
     77      28.8315      0.00000
     78      29.0423      0.00000
     79      29.0423      0.00000
     80      29.5111      0.00000
     81      29.7359      0.00000
     82      29.7359      0.00000
     83      29.8042      0.00000
     84      31.0390      0.00000
     85      31.0832      0.00000
     86      31.1376      0.00000
     87      31.3471      0.00000
     88      31.3471      0.00000
     89      31.4607      0.00000
     90      31.6998      0.00000
     91      31.9902      0.00000
     92      31.9902      0.00000
     93      32.6568      0.00000
     94      32.6568      0.00000
     95      32.7632      0.00000
     96      32.7971      0.00000
     97      32.7971      0.00000
     98      33.4346      0.00000
     99      33.8015      0.00000
    100      33.9725      0.00000
    101      34.1836      0.00000
    102      34.5309      0.00000
    103      35.4497      0.00000
    104      35.6277      0.00000
    105      35.6277      0.00000
    106      36.1394      0.00000
    107      36.5589      0.00000
    108      36.5589      0.00000
    109      37.2452      0.00000
    110      37.2452      0.00000
    111      37.6328      0.00000
    112      38.5168      0.00000
    113      38.9705      0.00000
    114      38.9705      0.00000
    115      39.1270      0.00000
    116      39.9606      0.00000
    117      40.3286      0.00000
    118      40.8223      0.00000
    119      40.8223      0.00000
    120      40.8380      0.00000
    121      40.9122      0.00000
    122      41.3114      0.00000
    123      41.6548      0.00000
    124      41.8787      0.00000
    125      41.8787      0.00000
    126      42.1943      0.00000
    127      42.3547      0.00000
    128      42.6094      0.00000
    129      42.7283      0.00000
    130      42.7283      0.00000
    131      42.7855      0.00000
    132      42.7855      0.00000
    133      42.9170      0.00000
    134      43.0688      0.00000
    135      43.0688      0.00000
    136      43.3736      0.00000
    137      43.6338      0.00000
    138      43.8855      0.00000
    139      43.8855      0.00000
    140      44.3199      0.00000
    141      44.3199      0.00000
    142      44.4486      0.00000
    143      44.9855      0.00000
    144      45.0216      0.00000

 k-point     7 :       0.2500    0.2500    0.2500
  band No.  band energies     occupation 
      1      -6.2534      1.00000
      2      -4.5895      1.00000
      3      -4.5895      1.00000
      4      -3.2593      1.00000
      5      -1.4963      1.00000
      6      -1.4963      1.00000
      7       0.0869      1.00000
      8       1.1558      1.00000
      9       1.1558      1.00000
     10       2.2474      1.00000
     11       2.3129      1.00000
     12       3.0500      1.00000
     13       3.0500      1.00000
     14       3.6201      1.00000
     15       5.5382      0.00000
     16       5.5382      0.00000
     17       6.3488      0.00000
     18       6.4594      0.00000
     19       6.4594      0.00000
     20       8.6174      0.00000
     21       8.7189      0.00000
     22       8.7189      0.00000
     23       9.7552      0.00000
     24       9.7552      0.00000
     25       9.9017      0.00000
     26      10.3143      0.00000
     27      10.3143      0.00000
     28      10.3982      0.00000
     29      11.7670      0.00000
     30      11.7670      0.00000
     31      12.5518      0.00000
     32      12.9908      0.00000
     33      12.9908      0.00000
     34      13.9591      0.00000
     35      14.0182      0.00000
     36      15.2171      0.00000
     37      15.3487      0.00000
     38      15.3487      0.00000
     39      15.8005      0.00000
     40      15.9345      0.00000
     41      15.9345      0.00000
     42      16.9955      0.00000
     43      17.3378      0.00000
     44      17.4683      0.00000
     45      17.4683      0.00000
     46      17.7425      0.00000
     47      18.5986      0.00000
     48      18.5986      0.00000
     49      19.4362      0.00000
     50      19.4362      0.00000
     51      19.4883      0.00000
     52      20.2275      0.00000
     53      20.2275      0.00000
     54      22.0367      0.00000
     55      22.0367      0.00000
     56      22.3199      0.00000
     57      22.3759      0.00000
     58      22.7694      0.00000
     59      22.7694      0.00000
     60      23.1513      0.00000
     61      23.2312      0.00000
     62      23.2312      0.00000
     63      23.9467      0.00000
     64      23.9896      0.00000
     65      23.9896      0.00000
     66      24.3946      0.00000
     67      24.7002      0.00000
     68      24.7002      0.00000
     69      24.7111      0.00000
     70      25.9683      0.00000
     71      25.9683      0.00000
     72      26.2964      0.00000
     73      26.5694      0.00000
     74      26.7247      0.00000
     75      26.7247      0.00000
     76      27.6947      0.00000
     77      27.6947      0.00000
     78      28.8820      0.00000
     79      28.9949      0.00000
     80      28.9949      0.00000
     81      29.7492      0.00000
     82      29.8440      0.00000
     83      29.8440      0.00000
     84      29.9566      0.00000
     85      30.3891      0.00000
     86      30.3891      0.00000
     87      31.3767      0.00000
     88      32.2574      0.00000
     89      32.2574      0.00000
     90      32.5036      0.00000
     91      32.8887      0.00000
     92      32.8887      0.00000
     93      33.4390      0.00000
     94      33.5452      0.00000
     95      33.5452      0.00000
     96      33.6642      0.00000
     97      34.1084      0.00000
     98      34.2528      0.00000
     99      34.2528      0.00000
    100      34.5563      0.00000
    101      34.8855      0.00000
    102      34.8855      0.00000
    103      35.7908      0.00000
    104      35.8713      0.00000
    105      35.8713      0.00000
    106      36.1937      0.00000
    107      36.3789      0.00000
    108      36.3789      0.00000
    109      37.0640      0.00000
    110      37.3605      0.00000
[...]
     37      14.2893      0.00000
     38      14.9260      0.00000
     39      14.9260      0.00000
     40      15.3048      0.00000
     41      16.1555      0.00000
     42      16.1883      0.00000
     43      16.1883      0.00000
     44      16.9122      0.00000
     45      18.1480      0.00000
     46      18.1480      0.00000
     47      18.3261      0.00000
     48      18.7888      0.00000
     49      18.9988      0.00000
     50      19.2199      0.00000
     51      19.2199      0.00000
     52      19.4766      0.00000
     53      20.1396      0.00000
     54      21.5690      0.00000
     55      21.5690      0.00000
     56      22.0950      0.00000
     57      22.3087      0.00000
     58      22.4875      0.00000
     59      22.6393      0.00000
     60      22.6393      0.00000
     61      23.7315      0.00000
     62      23.7315      0.00000
     63      23.7723      0.00000
     64      25.0771      0.00000
     65      25.3410      0.00000
     66      25.9119      0.00000
     67      25.9119      0.00000
     68      26.0048      0.00000
     69      26.9602      0.00000
     70      26.9602      0.00000
     71      27.1669      0.00000
     72      27.1807      0.00000
     73      27.3597      0.00000
     74      27.5165      0.00000
     75      27.5165      0.00000
     76      28.5271      0.00000
     77      28.7848      0.00000
     78      28.7848      0.00000
     79      29.2056      0.00000
     80      29.2235      0.00000
     81      29.5255      0.00000
     82      30.3444      0.00000
     83      30.3444      0.00000
     84      30.4041      0.00000
     85      30.5605      0.00000
     86      30.6900      0.00000
     87      30.6900      0.00000
     88      31.4407      0.00000
     89      32.0473      0.00000
     90      32.0473      0.00000
     91      32.1434      0.00000
     92      32.3327      0.00000
     93      32.7783      0.00000
     94      33.0706      0.00000
     95      33.0706      0.00000
     96      33.6407      0.00000
     97      33.6407      0.00000
     98      33.6607      0.00000
     99      33.7360      0.00000
    100      34.1679      0.00000
    101      34.9218      0.00000
    102      35.2387      0.00000
    103      35.2387      0.00000
    104      35.3181      0.00000
    105      35.7517      0.00000
    106      36.1947      0.00000
    107      36.2179      0.00000
    108      36.2179      0.00000
    109      36.8986      0.00000
    110      37.5031      0.00000
    111      37.5031      0.00000
    112      37.5297      0.00000
    113      37.8013      0.00000
    114      38.2216      0.00000
    115      38.2216      0.00000
    116      38.3386      0.00000
    117      39.0831      0.00000
    118      39.2523      0.00000
    119      39.2591      0.00000
    120      39.2591      0.00000
    121      39.7366      0.00000
    122      39.7641      0.00000
    123      39.7641      0.00000
    124      40.7966      0.00000
    125      41.0261      0.00000
    126      41.6966      0.00000
    127      41.6966      0.00000
    128      41.8728      0.00000
    129      42.0346      0.00000
    130      42.8634      0.00000
    131      42.9132      0.00000
    132      43.0581      0.00000
    133      43.0581      0.00000
    134      43.4976      0.00000
    135      44.1649      0.00000
    136      44.1649      0.00000
    137      44.3500      0.00000
    138      45.0833      0.00000
    139      45.0833      0.00000
    140      45.5332      0.00000
    141      45.5950      0.00000
    142      45.6908      0.00000
    143      45.6909      0.00000
    144      46.1885      0.00000

 k-point    10 :       0.5000    0.5000    0.5000
  band No.  band energies     occupation 
      1      -5.0153      1.00000
      2      -5.0153      1.00000
      3      -5.0153      1.00000
      4      -3.5060      1.00000
      5      -1.9438      1.00000
      6      -1.9438      1.00000
      7      -1.9438      1.00000
      8       0.7370      1.00000
      9       3.3119      1.00000
     10       3.3119      1.00000
     11       3.3119      1.00000
     12       3.3717      1.00000
     13       3.3717      1.00000
     14       5.9305      0.00000
     15       5.9305      0.00000
     16       5.9305      0.00000
     17       6.2521      0.00000
     18       6.2521      0.00000
     19       6.2521      0.00000
     20       7.8349      0.00000
     21       7.8349      0.00000
     22       7.8349      0.00000
     23       8.7369      0.00000
     24       8.7369      0.00000
     25       9.7528      0.00000
     26       9.7528      0.00000
     27       9.7528      0.00000
     28       9.8067      0.00000
     29      12.4772      0.00000
     30      12.8570      0.00000
     31      12.8570      0.00000
     32      12.8570      0.00000
     33      15.1670      0.00000
     34      15.1670      0.00000
     35      15.1670      0.00000
     36      15.3113      0.00000
     37      15.3113      0.00000
     38      15.6439      0.00000
     39      15.6439      0.00000
     40      15.6439      0.00000
     41      16.2545      0.00000
     42      16.2545      0.00000
     43      16.2545      0.00000
     44      16.5974      0.00000
     45      16.7442      0.00000
     46      16.7442      0.00000
     47      16.7442      0.00000
     48      17.4955      0.00000
     49      17.4955      0.00000
     50      17.4955      0.00000
     51      17.8025      0.00000
     52      17.8025      0.00000
     53      19.0567      0.00000
     54      21.1627      0.00000
     55      21.1627      0.00000
     56      21.1627      0.00000
     57      24.5992      0.00000
     58      24.7230      0.00000
     59      24.7230      0.00000
     60      24.7230      0.00000
     61      25.1495      0.00000
     62      25.1495      0.00000
     63      25.1495      0.00000
     64      25.6856      0.00000
     65      26.2510      0.00000
     66      26.2510      0.00000
     67      26.2510      0.00000
     68      26.3601      0.00000
     69      26.3601      0.00000
     70      26.4551      0.00000
     71      26.4551      0.00000
     72      26.4551      0.00000
     73      26.6719      0.00000
     74      26.6719      0.00000
     75      26.6719      0.00000
     76      28.2998      0.00000
     77      28.2998      0.00000
     78      28.2998      0.00000
     79      29.6601      0.00000
     80      29.6601      0.00000
     81      30.2674      0.00000
     82      31.0076      0.00000
     83      31.0076      0.00000
     84      31.0076      0.00000
     85      31.3683      0.00000
     86      31.3683      0.00000
     87      31.3683      0.00000
     88      31.8005      0.00000
     89      31.8005      0.00000
     90      32.0535      0.00000
     91      32.0535      0.00000
     92      32.0535      0.00000
     93      32.4674      0.00000
     94      32.4674      0.00000
     95      32.4674      0.00000
     96      32.9295      0.00000
     97      32.9295      0.00000
     98      32.9295      0.00000
     99      33.8632      0.00000
    100      33.8632      0.00000
    101      33.9055      0.00000
    102      35.4744      0.00000
    103      36.4632      0.00000
    104      36.4632      0.00000
    105      36.4632      0.00000
    106      36.5164      0.00000
    107      36.5164      0.00000
    108      36.5164      0.00000
    109      36.9465      0.00000
    110      36.9465      0.00000
    111      36.9465      0.00000
    112      37.4965      0.00000
    113      37.4965      0.00000
    114      37.9483      0.00000
    115      37.9483      0.00000
    116      37.9483      0.00000
    117      38.1929      0.00000
    118      38.1929      0.00000
    119      38.1929      0.00000
    120      38.3114      0.00000
    121      39.6936      0.00000
    122      39.6936      0.00000
    123      39.6936      0.00000
    124      40.8109      0.00000
    125      40.8109      0.00000
    126      40.9636      0.00000
    127      41.5592      0.00000
    128      41.7213      0.00000
    129      41.7213      0.00000
    130      41.7213      0.00000
    131      41.8456      0.00000
    132      41.8456      0.00000
    133      41.8456      0.00000
    134      42.4586      0.00000
    135      42.4586      0.00000
    136      42.4586      0.00000
    137      45.4249      0.00000
    138      45.4249      0.00000
    139      45.7339      0.00000
    140      45.7339      0.00000
    141      45.7339      0.00000
    142      47.2592      0.00000
    143      47.2596      0.00000
    144      47.2601      0.00000


--------------------------------------------------------------------------------------------------------


 soft charge-density along one line, spin component           1
         0         1         2         3         4         5         6         7         8         9
 total charge-density along one line
 
 soft charge-density along one line, spin component           2
         0         1         2         3         4         5         6         7         8         9
 total charge-density along one line
 
 pseudopotential strength for first ion, spin component:           1
 18.576  25.917  -0.001   0.001   0.001  -0.002   0.002   0.002
 25.917  36.163  -0.002   0.002   0.002  -0.003   0.003   0.003
 -0.001  -0.002   4.197  -0.001  -0.001   7.820  -0.002  -0.002
  0.001   0.002  -0.001   4.197   0.001  -0.002   7.820   0.002
  0.001   0.002  -0.001   0.001   4.197  -0.002   0.002   7.820
 -0.002  -0.003   7.820  -0.002  -0.002  14.583  -0.003  -0.003
  0.002   0.003  -0.002   7.820   0.002  -0.003  14.583   0.003
  0.002   0.003  -0.002   0.002   7.820  -0.003   0.003  14.583
 pseudopotential strength for first ion, spin component:           2
 18.576  25.917  -0.001   0.001   0.001  -0.002   0.002   0.002
 25.917  36.163  -0.002   0.002   0.002  -0.003   0.003   0.003
 -0.001  -0.002   4.197  -0.001  -0.001   7.820  -0.002  -0.002
  0.001   0.002  -0.001   4.197   0.001  -0.002   7.820   0.002
  0.001   0.002  -0.001   0.001   4.197  -0.002   0.002   7.820
 -0.002  -0.003   7.820  -0.002  -0.002  14.583  -0.003  -0.003
  0.002   0.003  -0.002   7.820   0.002  -0.003  14.583   0.003
  0.002   0.003  -0.002   0.002   7.820  -0.003   0.003  14.583
 total augmentation occupancy for first ion, spin component:           1
  4.849  -1.708   0.508  -0.508  -0.508  -0.158   0.158   0.158
 -1.708   0.797  -0.329   0.329   0.329   0.079  -0.079  -0.079
  0.508  -0.329   2.300   0.377   0.377  -0.475  -0.102  -0.102
 -0.508   0.329   0.377   2.300  -0.377  -0.102  -0.475   0.102
 -0.508   0.329   0.377  -0.377   2.300  -0.102   0.102  -0.475
 -0.158   0.079  -0.475  -0.102  -0.102   0.107   0.026   0.026
  0.158  -0.079  -0.102  -0.475   0.102   0.026   0.107  -0.026
  0.158  -0.079  -0.102   0.102  -0.475   0.026  -0.026   0.107
 total augmentation occupancy for first ion, spin component:           2
  0.000  -0.000   0.000  -0.000  -0.000  -0.000   0.000   0.000
 -0.000   0.000  -0.000   0.000   0.000   0.000  -0.000  -0.000
  0.000  -0.000   0.000  -0.000  -0.000  -0.000   0.000   0.000
 -0.000   0.000  -0.000   0.000   0.000   0.000  -0.000  -0.000
 -0.000   0.000  -0.000   0.000   0.000   0.000  -0.000  -0.000
 -0.000   0.000  -0.000   0.000   0.000   0.000   0.000   0.000
  0.000  -0.000   0.000  -0.000  -0.000   0.000   0.000  -0.000
  0.000  -0.000   0.000  -0.000  -0.000   0.000  -0.000   0.000


------------------------ aborting loop because EDIFF is reached ----------------------------------------





 total charge

# of ion       s       p       d       tot
------------------------------------------
    1        0.805   0.811   0.000   1.616
    2        0.759   0.907   0.000   1.665
    3        0.805   0.811   0.000   1.616
    4        0.759   0.907   0.000   1.665
    5        0.805   0.811   0.000   1.616
    6        0.759   0.907   0.000   1.665
    7        0.805   0.811   0.000   1.616
--------------------------------------------------
tot          5.496   5.963   0.000  11.459



 magnetization (x)

# of ion       s       p       d       tot
------------------------------------------
    1        0.000   0.000   0.000   0.000
    2        0.000   0.000   0.000   0.000
    3        0.000   0.000   0.000   0.000
    4        0.000   0.000   0.000   0.000
    5        0.000   0.000   0.000   0.000
    6        0.000   0.000   0.000   0.000
    7        0.000   0.000   0.000   0.000
--------------------------------------------------
tot          0.000   0.000   0.000   0.000
 
    CHARGE:  cpu time      0.0370: real time      0.0370
    FORLOC:  cpu time      0.0002: real time      0.0002
    FORNL :  cpu time      0.0347: real time      0.0347
    STRESS:  cpu time      0.2405: real time      0.2407
    FORCOR:  cpu time      0.0145: real time      0.0145
    FORHAR:  cpu time      0.0019: real time      0.0019
    MIXING:  cpu time      0.0005: real time      0.0005
    OFIELD:  cpu time      0.0001: real time      0.0001

  FORCE on cell =-STRESS in cart. coord.  units (eV):
  Direction    XX          YY          ZZ          XY          YZ          ZX
  --------------------------------------------------------------------------------------
  Alpha Z    10.25816    10.25816    10.25816
  Ewald    -249.16857  -249.16857  -249.16857     0.00000     0.00000    -0.00000
  Hartree    22.55656    22.55656    22.55656    -0.00000    -0.00000    -0.00000
  E(xc)     -86.97909   -86.97909   -86.97909     0.00000    -0.00000    -0.00000
  Local    -119.41786  -119.41786  -119.41786     0.00000     0.00000    -0.00000
  n-local   270.99735   271.66877   270.35447    -0.02291    -0.27899    -0.17099
  augment   -41.56665   -41.56665   -41.56665    -0.00000     0.00000     0.00000
  Kinetic   181.67640   188.79013   197.75010     1.51659     0.95523     0.37405
  Fock        0.00000     0.00000     0.00000     0.00000     0.00000     0.00000
  -------------------------------------------------------------------------------------
  Total      -3.90505    -3.90505    -3.90505    -0.00000     0.00000     0.00000
  in kB     -38.90956   -38.90956   -38.90956    -0.00000     0.00000     0.00000
  external pressure =      -38.91 kB  Pullay stress =        0.00 kB


 VOLUME and BASIS-vectors are now :
 -----------------------------------------------------------------------------
  energy-cutoff  :      500.00
  volume of cell :      160.80
      direct lattice vectors                 reciprocal lattice vectors
     5.437848350  0.000000000  0.000000000     0.183896265  0.000000000  0.000000000
     0.000000000  5.437848350  0.000000000     0.000000000  0.183896265  0.000000000
     0.000000000  0.000000000  5.437848350     0.000000000  0.000000000  0.183896265

  length of vectors
     5.437848350  5.437848350  5.437848350     0.183896265  0.183896265  0.183896265


 FORCES acting on ions
    electron-ion (+dipol)            ewald-force                    non-local-force                 convergence-correction
 -----------------------------------------------------------------------------------------------
   -.189E+02 0.189E+02 -.189E+02   0.179E+02 -.179E+02 0.179E+02   0.110E+01 -.110E+01 0.110E+01   0.377E-03 -.377E-03 0.377E-03
   -.127E-12 -.616E-14 0.104E-13   0.000E+00 0.355E-14 -.355E-14   0.703E-17 -.123E-16 0.202E-16   0.934E-15 0.433E-14 -.262E-14
   -.189E+02 -.189E+02 0.189E+02   0.179E+02 0.179E+02 -.179E+02   0.110E+01 0.110E+01 -.110E+01   0.377E-03 0.377E-03 -.377E-03
   0.102E-12 0.736E-14 -.313E-15   -.711E-14 0.107E-13 0.711E-14   -.358E-17 0.380E-17 0.153E-16   0.297E-15 0.105E-14 -.273E-14
   0.189E+02 0.189E+02 0.189E+02   -.179E+02 -.179E+02 -.179E+02   -.110E+01 -.110E+01 -.110E+01   -.377E-03 -.377E-03 -.377E-03
   -.124E-13 -.458E-14 -.129E-12   0.000E+00 0.000E+00 0.355E-14   0.873E-17 0.461E-17 0.120E-16   0.611E-14 0.319E-14 -.400E-15
   0.189E+02 -.189E+02 -.189E+02   -.179E+02 0.179E+02 0.179E+02   -.110E+01 0.110E+01 0.110E+01   -.377E-03 0.377E-03 0.377E-03
 -----------------------------------------------------------------------------------------------
   0.334E-08 0.334E-08 0.633E-10   0.000E+00 0.000E+00 0.000E+00   0.000E+00 0.222E-15 0.222E-15   0.568E-14 0.105E-13 -.115E-13
 
 
 POSITION                                       TOTAL-FORCE (eV/Angst)
 -----------------------------------------------------------------------------------
      1.37184      4.06600      1.37184         0.074005     -0.074005      0.074005
      0.00000      0.00000      2.71892        -0.000000     -0.000000     -0.000000
      1.37184      1.37184      4.06600         0.074005      0.074005     -0.074005
      0.00000      2.71892      0.00000         0.000000     -0.000000     -0.000000
      4.06600      4.06600      4.06600        -0.074005     -0.074005     -0.074005
      2.71892      0.00000      0.00000        -0.000000     -0.000000     -0.000000
      4.06600      1.37184      1.37184        -0.074005      0.074005      0.074005
 -----------------------------------------------------------------------------------
    total drift:                                0.000000      0.000000      0.000000


--------------------------------------------------------------------------------------------------------



  FREE ENERGIE OF THE ION-ELECTRON SYSTEM (eV)
  ---------------------------------------------------
  free  energy   TOTEN  =       -37.01626226 eV

  energy  without entropy=      -37.00975376  energy(sigma->0) =      -37.01300801
 


--------------------------------------------------------------------------------------------------------


    POTLOK:  cpu time      0.2280: real time      0.2280


--------------------------------------------------------------------------------------------------------


 writing wavefunctions
     LOOP+:  cpu time     65.7034: real time     65.9514
    4ORBIT:  cpu time      0.0000: real time      0.0000



 total charge

# of ion       s       p       d       tot
------------------------------------------
    1        0.805   0.811   0.000   1.616
    2        0.759   0.907   0.000   1.665
    3        0.805   0.811   0.000   1.616
    4        0.759   0.907   0.000   1.665
    5        0.805   0.811   0.000   1.616
    6        0.759   0.907   0.000   1.665
    7        0.805   0.811   0.000   1.616
--------------------------------------------------
tot          5.496   5.963   0.000  11.459



 magnetization (x)

# of ion       s       p       d       tot
------------------------------------------
    1        0.000   0.000   0.000   0.000
    2        0.000   0.000   0.000   0.000
    3        0.000   0.000   0.000   0.000
    4        0.000   0.000   0.000   0.000
    5        0.000   0.000   0.000   0.000
    6        0.000   0.000   0.000   0.000
    7        0.000   0.000   0.000   0.000
--------------------------------------------------
tot          0.000   0.000   0.000   0.000
 

 total amount of memory used by VASP MPI-rank0    40713. kBytes
=======================================================================

   base      :      30000. kBytes
   nonl-proj :       3140. kBytes
   fftplans  :        508. kBytes
   grid      :       5640. kBytes
   one-center:         43. kBytes
   wavefun   :       1382. kBytes
 
  
  
 General timing and accounting informations for this job:
 ========================================================
  
                  Total CPU time used (sec):       72.408
                            User time (sec):       69.121
                          System time (sec):        3.287
                         Elapsed time (sec):       74.181
  
                   Maximum memory used (kb):      154768.
                   Average memory used (kb):          N/A
  
                          Minor page faults:       133280
                          Major page faults:            0
                 Voluntary context switches:         3719
