<?xml version="1.0" encoding="ISO-8859-1"?>
<modeling>
 <generator>
  <i name="program" type="string">vasp </i>
  <i name="version" type="string">6.3.0  </i>
  <i name="subversion" type="string">20Jan22 (build Feb 02 2022 18:12:33) complex                          parallel </i>
  <i name="platform" type="string">LinuxIFC </i>
  <i name="date" type="string">2022 04 15 </i>
  <i name="time" type="string">08:45:19 </i>
 </generator>
 <incar>
  <i type="string" name="PREC">Accurate</i>
  <i type="string" name="ALGO">Fast</i>
  <i type="int" name="ISPIN">     2</i>
  <i type="int" name="NELM">   200</i>
  <i type="int" name="NELMIN">     6</i>
  <i name="EDIFF">      0.00001000</i>
  <i type="int" name="NSW">     0</i>
  <i name="ENCUT">    500.00000000</i>
  <i name="ENAUG">   1360.00000000</i>
  <v name="MAGMOM">      0.00100000      0.00000000      0.00100000      0.00000000      0.00100000      0.00000000      0.00100000</v>
  <i name="NELECT">     28.00000000</i>
  <i type="logical" name="LREAL"> F  </i>
  <i type="int" name="ISMEAR">     0</i>
  <i name="SIGMA">      0.05000000</i>
  <i type="logical" name="LWAVE"> T  </i>
  <i type="logical" name="LCHARG"> T  </i>
  <i type="logical" name="LVTOT"> T  </i>
  <i type="int" name="LORBIT">    11</i>
  <i type="logical" name="LELF"> F  </i>
  <i type="logical" name="LASPH"> T  </i>
  <i type="logical" name="LAECHG"> F  </i>
  <i type="string" name="GGA">Ps</i>
  <i type="logical" name="LMIXTAU"> T  </i>
 </incar>
 <primitive_cell>
  <structure name="primitive_cell" >
   <crystal>
    <varray name="basis" >
     <v>       5.43784835       0.00000000       0.00000000 </v>
     <v>       0.00000000       5.43784835       0.00000000 </v>
     <v>       0.00000000       0.00000000       5.43784835 </v>
    </varray>
    <i name="volume">    160.79823434 </i>
    <varray name="rec_basis" >
     <v>       0.18389626       0.00000000       0.00000000 </v>
     <v>       0.00000000       0.18389626       0.00000000 </v>
     <v>       0.00000000       0.00000000       0.18389626 </v>
    </varray>
   </crystal>
   <varray name="positions" >
    <v>       0.25227698       0.74772302       0.25227698 </v>
    <v>       0.00000000       0.00000000       0.50000000 </v>
    <v>       0.25227698       0.25227698       0.74772302 </v>
    <v>       0.00000000       0.50000000       0.00000000 </v>
    <v>       0.74772302       0.74772302       0.74772302 </v>
    <v>       0.50000000       0.00000000       0.00000000 </v>
    <v>       0.74772302       0.25227698       0.25227698 </v>
   </varray>
  </structure>
  <varray name="primitive_index" >
   <v type="int" >        1 </v>
   <v type="int" >        2 </v>
   <v type="int" >        3 </v>
   <v type="int" >        4 </v>
   <v type="int" >        5 </v>
   <v type="int" >        6 </v>
   <v type="int" >        7 </v>
  </varray>
 </primitive_cell>
 <kpoints>
  <generation param="Gamma">
   <v type="int" name="divisions">       4        4        4 </v>
   <v name="usershift">      0.00000000       0.00000000       0.00000000 </v>
   <v name="genvec1">      0.25000000       0.00000000       0.00000000 </v>
   <v name="genvec2">      0.00000000       0.25000000       0.00000000 </v>
   <v name="genvec3">      0.00000000       0.00000000       0.25000000 </v>
   <v name="shift">      0.00000000       0.00000000       0.00000000 </v>
  </generation>
  <varray name="kpointlist" >
   <v>       0.00000000       0.00000000       0.00000000 </v>
   <v>       0.25000000       0.00000000       0.00000000 </v>
   <v>       0.50000000       0.00000000       0.00000000 </v>
   <v>       0.25000000       0.25000000       0.00000000 </v>
   <v>       0.50000000       0.25000000       0.00000000 </v>
   <v>       0.50000000       0.50000000       0.00000000 </v>
   <v>       0.25000000       0.25000000       0.25000000 </v>
   <v>       0.50000000       0.25000000       0.25000000 </v>
   <v>       0.50000000       0.50000000       0.25000000 </v>
   <v>       0.50000000       0.50000000       0.50000000 </v>
  </varray>
  <varray name="weights" >
   <v>       0.01562500 </v>
   <v>       0.09375000 </v>
   <v>       0.04687500 </v>
   <v>       0.18750000 </v>
   <v>       0.18750000 </v>
   <v>       0.04687500 </v>
   <v>       0.12500000 </v>
   <v>       0.18750000 </v>
   <v>       0.09375000 </v>
   <v>       0.01562500 </v>
  </varray>
 </kpoints>
 <parameters>
  <separator name="general" >
   <i type="string" name="SYSTEM">unknown system</i>
   <i type="logical" name="LCOMPAT"> F  </i>
  </separator>
  <separator name="electronic" >
   <i type="string" name="PREC">accura</i>
   <i name="ENMAX">    500.00000000</i>
   <i name="ENAUG">   1360.00000000</i>
   <i name="EDIFF">      0.00001000</i>
   <i type="int" name="IALGO">    68</i>
   <i type="int" name="IWAVPR">    10</i>
   <i type="int" name="NBANDS">   144</i>
   <i type="int" name="NBANDSLOW">    -1</i>
   <i type="int" name="NBANDSHIGH">    -1</i>
   <i name="NELECT">     28.00000000</i>
   <i type="int" name="TURBO">     0</i>
   <i type="int" name="IRESTART">     0</i>
   <i type="int" name="NREBOOT">     0</i>
   <i type="int" name="NMIN">     0</i>
   <i name="EREF">      0.00000000</i>
   <separator name="electronic smearing" >
    <i type="int" name="ISMEAR">     0</i>
    <i name="SIGMA">      0.05000000</i>
    <i name="KSPACING">      0.50000000</i>
    <i type="logical" name="KGAMMA"> T  </i>
    <i type="logical" name="KBLOWUP"> T  </i>
   </separator>
   <separator name="electronic projectors" >
    <i type="logical" name="LREAL"> F  </i>
    <v name="ROPT">      0.00000000</v>
    <i type="int" name="LMAXPAW">  -100</i>
    <i type="int" name="LMAXMIX">     2</i>
    <i type="logical" name="NLSPLINE"> F  </i>
   </separator>
   <separator name="electronic startup" >
    <i type="int" name="ISTART">     0</i>
    <i type="int" name="ICHARG">     2</i>
    <i type="int" name="INIWAV">     1</i>
   </separator>
   <separator name="electronic spin" >
    <i type="int" name="ISPIN">     2</i>
    <i type="logical" name="LNONCOLLINEAR"> F  </i>
    <v name="MAGMOM">      0.00100000      0.00000000      0.00100000      0.00000000      0.00100000      0.00000000      0.00100000</v>
    <i name="NUPDOWN">     -1.00000000</i>
    <i type="logical" name="LSORBIT"> F  </i>
    <v name="SAXIS">      0.00000000      0.00000000      1.00000000</v>
    <i type="logical" name="LSPIRAL"> F  </i>
    <v name="QSPIRAL">      0.00000000      0.00000000      0.00000000</v>
    <i type="logical" name="LZEROZ"> F  </i>
   </separator>
   <separator name="electronic exchange-correlation" >
    <i type="logical" name="LASPH"> T  </i>
    <i type="logical" name="LMETAGGA"> F  </i>
   </separator>
   <separator name="electronic convergence" >
    <i type="int" name="NELM">   200</i>
    <i type="int" name="NELMDL">    -5</i>
    <i type="int" name="NELMIN">     6</i>
    <i name="ENINI">    500.00000000</i>
    <separator name="electronic convergence detail" >
     <i type="logical" name="LDIAG"> T  </i>
     <i type="logical" name="LSUBROT"> F  </i>
     <i name="WEIMIN">      0.00000000</i>
     <i name="EBREAK">      0.00000002</i>
     <i name="DEPER">      0.30000000</i>
     <i type="int" name="NRMM">     4</i>
     <i name="TIME">      0.40000000</i>
    </separator>
   </separator>
   <separator name="electronic mixer" >
    <i name="AMIX">      0.40000000</i>
    <i name="BMIX">      1.00000000</i>
    <i name="AMIN">      0.10000000</i>
    <i name="AMIX_MAG">      1.60000000</i>
    <i name="BMIX_MAG">      1.00000000</i>
    <separator name="electronic mixer details" >
     <i type="int" name="IMIX">     4</i>
     <i type="logical" name="MIXFIRST"> F  </i>
     <i type="int" name="MAXMIX">   -45</i>
     <i name="WC">    100.00000000</i>
     <i type="int" name="INIMIX">     1</i>
     <i type="int" name="MIXPRE">     1</i>
     <i type="int" name="MREMOVE">     5</i>
    </separator>
   </separator>
   <separator name="electronic dipolcorrection" >
    <i type="logical" name="LDIPOL"> F  </i>
    <i type="logical" name="LMONO"> F  </i>
    <i type="int" name="IDIPOL">     0</i>
    <i name="EPSILON">      1.00000000</i>
    <v name="DIPOL">   -100.00000000   -100.00000000   -100.00000000</v>
    <i name="EFIELD">      0.00000000</i>
   </separator>
  </separator>
  <separator name="grids" >
   <i type="int" name="NGX">    40</i>
   <i type="int" name="NGY">    40</i>
   <i type="int" name="NGZ">    40</i>
   <i type="int" name="NGXF">    80</i>
   <i type="int" name="NGYF">    80</i>
   <i type="int" name="NGZF">    80</i>
   <i type="logical" name="ADDGRID"> F  </i>
  </separator>
  <separator name="ionic" >
   <i type="int" name="NSW">     0</i>
   <i type="int" name="IBRION">    -1</i>
   <i type="int" name="MDALGO">     0</i>
   <i type="int" name="ISIF">     2</i>
   <i name="PSTRESS">      0.00000000</i>
   <i name="EDIFFG">      0.00010000</i>
   <i type="int" name="NFREE">     0</i>
   <i name="POTIM">      0.50000000</i>
   <i name="SMASS">     -3.00000000</i>
   <i name="SCALEE">      1.00000000</i>
  </separator>
  <separator name="ionic md" >
   <i name="TEBEG">      0.00010000</i>
   <i name="TEEND">      0.00010000</i>
   <i type="int" name="NBLOCK">     1</i>
   <i type="int" name="KBLOCK">     1</i>
   <i type="int" name="NPACO">   256</i>
   <i name="APACO">     10.00000000</i>
  </separator>
  <separator name="symmetry" >
   <i type="int" name="ISYM">     2</i>
   <i name="SYMPREC">      0.00001000</i>
  </separator>
  <separator name="dos" >
   <i type="int" name="LORBIT">    11</i>
   <v name="RWIGS">     -1.00000000</v>
   <i type="int" name="NEDOS">   301</i>
   <i name="EMIN">     10.00000000</i>
   <i name="EMAX">    -10.00000000</i>
   <i name="EFERMI">      0.00000000</i>
  </separator>
  <separator name="writing" >
   <i type="int" name="NWRITE">     2</i>
   <i type="logical" name="LWAVE"> T  </i>
   <i type="logical" name="LDOWNSAMPLE"> F  </i>
   <i type="logical" name="LCHARG"> T  </i>
   <i type="logical" name="LPARD"> F  </i>
   <i type="logical" name="LVTOT"> T  </i>
   <i type="logical" name="LVHAR"> F  </i>
   <i type="logical" name="LELF"> F  </i>
   <i type="logical" name="LOPTICS"> F  </i>
   <v name="STM">      0.00000000      0.00000000      0.00000000      0.00000000      0.00000000      0.00000000      0.00000000</v>
  </separator>
  <separator name="performance" >
   <i type="int" name="NPAR">   144</i>
   <i type="int" name="NSIM">     4</i>
   <i type="int" name="NBLK">    -1</i>
   <i type="logical" name="LPLANE"> T  </i>
   <i type="logical" name="LSCALAPACK"> T  </i>
   <i type="logical" name="LSCAAWARE"> T  </i>
   <i type="logical" name="LSCALU"> F  </i>
   <i type="logical" name="LASYNC"> F  </i>
   <i type="logical" name="LORBITALREAL"> F  </i>
  </separator>
  <separator name="miscellaneous" >
   <i type="int" name="IDIOT">     3</i>
   <i type="int" name="PHON_NSTRUCT">    -1</i>
   <i type="logical" name="LMUSIC"> F  </i>
   <v name="POMASS">     28.08500000</v>
   <v name="DARWINR">      0.00000000</v>
   <v name="DARWINV">      1.00000000</v>
   <i type="logical" name="LCORR"> T  </i>
  </separator>
  <i type="logical" name="GGA_COMPAT"> T  </i>
  <i type="logical" name="LBERRY"> F  </i>
  <i type="int" name="ICORELEVEL">     0</i>
  <i type="logical" name="LDAU"> F  </i>
  <i type="int" name="I_CONSTRAINED_M">     0</i>
  <separator name="electronic exchange-correlation" >
   <i type="string" name="GGA">PS</i>
   <i type="int" name="VOSKOWN">     0</i>
   <i type="logical" name="LHFCALC"> F  </i>
   <i type="string" name="PRECFOCK"></i>
   <i type="logical" name="LSYMGRAD"> F  </i>
   <i type="logical" name="LHFONE"> F  </i>
   <i type="logical" name="LRHFCALC"> F  </i>
   <i type="logical" name="LTHOMAS"> F  </i>
   <i type="logical" name="LMODELHF"> F  </i>
   <i type="logical" name="LFOCKACE"> F  </i>
   <i name="ENCUT4O">     -1.00000000</i>
   <i type="int" name="EXXOEP">     0</i>
   <i type="int" name="FOURORBIT">     0</i>
   <i name="AEXX">      0.00000000</i>
   <i name="HFALPHA">      0.00000000</i>
   <i name="MCALPHA">      0.00000000</i>
   <i name="ALDAX">      1.00000000</i>
   <i name="AGGAX">      1.00000000</i>
   <i name="ALDAC">      1.00000000</i>
   <i name="AGGAC">      1.00000000</i>
   <i type="int" name="NKREDX">     1</i>
   <i type="int" name="NKREDY">     1</i>
   <i type="int" name="NKREDZ">     1</i>
   <i type="logical" name="SHIFTRED"> F  </i>
   <i type="logical" name="ODDONLY"> F  </i>
   <i type="logical" name="EVENONLY"> F  </i>
   <i type="int" name="LMAXFOCK">     0</i>
   <i type="int" name="NMAXFOCKAE">     0</i>
   <i type="logical" name="LFOCKAEDFT"> F  </i>
   <i name="HFSCREEN">      0.00000000</i>
   <i name="HFSCREENC">      0.00000000</i>
   <i type="int" name="NBANDSGWLOW">     0</i>
  </separator>
  <separator name="vdW DFT" >
   <i type="logical" name="LUSE_VDW"> F  </i>
   <i name="Zab_VDW">     -0.84910000</i>
   <i name="PARAM1">      0.12340000</i>
   <i name="PARAM2">      1.00000000</i>
   <i name="PARAM3">      0.00000000</i>
  </separator>
  <separator name="model GW" >
   <i type="int" name="MODEL_GW">     0</i>
   <i name="MODEL_EPS0">     13.78270580</i>
   <i name="MODEL_ALPHA">      1.00000000</i>
  </separator>
  <separator name="linear response parameters" >
   <i type="logical" name="LEPSILON"> F  </i>
   <i type="logical" name="LRPA"> F  </i>
   <i type="logical" name="LNABLA"> F  </i>
   <i type="logical" name="LVEL"> F  </i>
   <i name="CSHIFT">      0.10000000</i>
   <i name="OMEGAMAX">     -1.00000000</i>
   <i name="DEG_THRESHOLD">      0.00200000</i>
   <i name="RTIME">     -0.10000000</i>
   <i name="WPLASMAI">      0.00000000</i>
   <v name="DFIELD">      0.00000000      0.00000000      0.00000000</v>
   <v name="WPLASMA">      0.00000000      0.00000000      0.00000000      0.00000000      0.00000000      0.00000000      0.00000000      0.00000000      0.00000000</v>
  </separator>
  <separator name="orbital magnetization" >
   <i type="logical" name="NUCIND"> F  </i>
   <v name="MAGPOS">      0.00000000      0.00000000      0.00000000</v>
   <i type="logical" name="LNICSALL"> T  </i>
   <i type="logical" name="ORBITALMAG"> F  </i>
   <i type="logical" name="LMAGBLOCH"> F  </i>
   <i type="logical" name="LCHIMAG"> F  </i>
   <i type="logical" name="LGAUGE"> T  </i>
   <i type="int" name="MAGATOM">     0</i>
   <v name="MAGDIPOL">      0.00000000      0.00000000      0.00000000</v>
   <v name="AVECCONST">      0.00000000      0.00000000      0.00000000</v>
  </separator>
  <separator name="response functions" >
   <i type="logical" name="LFINITE_TEMPERATURE"> F  </i>
   <i type="logical" name="LADDER"> F  </i>
   <i type="logical" name="LRPAFORCE"> F  </i>
   <i type="logical" name="LFXC"> F  </i>
   <i type="logical" name="LHARTREE"> T  </i>
   <i type="int" name="IBSE">     0</i>
   <v type="int" name="KPOINT">    -1     0     0     0</v>
   <i type="logical" name="LTCTC"> F  </i>
   <i type="logical" name="LTCTE"> F  </i>
   <i type="logical" name="LTETE"> F  </i>
   <i type="logical" name="LTRIPLET"> F  </i>
   <i type="logical" name="LFXCEPS"> F  </i>
   <i type="logical" name="LFXHEG"> F  </i>
   <i type="int" name="NATURALO">     2</i>
   <i type="logical" name="LHOLEGF"> F  </i>
   <i type="logical" name="L2ORDER"> F  </i>
   <i type="logical" name="LDMP1"> F  </i>
   <i type="logical" name="LMP2LT"> F  </i>
   <i type="logical" name="LSMP2LT"> F  </i>
   <i type="logical" name="LGWLF"> F  </i>
   <i name="ENCUTGW">     -2.00000000</i>
   <i name="ENCUTGWSOFT">     -2.00000000</i>
   <i name="ENCUTLF">     -1.00000000</i>
   <i type="logical" name="LESF_SPLINES"> F  </i>
   <i type="int" name="LMAXMP2">    -1</i>
   <i name="SCISSOR">      0.00000000</i>
   <i type="int" name="NOMEGA">     0</i>
   <i type="int" name="NOMEGAR">     0</i>
   <i type="int" name="NBANDSGW">    -1</i>
   <i type="int" name="NBANDSO">    -1</i>
   <i type="int" name="NBANDSV">    -1</i>
   <i type="int" name="NELMGW">     1</i>
   <i type="int" name="NELMHF">     1</i>
   <i type="int" name="DIM">     3</i>
   <i type="int" name="IESPILON">     4</i>
   <i type="int" name="ANTIRES">     0</i>
   <i name="OMEGAMAX">    -30.00000000</i>
   <i name="OMEGAMIN">    -30.00000000</i>
   <i name="OMEGATL">   -200.00000000</i>
   <i type="int" name="OMEGAGRID">     0</i>
   <i name="CSHIFT">     -0.10000000</i>
   <i type="logical" name="LSELFENERGY"> F  </i>
   <i type="logical" name="LSPECTRAL"> F  </i>
   <i type="logical" name="LSPECTRALGW"> F  </i>
   <i type="logical" name="LSINGLES"> F  </i>
   <i type="logical" name="LFERMIGW"> F  </i>
   <i type="logical" name="ODDONLYGW"> F  </i>
   <i type="logical" name="EVENONLYGW"> F  </i>
   <i type="int" name="NKREDLFX">     1</i>
   <i type="int" name="NKREDLFY">     1</i>
   <i type="int" name="NKREDLFZ">     1</i>
   <i type="int" name="MAXMEM">  2800</i>
   <i type="int" name="TELESCOPE">     0</i>
   <i type="int" name="NTAUPAR">    -1</i>
   <i type="int" name="NOMEGAPAR">    -1</i>
   <i name="DAMP_NEWTON">      0.80000001</i>
   <i name="LAMBDA">      1.00000000</i>
  </separator>
  <separator name="External order field" >
   <i name="OFIELD_KAPPA">      0.00000000</i>
   <v name="OFIELD_K">      0.00000000      0.00000000      0.00000000</v>
   <i name="OFIELD_Q6_NEAR">      0.00000000</i>
   <i name="OFIELD_Q6_FAR">      0.00000000</i>
   <i name="OFIELD_A">      0.00000000</i>
  </separator>
  <separator name="optional k-points parameters" >
   <i type="int" name="KPOINTS_OPT_MODE">     1</i>
   <i type="logical" name="LKPOINTS_OPT"> F  </i>
  </separator>
 </parameters>
 <atominfo>
  <atoms>       7 </atoms>
  <types>       1 </types>
  <array name="atoms" >
   <dimension dim="1">ion</dimension>
   <field type="string">element</field>
   <field type="int">atomtype</field>
   <set>
    <rc><c>Si</c><c>   1</c></rc>
    <rc><c>Si</c><c>   1</c></rc>
    <rc><c>Si</c><c>   1</c></rc>
    <rc><c>Si</c><c>   1</c></rc>
    <rc><c>Si</c><c>   1</c></rc>
    <rc><c>Si</c><c>   1</c></rc>
    <rc><c>Si</c><c>   1</c></rc>
   </set>
  </array>
  <array name="atomtypes" >
   <dimension dim="1">type</dimension>
   <field type="int">atomspertype</field>
   <field type="string">element</field>
   <field>mass</field>
   <field>valence</field>
   <field type="string">pseudopotential</field>
   <set>
    <rc><c>   7</c><c>Si</c><c>     28.08500000</c><c>      4.00000000</c><c>  PAW_PBE Si 05Jan2001                  </c></rc>
   </set>
  </array>
 </atominfo>
 <structure name="initialpos" >
  <crystal>
   <varray name="basis" >
    <v>       5.43784835       0.00000000       0.00000000 </v>
    <v>       0.00000000       5.43784835       0.00000000 </v>
    <v>       0.00000000       0.00000000       5.43784835 </v>
   </varray>
   <i name="volume">    160.79823434 </i>
   <varray name="rec_basis" >
    <v>       0.18389626       0.00000000       0.00000000 </v>
    <v>       0.00000000       0.18389626       0.00000000 </v>
    <v>       0.00000000       0.00000000       0.18389626 </v>
   </varray>
  </crystal>
  <varray name="positions" >
   <v>       0.25227698       0.74772302       0.25227698 </v>
   <v>       0.00000000       0.00000000       0.50000000 </v>
   <v>       0.25227698       0.25227698       0.74772302 </v>
   <v>       0.00000000       0.50000000       0.00000000 </v>
   <v>       0.74772302       0.74772302       0.74772302 </v>
   <v>       0.50000000       0.00000000       0.00000000 </v>
   <v>       0.74772302       0.25227698       0.25227698 </v>
  </varray>
 </structure>
 <calculation>
  <scstep>
   <time name="dav">    5.17    5.18</time>
   <time name="total">    5.40    5.41</time>
   <energy>
    <i name="alphaZ">     10.25815623 </i>
    <i name="ewald">   -747.50453942 </i>
    <i name="hartreedc">    -57.31352719 </i>
    <i name="XCdc">    -62.56609614 </i>
    <i name="pawpsdc">    612.34974622 </i>
    <i name="pawaedc">   -491.33201668 </i>
    <i name="eentropy">     -0.00791032 </i>
    <i name="bandstr">     -0.98741076 </i>
    <i name="atom">    718.02812073 </i>
    <i name="e_fr_energy">    -19.07547734 </i>
    <i name="e_wo_entrp">    -19.06756702 </i>
    <i name="e_0_energy">    -19.07152218 </i>
   </energy>
  </scstep>
  <scstep>
   <time name="dav">   12.34   12.34</time>
   <time name="total">   12.34   12.35</time>
   <energy>
    <i name="e_fr_energy">    -37.75347050 </i>
    <i name="e_wo_entrp">    -37.74245719 </i>
    <i name="e_0_energy">    -37.74796384 </i>
   </energy>
  </scstep>
  <scstep>
   <time name="dav">    5.32    5.33</time>
   <time name="total">    5.32    5.34</time>
   <energy>
    <i name="e_fr_energy">    -37.76852963 </i>
    <i name="e_wo_entrp">    -37.75751638 </i>
    <i name="e_0_energy">    -37.76302300 </i>
   </energy>
  </scstep>
  <scstep>
   <time name="dav">   25.45   25.46</time>
   <time name="total">   25.45   25.47</time>
   <energy>
    <i name="e_fr_energy">    -37.76853734 </i>
    <i name="e_wo_entrp">    -37.75752410 </i>
    <i name="e_0_energy">    -37.76303072 </i>
   </energy>
  </scstep>
  <scstep>
   <time name="dav">    5.68    5.70</time>
   <time name="total">    5.73    5.75</time>
   <energy>
    <i name="e_fr_energy">    -37.76853734 </i>
    <i name="e_wo_entrp">    -37.75752410 </i>
    <i name="e_0_energy">    -37.76303072 </i>
   </energy>
  </scstep>
  <scstep>
   <time name="diag">    0.81    0.81</time>
   <time name="diis">    0.20    0.20</time>
   <time name="orth">    0.11    0.11</time>
   <time name="total">    1.39    1.41</time>
   <energy>
    <i name="e_fr_energy">    -37.18943650 </i>
    <i name="e_wo_entrp">    -37.18189157 </i>
    <i name="e_0_energy">    -37.18566403 </i>
   </energy>
  </scstep>
  <scstep>
   <time name="diag">    0.79    0.79</time>
   <time name="diis">    0.29    0.29</time>
   <time name="orth">    0.11    0.11</time>
   <time name="total">    1.45    1.47</time>
   <energy>
    <i name="e_fr_energy">    -37.02202065 </i>
    <i name="e_wo_entrp">    -37.01553394 </i>
    <i name="e_0_energy">    -37.01877729 </i>
   </energy>
  </scstep>
  <scstep>
   <time name="diag">    0.78    0.78</time>
   <time name="diis">    0.29    0.29</time>
   <time name="orth">    0.11    0.11</time>
   <time name="total">    1.44    1.46</time>
   <energy>
    <i name="e_fr_energy">    -37.01625088 </i>
    <i name="e_wo_entrp">    -37.00977840 </i>
    <i name="e_0_energy">    -37.01301464 </i>
   </energy>
  </scstep>
  <scstep>
   <time name="diag">    0.77    0.77</time>
   <time name="diis">    0.31    0.31</time>
   <time name="orth">    0.12    0.12</time>
   <time name="total">    1.48    1.48</time>
   <energy>
    <i name="e_fr_energy">    -37.01622816 </i>
    <i name="e_wo_entrp">    -37.00973000 </i>
    <i name="e_0_energy">    -37.01297908 </i>
   </energy>
  </scstep>
  <scstep>
   <time name="diag">    0.76    0.76</time>
   <time name="diis">    0.31    0.31</time>
   <time name="orth">    0.11    0.11</time>
   <time name="total">    1.45    1.47</time>
   <energy>
    <i name="e_fr_energy">    -37.01626153 </i>
    <i name="e_wo_entrp">    -37.00975223 </i>
    <i name="e_0_energy">    -37.01300688 </i>
   </energy>
  </scstep>
  <scstep>
   <time name="diag">    0.75    0.75</time>
   <time name="diis">    0.31    0.31</time>
   <time name="orth">    0.11    0.11</time>
   <time name="total">    1.40    1.42</time>
   <energy>
    <i name="alphaZ">     10.25815623 </i>
    <i name="ewald">   -747.50453942 </i>
    <i name="hartreedc">    -67.65937813 </i>
    <i name="XCdc">    -61.00334251 </i>
    <i name="pawpsdc">   2442.87293319 </i>
    <i name="pawaedc">  -2322.38301178 </i>
    <i name="eentropy">     -0.00650849 </i>
    <i name="bandstr">     -9.61869206 </i>
    <i name="atom">    718.02812073 </i>
    <i name="e_fr_energy">    -37.01626226 </i>
    <i name="e_wo_entrp">    -37.00975376 </i>
    <i name="e_0_energy">    -37.01300801 </i>
   </energy>
  </scstep>
  <structure>
   <crystal>
    <varray name="basis" >
     <v>       5.43784835       0.00000000       0.00000000 </v>
     <v>       0.00000000       5.43784835       0.00000000 </v>
     <v>       0.00000000       0.00000000       5.43784835 </v>
    </varray>
    <i name="volume">    160.79823434 </i>
    <varray name="rec_basis" >
     <v>       0.18389626       0.00000000       0.00000000 </v>
     <v>       0.00000000       0.18389626       0.00000000 </v>
     <v>       0.00000000       0.00000000       0.18389626 </v>
    </varray>
   </crystal>
   <varray name="positions" >
    <v>       0.25227698       0.74772302       0.25227698 </v>
    <v>       0.00000000       0.00000000       0.50000000 </v>
    <v>       0.25227698       0.25227698       0.74772302 </v>
    <v>       0.00000000       0.50000000       0.00000000 </v>
    <v>       0.74772302       0.74772302       0.74772302 </v>
    <v>       0.50000000       0.00000000       0.00000000 </v>
    <v>       0.74772302       0.25227698       0.25227698 </v>
   </varray>
  </structure>
  <varray name="forces" >
   <v>       0.07400452      -0.07400452       0.07400452 </v>
   <v>      -0.00000000      -0.00000000      -0.00000000 </v>
   <v>       0.07400452       0.07400452      -0.07400452 </v>
   <v>       0.00000000      -0.00000000      -0.00000000 </v>
   <v>      -0.07400452      -0.07400452      -0.07400452 </v>
   <v>      -0.00000000      -0.00000000      -0.00000000 </v>
   <v>      -0.07400452       0.07400452       0.07400452 </v>
  </varray>
  <varray name="stress" >
   <v>     -38.90955870      -0.00000000       0.00000000 </v>
   <v>      -0.00000000     -38.90955870       0.00000000 </v>
   <v>      -0.00000000       0.00000000     -38.90955870 </v>
  </varray>
  <energy>
   <i name="e_fr_energy">    -37.01626226 </i>
   <i name="e_wo_entrp">    -37.00975376 </i>
   <i name="e_0_energy">    -37.01300801 </i>
  </energy>
  <time name="totalsc">   65.70   65.95</time>
  <eigenvalues>
   <array>
    <dimension dim="1">band</dimension>
    <dimension dim="2">kpoint</dimension>
    <dimension dim="3">spin</dimension>
    <field>eigene</field>
    <field>occ</field>
    <set>
     <set comment="spin 1">
      <set comment="kpoint 1">
       <r>   -6.9674    1.0000 </r>
       <r>   -3.2972    1.0000 </r>
       <r>   -3.2972    1.0000 </r>
       <r>   -2.9192    1.0000 </r>
       <r>   -2.9192    1.0000 </r>
       <r>   -2.9192    1.0000 </r>
       <r>    1.2841    1.0000 </r>
       <r>    1.6697    1.0000 </r>
       <r>    1.6697    1.0000 </r>
       <r>    1.6697    1.0000 </r>
       <r>    2.8787    1.0000 </r>
       <r>    2.8787    1.0000 </r>
       <r>    2.8787    1.0000 </r>
       <r>    5.5857    0.0000 </r>
       <r>    5.5857    0.0000 </r>
       <r>    5.5857    0.0000 </r>
       <r>    5.6171    0.0000 </r>
       <r>    5.6171    0.0000 </r>
       <r>    6.1389    0.0000 </r>
       <r>    6.1389    0.0000 </r>
       <r>    6.1389    0.0000 </r>
       <r>    6.2067    0.0000 </r>
       <r>    8.6077    0.0000 </r>
       <r>    8.6077    0.0000 </r>
       <r>    8.6077    0.0000 </r>
       <r>   10.2426    0.0000 </r>
       <r>   12.9252    0.0000 </r>
       <r>   12.9252    0.0000 </r>
       <r>   13.1709    0.0000 </r>
       <r>   14.6006    0.0000 </r>
       <r>   14.6006    0.0000 </r>
       <r>   14.6006    0.0000 </r>
       <r>   15.5499    0.0000 </r>
       <r>   15.5499    0.0000 </r>
       <r>   15.5499    0.0000 </r>
       <r>   15.6099    0.0000 </r>
       <r>   15.6099    0.0000 </r>
       <r>   15.6099    0.0000 </r>
       <r>   16.3199    0.0000 </r>
       <r>   16.3199    0.0000 </r>
       <r>   16.3199    0.0000 </r>
       <r>   16.9819    0.0000 </r>
       <r>   17.4280    0.0000 </r>
       <r>   17.4280    0.0000 </r>
       <r>   17.4793    0.0000 </r>
       <r>   17.4793    0.0000 </r>
       <r>   17.4793    0.0000 </r>
       <r>   18.2224    0.0000 </r>
       <r>   18.2224    0.0000 </r>
       <r>   18.2224    0.0000 </r>
       <r>   19.1769    0.0000 </r>
       <r>   19.1972    0.0000 </r>
       <r>   19.1972    0.0000 </r>
       <r>   20.2598    0.0000 </r>
       <r>   20.9690    0.0000 </r>
       <r>   20.9690    0.0000 </r>
       <r>   20.9690    0.0000 </r>
       <r>   23.5288    0.0000 </r>
       <r>   23.6867    0.0000 </r>
       <r>   23.6867    0.0000 </r>
       <r>   23.6867    0.0000 </r>
       <r>   24.4213    0.0000 </r>
       <r>   24.4213    0.0000 </r>
       <r>   24.4213    0.0000 </r>
       <r>   24.8774    0.0000 </r>
       <r>   24.8774    0.0000 </r>
       <r>   24.8774    0.0000 </r>
       <r>   24.9459    0.0000 </r>
       <r>   24.9459    0.0000 </r>
       <r>   24.9459    0.0000 </r>
       <r>   25.4007    0.0000 </r>
       <r>   25.4007    0.0000 </r>
       <r>   26.0994    0.0000 </r>
       <r>   26.0994    0.0000 </r>
       <r>   26.3025    0.0000 </r>
       <r>   26.3025    0.0000 </r>
       <r>   26.3025    0.0000 </r>
       <r>   27.1753    0.0000 </r>
       <r>   27.1753    0.0000 </r>
       <r>   27.1753    0.0000 </r>
       <r>   27.5402    0.0000 </r>
       <r>   28.3727    0.0000 </r>
       <r>   28.3727    0.0000 </r>
       <r>   28.3727    0.0000 </r>
       <r>   29.3393    0.0000 </r>
       <r>   29.3393    0.0000 </r>
       <r>   30.8622    0.0000 </r>
       <r>   31.6342    0.0000 </r>
       <r>   31.6342    0.0000 </r>
       <r>   31.6342    0.0000 </r>
       <r>   32.9253    0.0000 </r>
       <r>   32.9253    0.0000 </r>
       <r>   33.1964    0.0000 </r>
       <r>   33.1964    0.0000 </r>
       <r>   33.1964    0.0000 </r>
       <r>   33.8173    0.0000 </r>
       <r>   33.8173    0.0000 </r>
       <r>   33.8173    0.0000 </r>
       <r>   35.2293    0.0000 </r>
       <r>   35.2293    0.0000 </r>
       <r>   35.2293    0.0000 </r>
       <r>   37.4976    0.0000 </r>
       <r>   37.4976    0.0000 </r>
       <r>   37.4976    0.0000 </r>
       <r>   38.9061    0.0000 </r>
       <r>   38.9061    0.0000 </r>
       <r>   38.9061    0.0000 </r>
       <r>   39.0582    0.0000 </r>
       <r>   39.0582    0.0000 </r>
       <r>   39.0582    0.0000 </r>
       <r>   39.1271    0.0000 </r>
       <r>   39.1271    0.0000 </r>
       <r>   39.3361    0.0000 </r>
       <r>   40.2247    0.0000 </r>
       <r>   40.3732    0.0000 </r>
       <r>   40.3732    0.0000 </r>
       <r>   40.3732    0.0000 </r>
       <r>   40.8641    0.0000 </r>
       <r>   40.8641    0.0000 </r>
       <r>   40.8641    0.0000 </r>
       <r>   41.9527    0.0000 </r>
       <r>   41.9527    0.0000 </r>
       <r>   41.9527    0.0000 </r>
       <r>   42.1912    0.0000 </r>
       <r>   42.1912    0.0000 </r>
       <r>   42.5737    0.0000 </r>
       <r>   42.8016    0.0000 </r>
       <r>   43.0041    0.0000 </r>
       <r>   43.0041    0.0000 </r>
       <r>   43.2037    0.0000 </r>
       <r>   43.2037    0.0000 </r>
       <r>   43.2037    0.0000 </r>
       <r>   44.2479    0.0000 </r>
       <r>   44.2479    0.0000 </r>
       <r>   44.2479    0.0000 </r>
       <r>   44.8154    0.0000 </r>
       <r>   44.8157    0.0000 </r>
       <r>   45.1319    0.0000 </r>
       <r>   45.1319    0.0000 </r>
       <r>   45.1319    0.0000 </r>
       <r>   45.7163    0.0000 </r>
       <r>   45.7163    0.0000 </r>
       <r>   45.7164    0.0000 </r>
       <r>   46.1381    0.0000 </r>
      </set>
      <set comment="kpoint 2">
       <r>   -6.7243    1.0000 </r>
       <r>   -4.6262    1.0000 </r>
       <r>   -3.2277    1.0000 </r>
       <r>   -2.8519    1.0000 </r>
       <r>   -2.8519    1.0000 </r>
       <r>   -1.5360    1.0000 </r>
       <r>    1.1787    1.0000 </r>
       <r>    1.4222    1.0000 </r>
       <r>    1.4222    1.0000 </r>
       <r>    1.5760    1.0000 </r>
       <r>    2.1427    1.0000 </r>
       <r>    2.6853    1.0000 </r>
       <r>    2.6853    1.0000 </r>
       <r>    4.9080    0.0007 </r>
       <r>    5.3393    0.0000 </r>
       <r>    5.3393    0.0000 </r>
       <r>    5.6916    0.0000 </r>
       <r>    6.3633    0.0000 </r>
       <r>    6.8054    0.0000 </r>
       <r>    6.9835    0.0000 </r>
       <r>    6.9835    0.0000 </r>
       <r>    7.4411    0.0000 </r>
       <r>    8.1863    0.0000 </r>
       <r>    9.6373    0.0000 </r>
       <r>    9.6373    0.0000 </r>
       <r>   10.7486    0.0000 </r>
       <r>   11.9813    0.0000 </r>
       <r>   12.4386    0.0000 </r>
       <r>   12.4459    0.0000 </r>
       <r>   12.4459    0.0000 </r>
       <r>   13.2583    0.0000 </r>
       <r>   13.5980    0.0000 </r>
       <r>   14.2854    0.0000 </r>
       <r>   14.3579    0.0000 </r>
       <r>   14.3579    0.0000 </r>
       <r>   15.0298    0.0000 </r>
       <r>   15.9288    0.0000 </r>
       <r>   15.9386    0.0000 </r>
       <r>   15.9386    0.0000 </r>
       <r>   16.7804    0.0000 </r>
       <r>   16.7804    0.0000 </r>
       <r>   16.7849    0.0000 </r>
       <r>   16.9647    0.0000 </r>
       <r>   17.4854    0.0000 </r>
       <r>   17.7015    0.0000 </r>
       <r>   18.3695    0.0000 </r>
       <r>   18.3695    0.0000 </r>
       <r>   18.9991    0.0000 </r>
       <r>   18.9991    0.0000 </r>
       <r>   19.4230    0.0000 </r>
       <r>   19.8955    0.0000 </r>
       <r>   19.9212    0.0000 </r>
       <r>   20.6779    0.0000 </r>
       <r>   21.0774    0.0000 </r>
       <r>   21.3986    0.0000 </r>
       <r>   21.3986    0.0000 </r>
       <r>   21.5890    0.0000 </r>
       <r>   22.0576    0.0000 </r>
       <r>   22.2372    0.0000 </r>
       <r>   22.2372    0.0000 </r>
       <r>   22.9026    0.0000 </r>
       <r>   23.3255    0.0000 </r>
       <r>   23.3255    0.0000 </r>
       <r>   23.5065    0.0000 </r>
       <r>   23.9334    0.0000 </r>
       <r>   24.3325    0.0000 </r>
       <r>   24.3325    0.0000 </r>
       <r>   24.5181    0.0000 </r>
       <r>   24.9037    0.0000 </r>
       <r>   25.7463    0.0000 </r>
       <r>   25.7463    0.0000 </r>
       <r>   26.3183    0.0000 </r>
       <r>   26.8374    0.0000 </r>
       <r>   27.0230    0.0000 </r>
       <r>   27.0230    0.0000 </r>
       <r>   27.5713    0.0000 </r>
       <r>   28.0795    0.0000 </r>
       <r>   28.1630    0.0000 </r>
       <r>   28.4230    0.0000 </r>
       <r>   28.4723    0.0000 </r>
       <r>   28.5984    0.0000 </r>
       <r>   28.5984    0.0000 </r>
       <r>   29.2893    0.0000 </r>
       <r>   29.4788    0.0000 </r>
       <r>   29.4788    0.0000 </r>
       <r>   29.9600    0.0000 </r>
       <r>   30.2413    0.0000 </r>
       <r>   30.7488    0.0000 </r>
       <r>   31.1724    0.0000 </r>
       <r>   31.1724    0.0000 </r>
       <r>   31.4125    0.0000 </r>
       <r>   32.7685    0.0000 </r>
       <r>   32.7685    0.0000 </r>
       <r>   32.8506    0.0000 </r>
       <r>   33.8789    0.0000 </r>
       <r>   34.6818    0.0000 </r>
       <r>   34.6818    0.0000 </r>
       <r>   34.7516    0.0000 </r>
       <r>   35.1701    0.0000 </r>
       <r>   36.0907    0.0000 </r>
       <r>   36.0907    0.0000 </r>
       <r>   36.3850    0.0000 </r>
       <r>   36.3850    0.0000 </r>
       <r>   36.7519    0.0000 </r>
       <r>   36.8596    0.0000 </r>
       <r>   36.9982    0.0000 </r>
       <r>   37.5174    0.0000 </r>
       <r>   37.5174    0.0000 </r>
       <r>   37.5459    0.0000 </r>
       <r>   38.2312    0.0000 </r>
       <r>   38.2312    0.0000 </r>
       <r>   38.3400    0.0000 </r>
       <r>   38.6275    0.0000 </r>
       <r>   39.8217    0.0000 </r>
       <r>   39.8217    0.0000 </r>
       <r>   39.9489    0.0000 </r>
       <r>   40.4458    0.0000 </r>
       <r>   40.5288    0.0000 </r>
       <r>   40.5288    0.0000 </r>
       <r>   40.7256    0.0000 </r>
       <r>   40.8949    0.0000 </r>
       <r>   41.4194    0.0000 </r>
       <r>   41.9596    0.0000 </r>
       <r>   42.0232    0.0000 </r>
       <r>   42.3644    0.0000 </r>
       <r>   42.3644    0.0000 </r>
       <r>   42.7747    0.0000 </r>
       <r>   43.3330    0.0000 </r>
       <r>   43.3330    0.0000 </r>
       <r>   43.3914    0.0000 </r>
       <r>   44.1838    0.0000 </r>
       <r>   44.1881    0.0000 </r>
       <r>   44.4611    0.0000 </r>
       <r>   44.7041    0.0000 </r>
       <r>   44.7041    0.0000 </r>
       <r>   44.8620    0.0000 </r>
       <r>   45.0403    0.0000 </r>
       <r>   45.0403    0.0000 </r>
       <r>   45.1962    0.0000 </r>
       <r>   45.3252    0.0000 </r>
       <r>   45.6126    0.0000 </r>
       <r>   45.6126    0.0000 </r>
       <r>   46.0038    0.0000 </r>
       <r>   46.0043    0.0000 </r>
      </set>
      <set comment="kpoint 3">
       <r>   -6.2367    1.0000 </r>
       <r>   -5.5578    1.0000 </r>
       <r>   -3.1521    1.0000 </r>
       <r>   -2.7791    1.0000 </r>
       <r>   -2.7791    1.0000 </r>
       <r>   -0.5598    1.0000 </r>
       <r>    0.7857    1.0000 </r>
       <r>    0.8768    1.0000 </r>
       <r>    1.1263    1.0000 </r>
       <r>    1.1263    1.0000 </r>
       <r>    2.7102    1.0000 </r>
       <r>    2.7102    1.0000 </r>
       <r>    2.9445    1.0000 </r>
       <r>    3.5305    1.0000 </r>
       <r>    4.8587    0.0363 </r>
       <r>    4.8587    0.0363 </r>
       <r>    6.1186    0.0000 </r>
       <r>    6.4207    0.0000 </r>
       <r>    8.1429    0.0000 </r>
       <r>    8.8696    0.0000 </r>
       <r>    9.1448    0.0000 </r>
       <r>    9.1448    0.0000 </r>
       <r>    9.1825    0.0000 </r>
       <r>    9.5642    0.0000 </r>
       <r>    9.7781    0.0000 </r>
       <r>    9.7781    0.0000 </r>
       <r>   10.4948    0.0000 </r>
       <r>   10.6230    0.0000 </r>
       <r>   11.0676    0.0000 </r>
       <r>   11.0676    0.0000 </r>
       <r>   12.8997    0.0000 </r>
       <r>   12.8997    0.0000 </r>
       <r>   13.5975    0.0000 </r>
       <r>   13.7947    0.0000 </r>
       <r>   14.8499    0.0000 </r>
       <r>   14.9176    0.0000 </r>
       <r>   15.1420    0.0000 </r>
       <r>   15.9303    0.0000 </r>
       <r>   15.9303    0.0000 </r>
       <r>   16.2856    0.0000 </r>
       <r>   16.6264    0.0000 </r>
       <r>   17.5064    0.0000 </r>
       <r>   17.5591    0.0000 </r>
       <r>   17.5591    0.0000 </r>
       <r>   18.1870    0.0000 </r>
       <r>   18.3532    0.0000 </r>
       <r>   18.5449    0.0000 </r>
       <r>   18.5449    0.0000 </r>
       <r>   19.2802    0.0000 </r>
       <r>   19.4653    0.0000 </r>
       <r>   19.4653    0.0000 </r>
       <r>   20.4165    0.0000 </r>
       <r>   21.3657    0.0000 </r>
       <r>   21.3657    0.0000 </r>
       <r>   21.3773    0.0000 </r>
       <r>   21.6188    0.0000 </r>
       <r>   22.5304    0.0000 </r>
       <r>   22.5304    0.0000 </r>
       <r>   22.5610    0.0000 </r>
       <r>   22.5610    0.0000 </r>
       <r>   23.0499    0.0000 </r>
       <r>   23.0839    0.0000 </r>
       <r>   23.4883    0.0000 </r>
       <r>   23.4883    0.0000 </r>
       <r>   23.5708    0.0000 </r>
       <r>   23.9544    0.0000 </r>
       <r>   24.1509    0.0000 </r>
       <r>   24.3700    0.0000 </r>
       <r>   24.8153    0.0000 </r>
       <r>   25.6479    0.0000 </r>
       <r>   26.1670    0.0000 </r>
       <r>   26.1670    0.0000 </r>
       <r>   26.4565    0.0000 </r>
       <r>   26.7339    0.0000 </r>
       <r>   26.7339    0.0000 </r>
       <r>   26.8047    0.0000 </r>
       <r>   27.0559    0.0000 </r>
       <r>   27.5612    0.0000 </r>
       <r>   28.9860    0.0000 </r>
       <r>   29.5214    0.0000 </r>
       <r>   29.7624    0.0000 </r>
       <r>   29.7624    0.0000 </r>
       <r>   30.0359    0.0000 </r>
       <r>   31.3649    0.0000 </r>
       <r>   31.7455    0.0000 </r>
       <r>   31.7455    0.0000 </r>
       <r>   31.8040    0.0000 </r>
       <r>   31.9982    0.0000 </r>
       <r>   32.0925    0.0000 </r>
       <r>   32.3832    0.0000 </r>
       <r>   32.3832    0.0000 </r>
       <r>   32.4166    0.0000 </r>
       <r>   32.5009    0.0000 </r>
       <r>   32.5009    0.0000 </r>
       <r>   33.5988    0.0000 </r>
       <r>   33.9334    0.0000 </r>
       <r>   33.9334    0.0000 </r>
       <r>   34.1143    0.0000 </r>
       <r>   34.2264    0.0000 </r>
       <r>   34.5073    0.0000 </r>
       <r>   34.7640    0.0000 </r>
       <r>   34.7640    0.0000 </r>
       <r>   34.8203    0.0000 </r>
       <r>   35.3423    0.0000 </r>
       <r>   35.3423    0.0000 </r>
       <r>   35.8334    0.0000 </r>
       <r>   36.0033    0.0000 </r>
       <r>   36.0033    0.0000 </r>
       <r>   36.5224    0.0000 </r>
       <r>   37.8845    0.0000 </r>
       <r>   38.5038    0.0000 </r>
       <r>   38.5317    0.0000 </r>
       <r>   38.5317    0.0000 </r>
       <r>   39.7770    0.0000 </r>
       <r>   39.9555    0.0000 </r>
       <r>   40.0233    0.0000 </r>
       <r>   40.4285    0.0000 </r>
       <r>   40.4285    0.0000 </r>
       <r>   40.4797    0.0000 </r>
       <r>   41.4173    0.0000 </r>
       <r>   41.6366    0.0000 </r>
       <r>   41.6684    0.0000 </r>
       <r>   41.6684    0.0000 </r>
       <r>   41.8052    0.0000 </r>
       <r>   41.8052    0.0000 </r>
       <r>   42.3538    0.0000 </r>
       <r>   42.4781    0.0000 </r>
       <r>   42.4781    0.0000 </r>
       <r>   42.5125    0.0000 </r>
       <r>   42.6593    0.0000 </r>
       <r>   43.1821    0.0000 </r>
       <r>   43.1821    0.0000 </r>
       <r>   44.7159    0.0000 </r>
       <r>   44.8233    0.0000 </r>
       <r>   44.8233    0.0000 </r>
       <r>   44.8255    0.0000 </r>
       <r>   45.1093    0.0000 </r>
       <r>   45.3118    0.0000 </r>
       <r>   45.3119    0.0000 </r>
       <r>   45.4096    0.0000 </r>
       <r>   45.4518    0.0000 </r>
       <r>   45.8945    0.0000 </r>
       <r>   46.4641    0.0000 </r>
       <r>   46.6898    0.0000 </r>
      </set>
      <set comment="kpoint 4">
       <r>   -6.4850    1.0000 </r>
       <r>   -4.6908    1.0000 </r>
       <r>   -4.2084    1.0000 </r>
       <r>   -2.9346    1.0000 </r>
       <r>   -2.0272    1.0000 </r>
       <r>   -1.1623    1.0000 </r>
       <r>    0.4769    1.0000 </r>
       <r>    1.3088    1.0000 </r>
       <r>    1.4395    1.0000 </r>
       <r>    1.8309    1.0000 </r>
       <r>    1.8337    1.0000 </r>
       <r>    2.7962    1.0000 </r>
       <r>    2.9015    1.0000 </r>
       <r>    4.0004    1.0000 </r>
       <r>    4.7747    0.7198 </r>
       <r>    5.7793    0.0000 </r>
       <r>    6.1814    0.0000 </r>
       <r>    6.7739    0.0000 </r>
       <r>    7.1644    0.0000 </r>
       <r>    7.4516    0.0000 </r>
       <r>    7.5513    0.0000 </r>
       <r>    9.0278    0.0000 </r>
       <r>    9.1826    0.0000 </r>
       <r>    9.3168    0.0000 </r>
       <r>    9.5003    0.0000 </r>
       <r>   10.2892    0.0000 </r>
       <r>   11.5045    0.0000 </r>
       <r>   11.5143    0.0000 </r>
       <r>   12.0262    0.0000 </r>
       <r>   12.3751    0.0000 </r>
       <r>   12.6076    0.0000 </r>
       <r>   13.1784    0.0000 </r>
       <r>   13.2767    0.0000 </r>
       <r>   14.0183    0.0000 </r>
       <r>   14.1913    0.0000 </r>
       <r>   14.7880    0.0000 </r>
       <r>   15.0239    0.0000 </r>
       <r>   15.5185    0.0000 </r>
       <r>   15.8004    0.0000 </r>
       <r>   16.1527    0.0000 </r>
       <r>   16.3665    0.0000 </r>
       <r>   16.6944    0.0000 </r>
       <r>   17.4943    0.0000 </r>
       <r>   18.1387    0.0000 </r>
       <r>   18.5519    0.0000 </r>
       <r>   18.6621    0.0000 </r>
       <r>   18.9324    0.0000 </r>
       <r>   19.2075    0.0000 </r>
       <r>   19.4955    0.0000 </r>
       <r>   19.5272    0.0000 </r>
       <r>   19.7704    0.0000 </r>
       <r>   19.8949    0.0000 </r>
       <r>   20.3315    0.0000 </r>
       <r>   20.7285    0.0000 </r>
       <r>   21.2017    0.0000 </r>
       <r>   21.2409    0.0000 </r>
       <r>   21.4344    0.0000 </r>
       <r>   22.3347    0.0000 </r>
       <r>   22.3497    0.0000 </r>
       <r>   22.6924    0.0000 </r>
       <r>   22.9148    0.0000 </r>
       <r>   23.0228    0.0000 </r>
       <r>   23.2827    0.0000 </r>
       <r>   23.8398    0.0000 </r>
       <r>   24.4254    0.0000 </r>
       <r>   24.6996    0.0000 </r>
       <r>   24.9221    0.0000 </r>
       <r>   25.0644    0.0000 </r>
       <r>   25.9210    0.0000 </r>
       <r>   26.0064    0.0000 </r>
       <r>   26.2730    0.0000 </r>
       <r>   26.3797    0.0000 </r>
       <r>   26.4134    0.0000 </r>
       <r>   26.9794    0.0000 </r>
       <r>   27.1083    0.0000 </r>
       <r>   27.2198    0.0000 </r>
       <r>   27.4199    0.0000 </r>
       <r>   27.7867    0.0000 </r>
       <r>   28.3113    0.0000 </r>
       <r>   28.5427    0.0000 </r>
       <r>   28.6744    0.0000 </r>
       <r>   29.0743    0.0000 </r>
       <r>   29.3068    0.0000 </r>
       <r>   29.9179    0.0000 </r>
       <r>   30.2900    0.0000 </r>
       <r>   30.5484    0.0000 </r>
       <r>   30.9071    0.0000 </r>
       <r>   31.0369    0.0000 </r>
       <r>   31.9773    0.0000 </r>
       <r>   32.2291    0.0000 </r>
       <r>   32.5235    0.0000 </r>
       <r>   32.8385    0.0000 </r>
       <r>   32.9635    0.0000 </r>
       <r>   33.2112    0.0000 </r>
       <r>   33.3733    0.0000 </r>
       <r>   33.6033    0.0000 </r>
       <r>   34.2654    0.0000 </r>
       <r>   34.5314    0.0000 </r>
       <r>   34.6634    0.0000 </r>
       <r>   35.1154    0.0000 </r>
       <r>   35.5164    0.0000 </r>
       <r>   35.5821    0.0000 </r>
       <r>   36.0540    0.0000 </r>
       <r>   36.3619    0.0000 </r>
       <r>   36.9916    0.0000 </r>
       <r>   37.0171    0.0000 </r>
       <r>   37.3168    0.0000 </r>
       <r>   37.6006    0.0000 </r>
       <r>   37.7741    0.0000 </r>
       <r>   37.8042    0.0000 </r>
       <r>   37.9404    0.0000 </r>
       <r>   38.2678    0.0000 </r>
       <r>   38.4932    0.0000 </r>
       <r>   38.7491    0.0000 </r>
       <r>   38.9650    0.0000 </r>
       <r>   39.1944    0.0000 </r>
       <r>   39.4857    0.0000 </r>
       <r>   39.5239    0.0000 </r>
       <r>   40.0545    0.0000 </r>
       <r>   40.0905    0.0000 </r>
       <r>   40.5027    0.0000 </r>
       <r>   40.9208    0.0000 </r>
       <r>   41.4220    0.0000 </r>
       <r>   42.0656    0.0000 </r>
       <r>   42.0990    0.0000 </r>
       <r>   42.2930    0.0000 </r>
       <r>   42.4677    0.0000 </r>
       <r>   42.9868    0.0000 </r>
       <r>   43.1159    0.0000 </r>
       <r>   43.2280    0.0000 </r>
       <r>   43.3482    0.0000 </r>
       <r>   43.4295    0.0000 </r>
       <r>   44.1531    0.0000 </r>
       <r>   44.2635    0.0000 </r>
       <r>   44.6165    0.0000 </r>
       <r>   44.7650    0.0000 </r>
       <r>   44.8283    0.0000 </r>
       <r>   44.9727    0.0000 </r>
       <r>   45.2399    0.0000 </r>
       <r>   45.7824    0.0000 </r>
       <r>   45.8329    0.0000 </r>
       <r>   46.1051    0.0000 </r>
       <r>   46.3045    0.0000 </r>
       <r>   46.5740    0.0000 </r>
      </set>
      <set comment="kpoint 5">
       <r>   -5.9936    1.0000 </r>
       <r>   -5.4186    1.0000 </r>
       <r>   -4.2205    1.0000 </r>
       <r>   -3.0730    1.0000 </r>
       <r>   -1.7568    1.0000 </r>
       <r>   -0.6796    1.0000 </r>
       <r>    0.3211    1.0000 </r>
       <r>    0.5767    1.0000 </r>
       <r>    1.4113    1.0000 </r>
       <r>    1.7419    1.0000 </r>
       <r>    2.4140    1.0000 </r>
       <r>    2.5251    1.0000 </r>
       <r>    2.9986    1.0000 </r>
       <r>    3.5030    1.0000 </r>
       <r>    4.9289    0.0001 </r>
       <r>    4.9650    0.0000 </r>
       <r>    7.3328    0.0000 </r>
       <r>    7.6192    0.0000 </r>
       <r>    7.7428    0.0000 </r>
       <r>    7.8161    0.0000 </r>
       <r>    8.9746    0.0000 </r>
       <r>    9.3311    0.0000 </r>
       <r>    9.4025    0.0000 </r>
       <r>    9.7577    0.0000 </r>
       <r>    9.8873    0.0000 </r>
       <r>    9.8938    0.0000 </r>
       <r>   10.2870    0.0000 </r>
       <r>   10.6578    0.0000 </r>
       <r>   11.4674    0.0000 </r>
       <r>   11.9482    0.0000 </r>
       <r>   12.3592    0.0000 </r>
       <r>   12.4825    0.0000 </r>
       <r>   12.8863    0.0000 </r>
       <r>   13.0320    0.0000 </r>
       <r>   13.5422    0.0000 </r>
       <r>   14.1765    0.0000 </r>
       <r>   15.1090    0.0000 </r>
       <r>   15.3554    0.0000 </r>
       <r>   15.9323    0.0000 </r>
       <r>   16.2677    0.0000 </r>
       <r>   16.7788    0.0000 </r>
       <r>   16.8428    0.0000 </r>
       <r>   17.1442    0.0000 </r>
       <r>   17.6306    0.0000 </r>
       <r>   18.7119    0.0000 </r>
       <r>   18.9053    0.0000 </r>
       <r>   19.0049    0.0000 </r>
       <r>   19.2480    0.0000 </r>
       <r>   19.6001    0.0000 </r>
       <r>   19.6486    0.0000 </r>
       <r>   19.8637    0.0000 </r>
       <r>   20.2262    0.0000 </r>
       <r>   20.2420    0.0000 </r>
       <r>   20.3763    0.0000 </r>
       <r>   20.9949    0.0000 </r>
       <r>   21.3465    0.0000 </r>
       <r>   21.9848    0.0000 </r>
       <r>   22.0718    0.0000 </r>
       <r>   22.2732    0.0000 </r>
       <r>   22.9042    0.0000 </r>
       <r>   23.0914    0.0000 </r>
       <r>   23.7010    0.0000 </r>
       <r>   23.8220    0.0000 </r>
       <r>   23.9252    0.0000 </r>
       <r>   24.5262    0.0000 </r>
       <r>   24.5988    0.0000 </r>
       <r>   25.2211    0.0000 </r>
       <r>   25.4702    0.0000 </r>
       <r>   25.5556    0.0000 </r>
       <r>   25.9429    0.0000 </r>
       <r>   26.1740    0.0000 </r>
       <r>   26.5403    0.0000 </r>
       <r>   27.0186    0.0000 </r>
       <r>   27.2646    0.0000 </r>
       <r>   27.3307    0.0000 </r>
       <r>   27.3448    0.0000 </r>
       <r>   27.8448    0.0000 </r>
       <r>   28.2479    0.0000 </r>
       <r>   28.5585    0.0000 </r>
       <r>   28.9998    0.0000 </r>
       <r>   29.0913    0.0000 </r>
       <r>   29.5718    0.0000 </r>
       <r>   29.5759    0.0000 </r>
       <r>   30.1256    0.0000 </r>
       <r>   30.7672    0.0000 </r>
       <r>   30.9244    0.0000 </r>
       <r>   31.4780    0.0000 </r>
       <r>   31.7376    0.0000 </r>
       <r>   32.0904    0.0000 </r>
       <r>   32.1783    0.0000 </r>
       <r>   32.4118    0.0000 </r>
       <r>   32.7414    0.0000 </r>
       <r>   32.7430    0.0000 </r>
       <r>   33.2848    0.0000 </r>
       <r>   33.3668    0.0000 </r>
       <r>   33.7430    0.0000 </r>
       <r>   33.8353    0.0000 </r>
       <r>   34.1860    0.0000 </r>
       <r>   34.5124    0.0000 </r>
       <r>   34.7017    0.0000 </r>
       <r>   35.0047    0.0000 </r>
       <r>   35.0505    0.0000 </r>
       <r>   35.6022    0.0000 </r>
       <r>   36.1443    0.0000 </r>
       <r>   36.1679    0.0000 </r>
       <r>   36.2249    0.0000 </r>
       <r>   36.4153    0.0000 </r>
       <r>   36.9092    0.0000 </r>
       <r>   37.1753    0.0000 </r>
       <r>   37.3735    0.0000 </r>
       <r>   37.3971    0.0000 </r>
       <r>   38.1005    0.0000 </r>
       <r>   38.1845    0.0000 </r>
       <r>   38.3631    0.0000 </r>
       <r>   38.7587    0.0000 </r>
       <r>   39.0131    0.0000 </r>
       <r>   39.2488    0.0000 </r>
       <r>   39.4586    0.0000 </r>
       <r>   40.2446    0.0000 </r>
       <r>   40.3829    0.0000 </r>
       <r>   40.5574    0.0000 </r>
       <r>   40.7808    0.0000 </r>
       <r>   41.1614    0.0000 </r>
       <r>   41.5350    0.0000 </r>
       <r>   41.7506    0.0000 </r>
       <r>   41.9327    0.0000 </r>
       <r>   42.1172    0.0000 </r>
       <r>   42.5359    0.0000 </r>
       <r>   42.6756    0.0000 </r>
       <r>   43.0130    0.0000 </r>
       <r>   43.1746    0.0000 </r>
       <r>   43.6854    0.0000 </r>
       <r>   43.7722    0.0000 </r>
       <r>   44.0726    0.0000 </r>
       <r>   44.2302    0.0000 </r>
       <r>   44.6892    0.0000 </r>
       <r>   44.9383    0.0000 </r>
       <r>   45.1723    0.0000 </r>
       <r>   45.3627    0.0000 </r>
       <r>   45.4639    0.0000 </r>
       <r>   45.7509    0.0000 </r>
       <r>   45.9512    0.0000 </r>
       <r>   46.2205    0.0000 </r>
       <r>   46.6397    0.0000 </r>
      </set>
      <set comment="kpoint 6">
       <r>   -5.3353    1.0000 </r>
       <r>   -5.2412    1.0000 </r>
       <r>   -5.2412    1.0000 </r>
       <r>   -3.4166    1.0000 </r>
       <r>   -0.6449    1.0000 </r>
       <r>   -0.6449    1.0000 </r>
       <r>   -0.6066    1.0000 </r>
       <r>    0.6532    1.0000 </r>
       <r>    1.2208    1.0000 </r>
       <r>    1.2208    1.0000 </r>
       <r>    2.6181    1.0000 </r>
       <r>    3.1088    1.0000 </r>
       <r>    3.2005    1.0000 </r>
       <r>    3.2776    1.0000 </r>
       <r>    5.4121    0.0000 </r>
       <r>    5.4121    0.0000 </r>
       <r>    6.9822    0.0000 </r>
       <r>    6.9822    0.0000 </r>
       <r>    8.4565    0.0000 </r>
       <r>    8.5082    0.0000 </r>
       <r>    9.3934    0.0000 </r>
       <r>    9.4472    0.0000 </r>
       <r>    9.7614    0.0000 </r>
       <r>    9.7614    0.0000 </r>
       <r>    9.9738    0.0000 </r>
       <r>   10.2171    0.0000 </r>
       <r>   10.2171    0.0000 </r>
       <r>   10.5139    0.0000 </r>
       <r>   11.0306    0.0000 </r>
       <r>   11.8271    0.0000 </r>
       <r>   11.8271    0.0000 </r>
       <r>   12.6758    0.0000 </r>
       <r>   12.6927    0.0000 </r>
       <r>   12.6927    0.0000 </r>
       <r>   12.8040    0.0000 </r>
       <r>   12.9949    0.0000 </r>
       <r>   14.4726    0.0000 </r>
       <r>   15.4628    0.0000 </r>
       <r>   15.4628    0.0000 </r>
       <r>   15.6199    0.0000 </r>
       <r>   17.3057    0.0000 </r>
       <r>   17.5458    0.0000 </r>
       <r>   17.5458    0.0000 </r>
       <r>   18.1196    0.0000 </r>
       <r>   18.2003    0.0000 </r>
       <r>   18.2003    0.0000 </r>
       <r>   18.4453    0.0000 </r>
       <r>   18.8998    0.0000 </r>
       <r>   19.1388    0.0000 </r>
       <r>   19.1388    0.0000 </r>
       <r>   19.2108    0.0000 </r>
       <r>   20.6154    0.0000 </r>
       <r>   21.3723    0.0000 </r>
       <r>   21.6908    0.0000 </r>
       <r>   21.6908    0.0000 </r>
       <r>   21.8754    0.0000 </r>
       <r>   21.8754    0.0000 </r>
       <r>   21.8911    0.0000 </r>
       <r>   21.9224    0.0000 </r>
       <r>   22.3507    0.0000 </r>
       <r>   23.1441    0.0000 </r>
       <r>   23.2677    0.0000 </r>
       <r>   23.5528    0.0000 </r>
       <r>   23.5528    0.0000 </r>
       <r>   24.4628    0.0000 </r>
       <r>   25.2506    0.0000 </r>
       <r>   26.2501    0.0000 </r>
       <r>   26.2501    0.0000 </r>
       <r>   26.4782    0.0000 </r>
       <r>   26.4782    0.0000 </r>
       <r>   26.6735    0.0000 </r>
       <r>   26.9388    0.0000 </r>
       <r>   26.9388    0.0000 </r>
       <r>   27.3671    0.0000 </r>
       <r>   27.6251    0.0000 </r>
       <r>   27.7386    0.0000 </r>
       <r>   28.8315    0.0000 </r>
       <r>   29.0423    0.0000 </r>
       <r>   29.0423    0.0000 </r>
       <r>   29.5111    0.0000 </r>
       <r>   29.7359    0.0000 </r>
       <r>   29.7359    0.0000 </r>
       <r>   29.8042    0.0000 </r>
       <r>   31.0390    0.0000 </r>
       <r>   31.0832    0.0000 </r>
       <r>   31.1376    0.0000 </r>
       <r>   31.3471    0.0000 </r>
       <r>   31.3471    0.0000 </r>
       <r>   31.4607    0.0000 </r>
       <r>   31.6998    0.0000 </r>
       <r>   31.9902    0.0000 </r>
       <r>   31.9902    0.0000 </r>
       <r>   32.6568    0.0000 </r>
       <r>   32.6568    0.0000 </r>
       <r>   32.7632    0.0000 </r>
       <r>   32.7971    0.0000 </r>
       <r>   32.7971    0.0000 </r>
       <r>   33.4346    0.0000 </r>
       <r>   33.8015    0.0000 </r>
       <r>   33.9725    0.0000 </r>
       <r>   34.1836    0.0000 </r>
       <r>   34.5309    0.0000 </r>
       <r>   35.4497    0.0000 </r>
       <r>   35.6277    0.0000 </r>
       <r>   35.6277    0.0000 </r>
       <r>   36.1394    0.0000 </r>
       <r>   36.5589    0.0000 </r>
       <r>   36.5589    0.0000 </r>
       <r>   37.2452    0.0000 </r>
       <r>   37.2452    0.0000 </r>
       <r>   37.6328    0.0000 </r>
       <r>   38.5168    0.0000 </r>
       <r>   38.9705    0.0000 </r>
       <r>   38.9705    0.0000 </r>
       <r>   39.1270    0.0000 </r>
       <r>   39.9606    0.0000 </r>
       <r>   40.3286    0.0000 </r>
       <r>   40.8223    0.0000 </r>
       <r>   40.8223    0.0000 </r>
       <r>   40.8380    0.0000 </r>
       <r>   40.9122    0.0000 </r>
       <r>   41.3114    0.0000 </r>
       <r>   41.6548    0.0000 </r>
       <r>   41.8787    0.0000 </r>
       <r>   41.8787    0.0000 </r>
       <r>   42.1943    0.0000 </r>
       <r>   42.3547    0.0000 </r>
       <r>   42.6094    0.0000 </r>
       <r>   42.7283    0.0000 </r>
       <r>   42.7283    0.0000 </r>
       <r>   42.7855    0.0000 </r>
       <r>   42.7855    0.0000 </r>
       <r>   42.9170    0.0000 </r>
       <r>   43.0688    0.0000 </r>
       <r>   43.0688    0.0000 </r>
       <r>   43.3736    0.0000 </r>
       <r>   43.6338    0.0000 </r>
       <r>   43.8855    0.0000 </r>
       <r>   43.8855    0.0000 </r>
       <r>   44.3199    0.0000 </r>
       <r>   44.3199    0.0000 </r>
       <r>   44.4486    0.0000 </r>
       <r>   44.9855    0.0000 </r>
       <r>   45.0216    0.0000 </r>
      </set>
      <set comment="kpoint 7">
       <r>   -6.2534    1.0000 </r>
       <r>   -4.5895    1.0000 </r>
       <r>   -4.5895    1.0000 </r>
       <r>   -3.2593    1.0000 </r>
       <r>   -1.4963    1.0000 </r>
       <r>   -1.4963    1.0000 </r>
       <r>    0.0869    1.0000 </r>
       <r>    1.1558    1.0000 </r>
       <r>    1.1558    1.0000 </r>
       <r>    2.2474    1.0000 </r>
       <r>    2.3129    1.0000 </r>
       <r>    3.0500    1.0000 </r>
       <r>    3.0500    1.0000 </r>
       <r>    3.6201    1.0000 </r>
       <r>    5.5382    0.0000 </r>
       <r>    5.5382    0.0000 </r>
       <r>    6.3488    0.0000 </r>
       <r>    6.4594    0.0000 </r>
       <r>    6.4594    0.0000 </r>
       <r>    8.6174    0.0000 </r>
       <r>    8.7189    0.0000 </r>
       <r>    8.7189    0.0000 </r>
       <r>    9.7552    0.0000 </r>
       <r>    9.7552    0.0000 </r>
       <r>    9.9017    0.0000 </r>
       <r>   10.3143    0.0000 </r>
       <r>   10.3143    0.0000 </r>
       <r>   10.3982    0.0000 </r>
       <r>   11.7670    0.0000 </r>
       <r>   11.7670    0.0000 </r>
       <r>   12.5518    0.0000 </r>
       <r>   12.9908    0.0000 </r>
       <r>   12.9908    0.0000 </r>
       <r>   13.9591    0.0000 </r>
       <r>   14.0182    0.0000 </r>
       <r>   15.2171    0.0000 </r>
       <r>   15.3487    0.0000 </r>
       <r>   15.3487    0.0000 </r>
       <r>   15.8005    0.0000 </r>
       <r>   15.9345    0.0000 </r>
       <r>   15.9345    0.0000 </r>
       <r>   16.9955    0.0000 </r>
       <r>   17.3378    0.0000 </r>
       <r>   17.4683    0.0000 </r>
       <r>   17.4683    0.0000 </r>
       <r>   17.7425    0.0000 </r>
       <r>   18.5986    0.0000 </r>
       <r>   18.5986    0.0000 </r>
       <r>   19.4362    0.0000 </r>
       <r>   19.4362    0.0000 </r>
       <r>   19.4883    0.0000 </r>
       <r>   20.2275    0.0000 </r>
       <r>   20.2275    0.0000 </r>
       <r>   22.0367    0.0000 </r>
       <r>   22.0367    0.0000 </r>
       <r>   22.3199    0.0000 </r>
       <r>   22.3759    0.0000 </r>
       <r>   22.7694    0.0000 </r>
       <r>   22.7694    0.0000 </r>
       <r>   23.1513    0.0000 </r>
       <r>   23.2312    0.0000 </r>
       <r>   23.2312    0.0000 </r>
       <r>   23.9467    0.0000 </r>
       <r>   23.9896    0.0000 </r>
       <r>   23.9896    0.0000 </r>
       <r>   24.3946    0.0000 </r>
       <r>   24.7002    0.0000 </r>
       <r>   24.7002    0.0000 </r>
       <r>   24.7111    0.0000 </r>
       <r>   25.9683    0.0000 </r>
       <r>   25.9683    0.0000 </r>
       <r>   26.2964    0.0000 </r>
       <r>   26.5694    0.0000 </r>
       <r>   26.7247    0.0000 </r>
       <r>   26.7247    0.0000 </r>
       <r>   27.6947    0.0000 </r>
       <r>   27.6947    0.0000 </r>
       <r>   28.8820    0.0000 </r>
       <r>   28.9949    0.0000 </r>
       <r>   28.9949    0.0000 </r>
       <r>   29.7492    0.0000 </r>
       <r>   29.8440    0.0000 </r>
       <r>   29.8440    0.0000 </r>
       <r>   29.9566    0.0000 </r>
       <r>   30.3891    0.0000 </r>
       <r>   30.3891    0.0000 </r>
       <r>   31.3767    0.0000 </r>
       <r>   32.2574    0.0000 </r>
       <r>   32.2574    0.0000 </r>
       <r>   32.5036    0.0000 </r>
       <r>   32.8887    0.0000 </r>
       <r>   32.8887    0.0000 </r>
       <r>   33.4390    0.0000 </r>
       <r>   33.5452    0.0000 </r>
       <r>   33.5452    0.0000 </r>
       <r>   33.6642    0.0000 </r>
       <r>   34.1084    0.0000 </r>
       <r>   34.2528    0.0000 </r>
       <r>   34.2528    0.0000 </r>
       <r>   34.5563    0.0000 </r>
       <r>   34.8855    0.0000 </r>
       <r>   34.8855    0.0000 </r>
       <r>   35.7908    0.0000 </r>
       <r>   35.8713    0.0000 </r>
       <r>   35.8713    0.0000 </r>
       <r>   36.1937    0.0000 </r>
       <r>   36.3789    0.0000 </r>
       <r>   36.3789    0.0000 </r>
       <r>   37.0640    0.0000 </r>
       <r>   37.3605    0.0000 </r>
       <r>   37.3605    0.0000 </r>
       <r>   37.8460    0.0000 </r>
       <r>   37.8460    0.0000 </r>
       <r>   38.8741    0.0000 </r>
       <r>   39.1951    0.0000 </r>
       <r>   39.1951    0.0000 </r>
       <r>   39.2800    0.0000 </r>
       <r>   39.9053    0.0000 </r>
       <r>   39.9053    0.0000 </r>
       <r>   40.5702    0.0000 </r>
       <r>   40.5702    0.0000 </r>
       <r>   41.1023    0.0000 </r>
       <r>   41.1753    0.0000 </r>
       <r>   41.1753    0.0000 </r>
       <r>   41.6324    0.0000 </r>
       <r>   41.8504    0.0000 </r>
       <r>   41.8504    0.0000 </r>
       <r>   41.9248    0.0000 </r>
       <r>   42.8269    0.0000 </r>
       <r>   42.8269    0.0000 </r>
       <r>   42.9318    0.0000 </r>
       <r>   43.2903    0.0000 </r>
       <r>   43.3638    0.0000 </r>
       <r>   43.3638    0.0000 </r>
       <r>   43.8004    0.0000 </r>
       <r>   44.7148    0.0000 </r>
       <r>   44.7401    0.0000 </r>
       <r>   44.7401    0.0000 </r>
       <r>   45.2457    0.0000 </r>
       <r>   45.6479    0.0000 </r>
       <r>   45.6479    0.0000 </r>
       <r>   46.7232    0.0000 </r>
       <r>   46.7238    0.0000 </r>
       <r>   46.8493    0.0000 </r>
      </set>
      <set comment="kpoint 8">
       <r>   -5.7713    1.0000 </r>
       <r>   -5.2921    1.0000 </r>
       <r>   -4.4722    1.0000 </r>
       <r>   -3.2505    1.0000 </r>
       <r>   -1.8265    1.0000 </r>
       <r>   -1.2038    1.0000 </r>
       <r>   -0.4556    1.0000 </r>
       <r>    1.1606    1.0000 </r>
       <r>    1.8247    1.0000 </r>
       <r>    2.1281    1.0000 </r>
       <r>    2.5039    1.0000 </r>
       <r>    2.5586    1.0000 </r>
       <r>    2.9910    1.0000 </r>
       <r>    4.4252    1.0000 </r>
       <r>    4.9431    0.0000 </r>
       <r>    5.3433    0.0000 </r>
       <r>    6.9508    0.0000 </r>
       <r>    7.5968    0.0000 </r>
       <r>    7.8948    0.0000 </r>
       <r>    7.9056    0.0000 </r>
       <r>    7.9482    0.0000 </r>
       <r>    8.5321    0.0000 </r>
       <r>    9.5825    0.0000 </r>
       <r>    9.6461    0.0000 </r>
       <r>   10.0031    0.0000 </r>
       <r>   10.1827    0.0000 </r>
       <r>   10.2641    0.0000 </r>
       <r>   10.7748    0.0000 </r>
       <r>   11.7592    0.0000 </r>
       <r>   11.9035    0.0000 </r>
       <r>   12.4016    0.0000 </r>
       <r>   12.7205    0.0000 </r>
       <r>   12.7787    0.0000 </r>
       <r>   13.2233    0.0000 </r>
       <r>   14.2206    0.0000 </r>
       <r>   14.6562    0.0000 </r>
       <r>   14.9126    0.0000 </r>
       <r>   15.0779    0.0000 </r>
       <r>   15.4258    0.0000 </r>
       <r>   15.5681    0.0000 </r>
       <r>   15.9912    0.0000 </r>
       <r>   16.5701    0.0000 </r>
       <r>   16.8440    0.0000 </r>
       <r>   16.9281    0.0000 </r>
       <r>   18.1401    0.0000 </r>
       <r>   18.6328    0.0000 </r>
       <r>   18.6916    0.0000 </r>
       <r>   18.8284    0.0000 </r>
       <r>   18.8827    0.0000 </r>
       <r>   19.0357    0.0000 </r>
       <r>   20.2335    0.0000 </r>
       <r>   20.5507    0.0000 </r>
       <r>   20.6935    0.0000 </r>
       <r>   20.9841    0.0000 </r>
       <r>   21.2692    0.0000 </r>
       <r>   21.9996    0.0000 </r>
       <r>   22.2160    0.0000 </r>
       <r>   22.4622    0.0000 </r>
       <r>   22.9898    0.0000 </r>
       <r>   23.0985    0.0000 </r>
       <r>   23.2860    0.0000 </r>
       <r>   23.5786    0.0000 </r>
       <r>   23.9539    0.0000 </r>
       <r>   24.1320    0.0000 </r>
       <r>   24.1364    0.0000 </r>
       <r>   24.7240    0.0000 </r>
       <r>   24.9394    0.0000 </r>
       <r>   25.7068    0.0000 </r>
       <r>   25.8100    0.0000 </r>
       <r>   26.2862    0.0000 </r>
       <r>   26.4974    0.0000 </r>
       <r>   26.6231    0.0000 </r>
       <r>   27.0023    0.0000 </r>
       <r>   27.4872    0.0000 </r>
       <r>   27.9957    0.0000 </r>
       <r>   28.0790    0.0000 </r>
       <r>   28.2652    0.0000 </r>
       <r>   28.7688    0.0000 </r>
       <r>   29.3530    0.0000 </r>
       <r>   29.3695    0.0000 </r>
       <r>   29.5358    0.0000 </r>
       <r>   29.9794    0.0000 </r>
       <r>   30.1233    0.0000 </r>
       <r>   30.2411    0.0000 </r>
       <r>   30.4685    0.0000 </r>
       <r>   30.9277    0.0000 </r>
       <r>   30.9659    0.0000 </r>
       <r>   31.1799    0.0000 </r>
       <r>   31.7878    0.0000 </r>
       <r>   31.9161    0.0000 </r>
       <r>   32.1742    0.0000 </r>
       <r>   32.2646    0.0000 </r>
       <r>   32.7390    0.0000 </r>
       <r>   33.3859    0.0000 </r>
       <r>   33.9730    0.0000 </r>
       <r>   34.2024    0.0000 </r>
       <r>   34.4139    0.0000 </r>
       <r>   34.4929    0.0000 </r>
       <r>   34.7755    0.0000 </r>
       <r>   34.8695    0.0000 </r>
       <r>   35.0784    0.0000 </r>
       <r>   35.2605    0.0000 </r>
       <r>   35.6176    0.0000 </r>
       <r>   35.7325    0.0000 </r>
       <r>   35.8450    0.0000 </r>
       <r>   36.1264    0.0000 </r>
       <r>   36.2428    0.0000 </r>
       <r>   36.6665    0.0000 </r>
       <r>   36.7326    0.0000 </r>
       <r>   36.9733    0.0000 </r>
       <r>   37.1628    0.0000 </r>
       <r>   37.2043    0.0000 </r>
       <r>   37.3873    0.0000 </r>
       <r>   37.5824    0.0000 </r>
       <r>   37.9083    0.0000 </r>
       <r>   38.2663    0.0000 </r>
       <r>   38.8483    0.0000 </r>
       <r>   39.4224    0.0000 </r>
       <r>   39.7385    0.0000 </r>
       <r>   39.7397    0.0000 </r>
       <r>   39.8519    0.0000 </r>
       <r>   40.4770    0.0000 </r>
       <r>   40.9408    0.0000 </r>
       <r>   41.1934    0.0000 </r>
       <r>   41.2603    0.0000 </r>
       <r>   41.6042    0.0000 </r>
       <r>   41.6627    0.0000 </r>
       <r>   42.2276    0.0000 </r>
       <r>   42.4622    0.0000 </r>
       <r>   42.6118    0.0000 </r>
       <r>   43.1966    0.0000 </r>
       <r>   43.2638    0.0000 </r>
       <r>   43.5292    0.0000 </r>
       <r>   43.5802    0.0000 </r>
       <r>   44.1207    0.0000 </r>
       <r>   44.1619    0.0000 </r>
       <r>   44.8037    0.0000 </r>
       <r>   45.0420    0.0000 </r>
       <r>   45.2607    0.0000 </r>
       <r>   45.4160    0.0000 </r>
       <r>   45.8570    0.0000 </r>
       <r>   46.2645    0.0000 </r>
       <r>   47.0574    0.0000 </r>
       <r>   47.0709    0.0000 </r>
      </set>
      <set comment="kpoint 9">
       <r>   -5.1944    1.0000 </r>
       <r>   -5.1365    1.0000 </r>
       <r>   -5.1365    1.0000 </r>
       <r>   -3.4263    1.0000 </r>
       <r>   -1.5030    1.0000 </r>
       <r>   -1.4202    1.0000 </r>
       <r>   -1.4202    1.0000 </r>
       <r>    1.2904    1.0000 </r>
       <r>    2.1137    1.0000 </r>
       <r>    2.3199    1.0000 </r>
       <r>    2.3199    1.0000 </r>
       <r>    3.2569    1.0000 </r>
       <r>    3.3208    1.0000 </r>
       <r>    4.7574    0.8578 </r>
       <r>    5.5671    0.0000 </r>
       <r>    5.5671    0.0000 </r>
       <r>    6.9214    0.0000 </r>
       <r>    6.9214    0.0000 </r>
       <r>    7.5860    0.0000 </r>
       <r>    8.2426    0.0000 </r>
       <r>    8.2426    0.0000 </r>
       <r>    8.3633    0.0000 </r>
       <r>    8.6112    0.0000 </r>
       <r>    9.1030    0.0000 </r>
       <r>    9.2532    0.0000 </r>
       <r>   10.3240    0.0000 </r>
       <r>   10.3240    0.0000 </r>
       <r>   10.8459    0.0000 </r>
       <r>   12.4787    0.0000 </r>
       <r>   12.6123    0.0000 </r>
       <r>   12.6289    0.0000 </r>
       <r>   12.6289    0.0000 </r>
       <r>   13.8432    0.0000 </r>
       <r>   13.8432    0.0000 </r>
       <r>   13.8442    0.0000 </r>
       <r>   14.0045    0.0000 </r>
       <r>   14.2893    0.0000 </r>
       <r>   14.9259    0.0000 </r>
       <r>   14.9259    0.0000 </r>
       <r>   15.3047    0.0000 </r>
       <r>   16.1555    0.0000 </r>
       <r>   16.1882    0.0000 </r>
       <r>   16.1882    0.0000 </r>
       <r>   16.9121    0.0000 </r>
       <r>   18.1479    0.0000 </r>
       <r>   18.1479    0.0000 </r>
       <r>   18.3261    0.0000 </r>
       <r>   18.7888    0.0000 </r>
       <r>   18.9987    0.0000 </r>
       <r>   19.2198    0.0000 </r>
       <r>   19.2198    0.0000 </r>
       <r>   19.4766    0.0000 </r>
       <r>   20.1395    0.0000 </r>
       <r>   21.5690    0.0000 </r>
       <r>   21.5690    0.0000 </r>
       <r>   22.0950    0.0000 </r>
       <r>   22.3087    0.0000 </r>
       <r>   22.4874    0.0000 </r>
       <r>   22.6392    0.0000 </r>
       <r>   22.6392    0.0000 </r>
       <r>   23.7315    0.0000 </r>
       <r>   23.7315    0.0000 </r>
       <r>   23.7722    0.0000 </r>
       <r>   25.0771    0.0000 </r>
       <r>   25.3409    0.0000 </r>
       <r>   25.9119    0.0000 </r>
       <r>   25.9119    0.0000 </r>
       <r>   26.0047    0.0000 </r>
       <r>   26.9602    0.0000 </r>
       <r>   26.9602    0.0000 </r>
       <r>   27.1669    0.0000 </r>
       <r>   27.1806    0.0000 </r>
       <r>   27.3596    0.0000 </r>
       <r>   27.5164    0.0000 </r>
       <r>   27.5164    0.0000 </r>
       <r>   28.5270    0.0000 </r>
       <r>   28.7847    0.0000 </r>
       <r>   28.7847    0.0000 </r>
       <r>   29.2056    0.0000 </r>
       <r>   29.2235    0.0000 </r>
       <r>   29.5254    0.0000 </r>
       <r>   30.3444    0.0000 </r>
       <r>   30.3444    0.0000 </r>
       <r>   30.4040    0.0000 </r>
       <r>   30.5604    0.0000 </r>
       <r>   30.6899    0.0000 </r>
       <r>   30.6899    0.0000 </r>
       <r>   31.4406    0.0000 </r>
       <r>   32.0473    0.0000 </r>
       <r>   32.0473    0.0000 </r>
       <r>   32.1433    0.0000 </r>
       <r>   32.3326    0.0000 </r>
       <r>   32.7782    0.0000 </r>
       <r>   33.0705    0.0000 </r>
       <r>   33.0705    0.0000 </r>
       <r>   33.6407    0.0000 </r>
       <r>   33.6407    0.0000 </r>
       <r>   33.6607    0.0000 </r>
       <r>   33.7359    0.0000 </r>
       <r>   34.1678    0.0000 </r>
       <r>   34.9217    0.0000 </r>
       <r>   35.2387    0.0000 </r>
       <r>   35.2387    0.0000 </r>
       <r>   35.3180    0.0000 </r>
       <r>   35.7516    0.0000 </r>
       <r>   36.1946    0.0000 </r>
       <r>   36.2179    0.0000 </r>
       <r>   36.2179    0.0000 </r>
       <r>   36.8986    0.0000 </r>
       <r>   37.5030    0.0000 </r>
       <r>   37.5030    0.0000 </r>
       <r>   37.5297    0.0000 </r>
       <r>   37.8013    0.0000 </r>
       <r>   38.2216    0.0000 </r>
       <r>   38.2216    0.0000 </r>
       <r>   38.3385    0.0000 </r>
       <r>   39.0830    0.0000 </r>
       <r>   39.2522    0.0000 </r>
       <r>   39.2590    0.0000 </r>
       <r>   39.2590    0.0000 </r>
       <r>   39.7366    0.0000 </r>
       <r>   39.7640    0.0000 </r>
       <r>   39.7640    0.0000 </r>
       <r>   40.7965    0.0000 </r>
       <r>   41.0260    0.0000 </r>
       <r>   41.6965    0.0000 </r>
       <r>   41.6965    0.0000 </r>
       <r>   41.8728    0.0000 </r>
       <r>   42.0345    0.0000 </r>
       <r>   42.8634    0.0000 </r>
       <r>   42.9131    0.0000 </r>
       <r>   43.0581    0.0000 </r>
       <r>   43.0581    0.0000 </r>
       <r>   43.4975    0.0000 </r>
       <r>   44.1649    0.0000 </r>
       <r>   44.1649    0.0000 </r>
       <r>   44.3501    0.0000 </r>
       <r>   45.0832    0.0000 </r>
       <r>   45.0832    0.0000 </r>
       <r>   45.5332    0.0000 </r>
       <r>   45.5916    0.0000 </r>
       <r>   45.6908    0.0000 </r>
       <r>   45.6910    0.0000 </r>
       <r>   46.2077    0.0000 </r>
      </set>
      <set comment="kpoint 10">
       <r>   -5.0153    1.0000 </r>
       <r>   -5.0153    1.0000 </r>
       <r>   -5.0153    1.0000 </r>
       <r>   -3.5061    1.0000 </r>
       <r>   -1.9438    1.0000 </r>
       <r>   -1.9438    1.0000 </r>
       <r>   -1.9438    1.0000 </r>
       <r>    0.7369    1.0000 </r>
       <r>    3.3119    1.0000 </r>
       <r>    3.3119    1.0000 </r>
       <r>    3.3119    1.0000 </r>
       <r>    3.3717    1.0000 </r>
       <r>    3.3717    1.0000 </r>
       <r>    5.9304    0.0000 </r>
       <r>    5.9304    0.0000 </r>
       <r>    5.9304    0.0000 </r>
       <r>    6.2520    0.0000 </r>
       <r>    6.2520    0.0000 </r>
       <r>    6.2520    0.0000 </r>
       <r>    7.8349    0.0000 </r>
       <r>    7.8349    0.0000 </r>
       <r>    7.8349    0.0000 </r>
       <r>    8.7368    0.0000 </r>
       <r>    8.7368    0.0000 </r>
       <r>    9.7527    0.0000 </r>
       <r>    9.7527    0.0000 </r>
       <r>    9.7527    0.0000 </r>
       <r>    9.8066    0.0000 </r>
       <r>   12.4772    0.0000 </r>
       <r>   12.8569    0.0000 </r>
       <r>   12.8569    0.0000 </r>
       <r>   12.8569    0.0000 </r>
       <r>   15.1670    0.0000 </r>
       <r>   15.1670    0.0000 </r>
       <r>   15.1670    0.0000 </r>
       <r>   15.3113    0.0000 </r>
       <r>   15.3113    0.0000 </r>
       <r>   15.6438    0.0000 </r>
       <r>   15.6438    0.0000 </r>
       <r>   15.6438    0.0000 </r>
       <r>   16.2544    0.0000 </r>
       <r>   16.2544    0.0000 </r>
       <r>   16.2544    0.0000 </r>
       <r>   16.5974    0.0000 </r>
       <r>   16.7442    0.0000 </r>
       <r>   16.7442    0.0000 </r>
       <r>   16.7442    0.0000 </r>
       <r>   17.4954    0.0000 </r>
       <r>   17.4954    0.0000 </r>
       <r>   17.4954    0.0000 </r>
       <r>   17.8024    0.0000 </r>
       <r>   17.8024    0.0000 </r>
       <r>   19.0566    0.0000 </r>
       <r>   21.1626    0.0000 </r>
       <r>   21.1626    0.0000 </r>
       <r>   21.1626    0.0000 </r>
       <r>   24.5992    0.0000 </r>
       <r>   24.7229    0.0000 </r>
       <r>   24.7229    0.0000 </r>
       <r>   24.7229    0.0000 </r>
       <r>   25.1494    0.0000 </r>
       <r>   25.1494    0.0000 </r>
       <r>   25.1494    0.0000 </r>
       <r>   25.6856    0.0000 </r>
       <r>   26.2509    0.0000 </r>
       <r>   26.2509    0.0000 </r>
       <r>   26.2509    0.0000 </r>
       <r>   26.3600    0.0000 </r>
       <r>   26.3600    0.0000 </r>
       <r>   26.4550    0.0000 </r>
       <r>   26.4550    0.0000 </r>
       <r>   26.4550    0.0000 </r>
       <r>   26.6718    0.0000 </r>
       <r>   26.6718    0.0000 </r>
       <r>   26.6718    0.0000 </r>
       <r>   28.2997    0.0000 </r>
       <r>   28.2997    0.0000 </r>
       <r>   28.2997    0.0000 </r>
       <r>   29.6600    0.0000 </r>
       <r>   29.6600    0.0000 </r>
       <r>   30.2673    0.0000 </r>
       <r>   31.0076    0.0000 </r>
       <r>   31.0076    0.0000 </r>
       <r>   31.0076    0.0000 </r>
       <r>   31.3682    0.0000 </r>
       <r>   31.3682    0.0000 </r>
       <r>   31.3682    0.0000 </r>
       <r>   31.8005    0.0000 </r>
       <r>   31.8005    0.0000 </r>
       <r>   32.0535    0.0000 </r>
       <r>   32.0535    0.0000 </r>
       <r>   32.0535    0.0000 </r>
       <r>   32.4673    0.0000 </r>
       <r>   32.4673    0.0000 </r>
       <r>   32.4673    0.0000 </r>
       <r>   32.9295    0.0000 </r>
       <r>   32.9295    0.0000 </r>
       <r>   32.9295    0.0000 </r>
       <r>   33.8631    0.0000 </r>
       <r>   33.8631    0.0000 </r>
       <r>   33.9054    0.0000 </r>
       <r>   35.4744    0.0000 </r>
       <r>   36.4631    0.0000 </r>
       <r>   36.4631    0.0000 </r>
       <r>   36.4631    0.0000 </r>
       <r>   36.5164    0.0000 </r>
       <r>   36.5164    0.0000 </r>
       <r>   36.5164    0.0000 </r>
       <r>   36.9465    0.0000 </r>
       <r>   36.9465    0.0000 </r>
       <r>   36.9465    0.0000 </r>
       <r>   37.4964    0.0000 </r>
       <r>   37.4964    0.0000 </r>
       <r>   37.9482    0.0000 </r>
       <r>   37.9482    0.0000 </r>
       <r>   37.9482    0.0000 </r>
       <r>   38.1928    0.0000 </r>
       <r>   38.1928    0.0000 </r>
       <r>   38.1928    0.0000 </r>
       <r>   38.3114    0.0000 </r>
       <r>   39.6936    0.0000 </r>
       <r>   39.6936    0.0000 </r>
       <r>   39.6936    0.0000 </r>
       <r>   40.8108    0.0000 </r>
       <r>   40.8108    0.0000 </r>
       <r>   40.9635    0.0000 </r>
       <r>   41.5592    0.0000 </r>
       <r>   41.7212    0.0000 </r>
       <r>   41.7212    0.0000 </r>
       <r>   41.7212    0.0000 </r>
       <r>   41.8456    0.0000 </r>
       <r>   41.8456    0.0000 </r>
       <r>   41.8456    0.0000 </r>
       <r>   42.4586    0.0000 </r>
       <r>   42.4586    0.0000 </r>
       <r>   42.4586    0.0000 </r>
       <r>   45.4248    0.0000 </r>
       <r>   45.4248    0.0000 </r>
       <r>   45.7338    0.0000 </r>
       <r>   45.7338    0.0000 </r>
       <r>   45.7338    0.0000 </r>
       <r>   47.2593    0.0000 </r>
       <r>   47.2598    0.0000 </r>
       <r>   47.2601    0.0000 </r>
      </set>
     </set>
     <set comment="spin 2">
      <set comment="kpoint 1">
       <r>   -6.9674    1.0000 </r>
       <r>   -3.2972    1.0000 </r>
       <r>   -3.2972    1.0000 </r>
       <r>   -2.9192    1.0000 </r>
       <r>   -2.9192    1.0000 </r>
       <r>   -2.9192    1.0000 </r>
       <r>    1.2842    1.0000 </r>
       <r>    1.6697    1.0000 </r>
       <r>    1.6697    1.0000 </r>
       <r>    1.6697    1.0000 </r>
       <r>    2.8788    1.0000 </r>
       <r>    2.8788    1.0000 </r>
       <r>    2.8788    1.0000 </r>
       <r>    5.5857    0.0000 </r>
       <r>    5.5857    0.0000 </r>
       <r>    5.5857    0.0000 </r>
       <r>    5.6171    0.0000 </r>
       <r>    5.6171    0.0000 </r>
       <r>    6.1390    0.0000 </r>
       <r>    6.1390    0.0000 </r>
       <r>    6.1390    0.0000 </r>
       <r>    6.2068    0.0000 </r>
       <r>    8.6078    0.0000 </r>
       <r>    8.6078    0.0000 </r>
       <r>    8.6078    0.0000 </r>
       <r>   10.2427    0.0000 </r>
       <r>   12.9253    0.0000 </r>
       <r>   12.9253    0.0000 </r>
       <r>   13.1709    0.0000 </r>
       <r>   14.6006    0.0000 </r>
       <r>   14.6006    0.0000 </r>
       <r>   14.6006    0.0000 </r>
       <r>   15.5499    0.0000 </r>
       <r>   15.5499    0.0000 </r>
       <r>   15.5499    0.0000 </r>
       <r>   15.6099    0.0000 </r>
       <r>   15.6099    0.0000 </r>
[...]
        <r>  0.0000  0.0072  0.0004  0.0042  0.0000  0.0000  0.0000  0.0000  0.0000 </r>
       </set>
       <set comment="band 117">
        <r>  0.0005  0.0001  0.0000  0.0000  0.0000  0.0000  0.0000  0.0000  0.0000 </r>
        <r>  0.0039  0.0002  0.0000  0.0009  0.0000  0.0000  0.0000  0.0000  0.0000 </r>
        <r>  0.0015  0.0002  0.0000  0.0001  0.0000  0.0000  0.0000  0.0000  0.0000 </r>
        <r>  0.0156  0.0000  0.0002  0.0002  0.0000  0.0000  0.0000  0.0000  0.0000 </r>
        <r>  0.0039  0.0002  0.0001  0.0001  0.0000  0.0000  0.0000  0.0000  0.0000 </r>
        <r>  0.0029  0.0002  0.0009  0.0000  0.0000  0.0000  0.0000  0.0000  0.0000 </r>
        <r>  0.0040  0.0002  0.0001  0.0001  0.0000  0.0000  0.0000  0.0000  0.0000 </r>
       </set>
       <set comment="band 118">
        <r>  0.0047  0.0001  0.0001  0.0003  0.0000  0.0000  0.0000  0.0000  0.0000 </r>
        <r>  0.0019  0.0011  0.0000  0.0001  0.0000  0.0000  0.0000  0.0000  0.0000 </r>
        <r>  0.0006  0.0000  0.0000  0.0002  0.0000  0.0000  0.0000  0.0000  0.0000 </r>
        <r>  0.0024  0.0000  0.0011  0.0001  0.0000  0.0000  0.0000  0.0000  0.0000 </r>
        <r>  0.0028  0.0000  0.0001  0.0002  0.0000  0.0000  0.0000  0.0000  0.0000 </r>
        <r>  0.0181  0.0001  0.0001  0.0000  0.0000  0.0000  0.0000  0.0000  0.0000 </r>
        <r>  0.0018  0.0001  0.0000  0.0002  0.0000  0.0000  0.0000  0.0000  0.0000 </r>
       </set>
       <set comment="band 119">
        <r>  0.0023  0.0001  0.0002  0.0000  0.0000  0.0000  0.0000  0.0000  0.0000 </r>
        <r>  0.0166  0.0001  0.0000  0.0003  0.0000  0.0000  0.0000  0.0000  0.0000 </r>
        <r>  0.0053  0.0001  0.0003  0.0001  0.0000  0.0000  0.0000  0.0000  0.0000 </r>
        <r>  0.0044  0.0000  0.0001  0.0010  0.0000  0.0000  0.0000  0.0000  0.0000 </r>
        <r>  0.0007  0.0000  0.0002  0.0000  0.0000  0.0000  0.0000  0.0000  0.0000 </r>
        <r>  0.0014  0.0010  0.0003  0.0000  0.0000  0.0000  0.0000  0.0000  0.0000 </r>
        <r>  0.0017  0.0000  0.0002  0.0000  0.0000  0.0000  0.0000  0.0000  0.0000 </r>
       </set>
       <set comment="band 120">
        <r>  0.0170  0.0001  0.0001  0.0001  0.0000  0.0000  0.0000  0.0000  0.0000 </r>
        <r>  0.0000  0.0000  0.0000  0.0000  0.0000  0.0000  0.0000  0.0000  0.0000 </r>
        <r>  0.0170  0.0001  0.0001  0.0001  0.0000  0.0000  0.0000  0.0000  0.0000 </r>
        <r>  0.0000  0.0000  0.0000  0.0000  0.0000  0.0000  0.0000  0.0000  0.0000 </r>
        <r>  0.0170  0.0001  0.0001  0.0001  0.0000  0.0000  0.0000  0.0000  0.0000 </r>
        <r>  0.0000  0.0000  0.0000  0.0000  0.0000  0.0000  0.0000  0.0000  0.0000 </r>
        <r>  0.0170  0.0001  0.0001  0.0001  0.0000  0.0000  0.0000  0.0000  0.0000 </r>
       </set>
       <set comment="band 121">
        <r>  0.0135  0.0023  0.0019  0.0030  0.0000  0.0000  0.0000  0.0000  0.0000 </r>
        <r>  0.0027  0.0008  0.0000  0.0038  0.0000  0.0000  0.0000  0.0000  0.0000 </r>
        <r>  0.0264  0.0048  0.0042  0.0051  0.0000  0.0000  0.0000  0.0000  0.0000 </r>
        <r>  0.0008  0.0000  0.0008  0.0126  0.0000  0.0000  0.0000  0.0000  0.0000 </r>
        <r>  0.0011  0.0003  0.0001  0.0003  0.0000  0.0000  0.0000  0.0000  0.0000 </r>
        <r>  0.0002  0.0126  0.0038  0.0000  0.0000  0.0000  0.0000  0.0000  0.0000 </r>
        <r>  0.0059  0.0015  0.0007  0.0011  0.0000  0.0000  0.0000  0.0000  0.0000 </r>
       </set>
       <set comment="band 122">
        <r>  0.0200  0.0039  0.0039  0.0030  0.0000  0.0000  0.0000  0.0000  0.0000 </r>
        <r>  0.0003  0.0151  0.0000  0.0010  0.0000  0.0000  0.0000  0.0000  0.0000 </r>
        <r>  0.0038  0.0009  0.0009  0.0003  0.0000  0.0000  0.0000  0.0000  0.0000 </r>
        <r>  0.0002  0.0000  0.0151  0.0012  0.0000  0.0000  0.0000  0.0000  0.0000 </r>
        <r>  0.0131  0.0028  0.0024  0.0018  0.0000  0.0000  0.0000  0.0000  0.0000 </r>
        <r>  0.0032  0.0012  0.0010  0.0000  0.0000  0.0000  0.0000  0.0000  0.0000 </r>
        <r>  0.0101  0.0019  0.0022  0.0013  0.0000  0.0000  0.0000  0.0000  0.0000 </r>
       </set>
       <set comment="band 123">
        <r>  0.0017  0.0001  0.0006  0.0004  0.0000  0.0000  0.0000  0.0000  0.0000 </r>
        <r>  0.0007  0.0013  0.0000  0.0125  0.0000  0.0000  0.0000  0.0000  0.0000 </r>
        <r>  0.0050  0.0007  0.0012  0.0009  0.0000  0.0000  0.0000  0.0000  0.0000 </r>
        <r>  0.0026  0.0000  0.0013  0.0034  0.0000  0.0000  0.0000  0.0000  0.0000 </r>
        <r>  0.0210  0.0032  0.0038  0.0042  0.0000  0.0000  0.0000  0.0000  0.0000 </r>
        <r>  0.0003  0.0034  0.0125  0.0000  0.0000  0.0000  0.0000  0.0000  0.0000 </r>
        <r>  0.0192  0.0030  0.0034  0.0040  0.0000  0.0000  0.0000  0.0000  0.0000 </r>
       </set>
       <set comment="band 124">
        <r>  0.0000  0.0038  0.0070  0.0017  0.0000  0.0000  0.0000  0.0000  0.0000 </r>
        <r>  0.0000  0.0000  0.0070  0.0000  0.0000  0.0000  0.0000  0.0000  0.0000 </r>
        <r>  0.0000  0.0038  0.0070  0.0017  0.0000  0.0000  0.0000  0.0000  0.0000 </r>
        <r>  0.0000  0.0038  0.0000  0.0000  0.0000  0.0000  0.0000  0.0000  0.0000 </r>
        <r>  0.0000  0.0038  0.0070  0.0017  0.0000  0.0000  0.0000  0.0000  0.0000 </r>
        <r>  0.0000  0.0000  0.0000  0.0017  0.0000  0.0000  0.0000  0.0000  0.0000 </r>
        <r>  0.0000  0.0038  0.0070  0.0017  0.0000  0.0000  0.0000  0.0000  0.0000 </r>
       </set>
       <set comment="band 125">
        <r>  0.0000  0.0045  0.0013  0.0066  0.0000  0.0000  0.0000  0.0000  0.0000 </r>
        <r>  0.0000  0.0000  0.0013  0.0000  0.0000  0.0000  0.0000  0.0000  0.0000 </r>
        <r>  0.0000  0.0045  0.0013  0.0066  0.0000  0.0000  0.0000  0.0000  0.0000 </r>
        <r>  0.0000  0.0045  0.0000  0.0000  0.0000  0.0000  0.0000  0.0000  0.0000 </r>
        <r>  0.0000  0.0045  0.0013  0.0066  0.0000  0.0000  0.0000  0.0000  0.0000 </r>
        <r>  0.0000  0.0000  0.0000  0.0067  0.0000  0.0000  0.0000  0.0000  0.0000 </r>
        <r>  0.0000  0.0045  0.0013  0.0066  0.0000  0.0000  0.0000  0.0000  0.0000 </r>
       </set>
       <set comment="band 126">
        <r>  0.0000  0.0000  0.0000  0.0000  0.0000  0.0000  0.0000  0.0000  0.0000 </r>
        <r>  0.0000  0.0000  0.0000  0.0000  0.0000  0.0000  0.0000  0.0000  0.0000 </r>
        <r>  0.0000  0.0000  0.0000  0.0000  0.0000  0.0000  0.0000  0.0000  0.0000 </r>
        <r>  0.0000  0.0000  0.0000  0.0000  0.0000  0.0000  0.0000  0.0000  0.0000 </r>
        <r>  0.0000  0.0000  0.0000  0.0000  0.0000  0.0000  0.0000  0.0000  0.0000 </r>
        <r>  0.0000  0.0000  0.0000  0.0000  0.0000  0.0000  0.0000  0.0000  0.0000 </r>
        <r>  0.0000  0.0000  0.0000  0.0000  0.0000  0.0000  0.0000  0.0000  0.0000 </r>
       </set>
       <set comment="band 127">
        <r>  0.0059  0.0024  0.0024  0.0024  0.0000  0.0000  0.0000  0.0000  0.0000 </r>
        <r>  0.0000  0.0000  0.0044  0.0000  0.0000  0.0000  0.0000  0.0000  0.0000 </r>
        <r>  0.0059  0.0024  0.0024  0.0024  0.0000  0.0000  0.0000  0.0000  0.0000 </r>
        <r>  0.0000  0.0044  0.0000  0.0000  0.0000  0.0000  0.0000  0.0000  0.0000 </r>
        <r>  0.0059  0.0024  0.0024  0.0024  0.0000  0.0000  0.0000  0.0000  0.0000 </r>
        <r>  0.0000  0.0000  0.0000  0.0044  0.0000  0.0000  0.0000  0.0000  0.0000 </r>
        <r>  0.0059  0.0024  0.0024  0.0024  0.0000  0.0000  0.0000  0.0000  0.0000 </r>
       </set>
       <set comment="band 128">
        <r>  0.0000  0.0044  0.0018  0.0005  0.0000  0.0000  0.0000  0.0000  0.0000 </r>
        <r>  0.0108  0.0001  0.0000  0.0015  0.0000  0.0000  0.0000  0.0000  0.0000 </r>
        <r>  0.0001  0.0042  0.0019  0.0003  0.0000  0.0000  0.0000  0.0000  0.0000 </r>
        <r>  0.0337  0.0000  0.0001  0.0005  0.0000  0.0000  0.0000  0.0000  0.0000 </r>
        <r>  0.0006  0.0030  0.0007  0.0004  0.0000  0.0000  0.0000  0.0000  0.0000 </r>
        <r>  0.0032  0.0005  0.0015  0.0000  0.0000  0.0000  0.0000  0.0000  0.0000 </r>
        <r>  0.0005  0.0032  0.0007  0.0007  0.0000  0.0000  0.0000  0.0000  0.0000 </r>
       </set>
       <set comment="band 129">
        <r>  0.0005  0.0002  0.0002  0.0042  0.0000  0.0000  0.0000  0.0000  0.0000 </r>
        <r>  0.0025  0.0019  0.0000  0.0001  0.0000  0.0000  0.0000  0.0000  0.0000 </r>
        <r>  0.0001  0.0006  0.0006  0.0051  0.0000  0.0000  0.0000  0.0000  0.0000 </r>
        <r>  0.0026  0.0000  0.0019  0.0001  0.0000  0.0000  0.0000  0.0000  0.0000 </r>
        <r>  0.0003  0.0007  0.0001  0.0047  0.0000  0.0000  0.0000  0.0000  0.0000 </r>
        <r>  0.0427  0.0001  0.0001  0.0000  0.0000  0.0000  0.0000  0.0000  0.0000 </r>
        <r>  0.0003  0.0001  0.0006  0.0047  0.0000  0.0000  0.0000  0.0000  0.0000 </r>
       </set>
       <set comment="band 130">
        <r>  0.0004  0.0008  0.0034  0.0008  0.0000  0.0000  0.0000  0.0000  0.0000 </r>
        <r>  0.0344  0.0001  0.0000  0.0005  0.0000  0.0000  0.0000  0.0000  0.0000 </r>
        <r>  0.0007  0.0007  0.0030  0.0000  0.0000  0.0000  0.0000  0.0000  0.0000 </r>
        <r>  0.0115  0.0000  0.0001  0.0015  0.0000  0.0000  0.0000  0.0000  0.0000 </r>
        <r>  0.0000  0.0018  0.0046  0.0003  0.0000  0.0000  0.0000  0.0000  0.0000 </r>
        <r>  0.0018  0.0015  0.0005  0.0000  0.0000  0.0000  0.0000  0.0000  0.0000 </r>
        <r>  0.0001  0.0021  0.0041  0.0001  0.0000  0.0000  0.0000  0.0000  0.0000 </r>
       </set>
       <set comment="band 131">
        <r>  0.0000  0.0001  0.0007  0.0011  0.0000  0.0000  0.0000  0.0000  0.0000 </r>
        <r>  0.0000  0.0000  0.0000  0.0000  0.0000  0.0000  0.0000  0.0000  0.0000 </r>
        <r>  0.0000  0.0008  0.0001  0.0011  0.0000  0.0000  0.0000  0.0000  0.0000 </r>
        <r>  0.0000  0.0000  0.0000  0.0001  0.0000  0.0000  0.0000  0.0000  0.0000 </r>
        <r>  0.0000  0.0001  0.0001  0.0002  0.0000  0.0000  0.0000  0.0000  0.0000 </r>
        <r>  0.0000  0.0001  0.0000  0.0000  0.0000  0.0000  0.0000  0.0000  0.0000 </r>
        <r>  0.0000  0.0008  0.0007  0.0002  0.0000  0.0000  0.0000  0.0000  0.0000 </r>
       </set>
       <set comment="band 132">
        <r>  0.0000  0.0013  0.0007  0.0001  0.0000  0.0000  0.0000  0.0000  0.0000 </r>
        <r>  0.0000  0.0001  0.0000  0.0000  0.0000  0.0000  0.0000  0.0000  0.0000 </r>
        <r>  0.0000  0.0001  0.0003  0.0001  0.0000  0.0000  0.0000  0.0000  0.0000 </r>
        <r>  0.0000  0.0000  0.0001  0.0000  0.0000  0.0000  0.0000  0.0000  0.0000 </r>
        <r>  0.0000  0.0013  0.0003  0.0004  0.0000  0.0000  0.0000  0.0000  0.0000 </r>
        <r>  0.0000  0.0000  0.0000  0.0000  0.0000  0.0000  0.0000  0.0000  0.0000 </r>
        <r>  0.0000  0.0001  0.0007  0.0004  0.0000  0.0000  0.0000  0.0000  0.0000 </r>
       </set>
       <set comment="band 133">
        <r>  0.0000  0.0000  0.0001  0.0002  0.0000  0.0000  0.0000  0.0000  0.0000 </r>
        <r>  0.0000  0.0000  0.0000  0.0001  0.0000  0.0000  0.0000  0.0000  0.0000 </r>
        <r>  0.0000  0.0006  0.0011  0.0002  0.0000  0.0000  0.0000  0.0000  0.0000 </r>
        <r>  0.0000  0.0000  0.0000  0.0000  0.0000  0.0000  0.0000  0.0000  0.0000 </r>
        <r>  0.0000  0.0000  0.0011  0.0009  0.0000  0.0000  0.0000  0.0000  0.0000 </r>
        <r>  0.0000  0.0000  0.0001  0.0000  0.0000  0.0000  0.0000  0.0000  0.0000 </r>
        <r>  0.0000  0.0006  0.0001  0.0009  0.0000  0.0000  0.0000  0.0000  0.0000 </r>
       </set>
       <set comment="band 134">
        <r>  0.0216  0.0001  0.0001  0.0003  0.0000  0.0000  0.0000  0.0000  0.0000 </r>
        <r>  0.0048  0.0000  0.0000  0.0000  0.0000  0.0000  0.0000  0.0000  0.0000 </r>
        <r>  0.0353  0.0002  0.0001  0.0003  0.0000  0.0000  0.0000  0.0000  0.0000 </r>
        <r>  0.0015  0.0000  0.0000  0.0000  0.0000  0.0000  0.0000  0.0000  0.0000 </r>
        <r>  0.0017  0.0001  0.0000  0.0000  0.0000  0.0000  0.0000  0.0000  0.0000 </r>
        <r>  0.0002  0.0000  0.0000  0.0000  0.0000  0.0000  0.0000  0.0000  0.0000 </r>
        <r>  0.0051  0.0001  0.0000  0.0000  0.0000  0.0000  0.0000  0.0000  0.0000 </r>
       </set>
       <set comment="band 135">
        <r>  0.0249  0.0002  0.0002  0.0001  0.0000  0.0000  0.0000  0.0000  0.0000 </r>
        <r>  0.0001  0.0000  0.0000  0.0000  0.0000  0.0000  0.0000  0.0000  0.0000 </r>
        <r>  0.0074  0.0001  0.0001  0.0000  0.0000  0.0000  0.0000  0.0000  0.0000 </r>
        <r>  0.0004  0.0000  0.0000  0.0000  0.0000  0.0000  0.0000  0.0000  0.0000 </r>
        <r>  0.0146  0.0002  0.0001  0.0000  0.0000  0.0000  0.0000  0.0000  0.0000 </r>
        <r>  0.0060  0.0000  0.0000  0.0000  0.0000  0.0000  0.0000  0.0000  0.0000 </r>
        <r>  0.0168  0.0001  0.0002  0.0000  0.0000  0.0000  0.0000  0.0000  0.0000 </r>
       </set>
       <set comment="band 136">
        <r>  0.0013  0.0000  0.0001  0.0000  0.0000  0.0000  0.0000  0.0000  0.0000 </r>
        <r>  0.0016  0.0000  0.0000  0.0000  0.0000  0.0000  0.0000  0.0000  0.0000 </r>
        <r>  0.0050  0.0000  0.0001  0.0000  0.0000  0.0000  0.0000  0.0000  0.0000 </r>
        <r>  0.0045  0.0000  0.0000  0.0000  0.0000  0.0000  0.0000  0.0000  0.0000 </r>
        <r>  0.0315  0.0001  0.0002  0.0003  0.0000  0.0000  0.0000  0.0000  0.0000 </r>
        <r>  0.0003  0.0000  0.0000  0.0000  0.0000  0.0000  0.0000  0.0000  0.0000 </r>
        <r>  0.0259  0.0001  0.0001  0.0003  0.0000  0.0000  0.0000  0.0000  0.0000 </r>
       </set>
       <set comment="band 137">
        <r>  0.0000  0.0004  0.0004  0.0003  0.0000  0.0000  0.0000  0.0000  0.0000 </r>
        <r>  0.0000  0.0000  0.0002  0.0000  0.0000  0.0000  0.0000  0.0000  0.0000 </r>
        <r>  0.0000  0.0004  0.0004  0.0003  0.0000  0.0000  0.0000  0.0000  0.0000 </r>
        <r>  0.0000  0.0003  0.0000  0.0000  0.0000  0.0000  0.0000  0.0000  0.0000 </r>
        <r>  0.0000  0.0004  0.0004  0.0003  0.0000  0.0000  0.0000  0.0000  0.0000 </r>
        <r>  0.0000  0.0000  0.0000  0.0002  0.0000  0.0000  0.0000  0.0000  0.0000 </r>
        <r>  0.0000  0.0004  0.0004  0.0003  0.0000  0.0000  0.0000  0.0000  0.0000 </r>
       </set>
       <set comment="band 138">
        <r>  0.0000  0.0003  0.0004  0.0004  0.0000  0.0000  0.0000  0.0000  0.0000 </r>
        <r>  0.0000  0.0000  0.0002  0.0000  0.0000  0.0000  0.0000  0.0000  0.0000 </r>
        <r>  0.0000  0.0003  0.0004  0.0004  0.0000  0.0000  0.0000  0.0000  0.0000 </r>
        <r>  0.0000  0.0002  0.0000  0.0000  0.0000  0.0000  0.0000  0.0000  0.0000 </r>
        <r>  0.0000  0.0003  0.0004  0.0004  0.0000  0.0000  0.0000  0.0000  0.0000 </r>
        <r>  0.0000  0.0000  0.0000  0.0003  0.0000  0.0000  0.0000  0.0000  0.0000 </r>
        <r>  0.0000  0.0003  0.0004  0.0004  0.0000  0.0000  0.0000  0.0000  0.0000 </r>
       </set>
       <set comment="band 139">
        <r>  0.0000  0.0001  0.0000  0.0000  0.0000  0.0000  0.0000  0.0000  0.0000 </r>
        <r>  0.0000  0.0001  0.0000  0.0001  0.0000  0.0000  0.0000  0.0000  0.0000 </r>
        <r>  0.0000  0.0000  0.0001  0.0000  0.0000  0.0000  0.0000  0.0000  0.0000 </r>
        <r>  0.0000  0.0000  0.0001  0.0000  0.0000  0.0000  0.0000  0.0000  0.0000 </r>
        <r>  0.0000  0.0001  0.0001  0.0001  0.0000  0.0000  0.0000  0.0000  0.0000 </r>
        <r>  0.0000  0.0000  0.0001  0.0000  0.0000  0.0000  0.0000  0.0000  0.0000 </r>
        <r>  0.0000  0.0000  0.0000  0.0001  0.0000  0.0000  0.0000  0.0000  0.0000 </r>
       </set>
       <set comment="band 140">
        <r>  0.0000  0.0001  0.0002  0.0001  0.0000  0.0000  0.0000  0.0000  0.0000 </r>
        <r>  0.0000  0.0001  0.0000  0.0001  0.0000  0.0000  0.0000  0.0000  0.0000 </r>
        <r>  0.0000  0.0000  0.0000  0.0001  0.0000  0.0000  0.0000  0.0000  0.0000 </r>
        <r>  0.0000  0.0000  0.0001  0.0000  0.0000  0.0000  0.0000  0.0000  0.0000 </r>
        <r>  0.0000  0.0001  0.0000  0.0001  0.0000  0.0000  0.0000  0.0000  0.0000 </r>
        <r>  0.0000  0.0000  0.0001  0.0000  0.0000  0.0000  0.0000  0.0000  0.0000 </r>
        <r>  0.0000  0.0000  0.0002  0.0001  0.0000  0.0000  0.0000  0.0000  0.0000 </r>
       </set>
       <set comment="band 141">
        <r>  0.0000  0.0001  0.0000  0.0001  0.0000  0.0000  0.0000  0.0000  0.0000 </r>
        <r>  0.0000  0.0000  0.0000  0.0000  0.0000  0.0000  0.0000  0.0000  0.0000 </r>
        <r>  0.0000  0.0001  0.0000  0.0001  0.0000  0.0000  0.0000  0.0000  0.0000 </r>
        <r>  0.0000  0.0000  0.0000  0.0001  0.0000  0.0000  0.0000  0.0000  0.0000 </r>
        <r>  0.0000  0.0001  0.0000  0.0001  0.0000  0.0000  0.0000  0.0000  0.0000 </r>
        <r>  0.0000  0.0001  0.0000  0.0000  0.0000  0.0000  0.0000  0.0000  0.0000 </r>
        <r>  0.0000  0.0001  0.0000  0.0001  0.0000  0.0000  0.0000  0.0000  0.0000 </r>
       </set>
       <set comment="band 142">
        <r>  0.0012  0.0004  0.0001  0.0001  0.0000  0.0000  0.0000  0.0000  0.0000 </r>
        <r>  0.0001  0.0000  0.0000  0.0002  0.0000  0.0000  0.0000  0.0000  0.0000 </r>
        <r>  0.0027  0.0004  0.0001  0.0001  0.0000  0.0000  0.0000  0.0000  0.0000 </r>
        <r>  0.0003  0.0000  0.0000  0.0001  0.0000  0.0000  0.0000  0.0000  0.0000 </r>
        <r>  0.0099  0.0003  0.0001  0.0001  0.0000  0.0000  0.0000  0.0000  0.0000 </r>
        <r>  0.0001  0.0000  0.0002  0.0000  0.0000  0.0000  0.0000  0.0000  0.0000 </r>
        <r>  0.0107  0.0003  0.0001  0.0001  0.0000  0.0000  0.0000  0.0000  0.0000 </r>
       </set>
       <set comment="band 143">
        <r>  0.0096  0.0000  0.0000  0.0004  0.0000  0.0000  0.0000  0.0000  0.0000 </r>
        <r>  0.0000  0.0003  0.0000  0.0000  0.0000  0.0000  0.0000  0.0000  0.0000 </r>
        <r>  0.0021  0.0000  0.0001  0.0005  0.0000  0.0000  0.0000  0.0000  0.0000 </r>
        <r>  0.0000  0.0000  0.0003  0.0000  0.0000  0.0000  0.0000  0.0000  0.0000 </r>
        <r>  0.0077  0.0000  0.0000  0.0004  0.0000  0.0000  0.0000  0.0000  0.0000 </r>
        <r>  0.0004  0.0000  0.0000  0.0000  0.0000  0.0000  0.0000  0.0000  0.0000 </r>
        <r>  0.0050  0.0000  0.0000  0.0004  0.0000  0.0000  0.0000  0.0000  0.0000 </r>
       </set>
       <set comment="band 144">
        <r>  0.0075  0.0001  0.0004  0.0000  0.0000  0.0000  0.0000  0.0000  0.0000 </r>
        <r>  0.0004  0.0000  0.0000  0.0001  0.0000  0.0000  0.0000  0.0000  0.0000 </r>
        <r>  0.0134  0.0001  0.0004  0.0000  0.0000  0.0000  0.0000  0.0000  0.0000 </r>
        <r>  0.0001  0.0000  0.0000  0.0003  0.0000  0.0000  0.0000  0.0000  0.0000 </r>
        <r>  0.0007  0.0001  0.0004  0.0000  0.0000  0.0000  0.0000  0.0000  0.0000 </r>
        <r>  0.0000  0.0002  0.0001  0.0000  0.0000  0.0000  0.0000  0.0000  0.0000 </r>
        <r>  0.0027  0.0001  0.0004  0.0000  0.0000  0.0000  0.0000  0.0000  0.0000 </r>
       </set>
      </set>
     </set>
    </set>
   </array>
  </projected>
 </calculation>
 <structure name="finalpos" >
  <crystal>
   <varray name="basis" >
    <v>       5.43784835       0.00000000       0.00000000 </v>
    <v>       0.00000000       5.43784835       0.00000000 </v>
    <v>       0.00000000       0.00000000       5.43784835 </v>
   </varray>
   <i name="volume">    160.79823434 </i>
   <varray name="rec_basis" >
    <v>       0.18389626       0.00000000       0.00000000 </v>
    <v>       0.00000000       0.18389626       0.00000000 </v>
    <v>       0.00000000       0.00000000       0.18389626 </v>
   </varray>
  </crystal>
  <varray name="positions" >
   <v>       0.25227698       0.74772302       0.25227698 </v>
   <v>       0.00000000       0.00000000       0.50000000 </v>
   <v>       0.25227698       0.25227698       0.74772302 </v>
   <v>       0.00000000       0.50000000       0.00000000 </v>
   <v>       0.74772302       0.74772302       0.74772302 </v>
   <v>       0.50000000       0.00000000       0.00000000 </v>
   <v>       0.74772302       0.25227698       0.25227698 </v>
  </varray>
 </structure>
</modeling>
