Generated by pymatgen.io.lammps.data.LammpsData

2  atoms

1  atom types

0.000000 3.866975  xlo xhi
0.000000 3.348898  ylo yhi
0.000000 3.157372  zlo zhi
1.933487 1.933487 1.116299  xy xz yz

Masses

1  28.0855

Atoms

1  1 1.933487 1.116299 0.789343
2  1 0.000000 0.000000 0.000000

