Generated by pymatgen.io.lammps.data.LammpsData

2  atoms

1  atom types

0.000000 3.938483  xlo xhi
0.000000 3.410826  ylo yhi
0.000000 3.215758  zlo zhi
1.969241 1.969241 1.136942  xy xz yz

Masses

1  28.0855

Atoms

1  1 1.917960 1.097020 0.768410
2  1 3.918251 4.525765 3.192902

