Al    ONCVPSP-3.2.3.1  r_core=   1.40948   1.60710   1.81071
13.0000     11.0000      170504    zatom,zion,pspd
8      11   2     4   600     0    pspcod,pspxc,lmax,lloc,mmax,r2well
5.99000000  0.00000000  0.00000000    rchrg fchrg qchrg
2     2     2     0     0    nproj
1     1           extension_switch
0                         1.9407131555675D+00 -8.8659856759390D-01
1  0.0000000000000D+00 -2.6236091077436D-10  3.4139596705174D-10
2  1.0000000000000D-02  1.1562830357853D-01  2.9275252616089D-02
3  2.0000000000000D-02  2.3070774116225D-01  5.8615427998699D-02
4  3.0000000000000D-02  3.4469228051993D-01  8.8084587790732D-02
5  4.0000000000000D-02  4.5704154218501D-01  1.1774507978905D-01
6  5.0000000000000D-02  5.6722358899732D-01  1.4765670193670D-01
7  6.0000000000000D-02  6.7471767162033D-01  1.7787589116842D-01
8  7.0000000000000D-02  7.7901691566548D-01  2.0845494498890D-01
9  8.0000000000000D-02  8.7963093631778D-01  2.3944128332136D-01
10  9.0000000000000D-02  9.7608836668404D-01  2.7087675774529D-01
11  1.0000000000000D-01  1.0679392864767D+00  3.0279701474895D-01
12  1.1000000000000D-01  1.1547575381025D+00  3.3523091906214D-01
13  1.2000000000000D-01  1.2361429177431D+00  3.6820004251333D-01
14  1.3000000000000D-01  1.3117232295976D+00  4.0171822317879D-01
15  1.4000000000000D-01  1.3811561920969D+00  4.3579119886922D-01
16  1.5000000000000D-01  1.4441311856047D+00  4.7041631823797D-01
17  1.6000000000000D-01  1.5003708318771D+00  5.0558233200405D-01
18  1.7000000000000D-01  1.5496323963731D+00  5.4126926597088D-01
19  1.8000000000000D-01  1.5917090053751D+00  5.7744837669767D-01
20  1.9000000000000D-01  1.6264306708038D+00  6.1408218985328D-01
21  2.0000000000000D-01  1.6536651165812D+00  6.5112462046211D-01
22  2.1000000000000D-01  1.6733184014124D+00  6.8852117344610D-01
23  2.2000000000000D-01  1.6853353339147D+00  7.2620922208638D-01
24  2.3000000000000D-01  1.6896996771169D+00  7.6411836127984D-01
25  2.4000000000000D-01  1.6864341404825D+00  8.0217083175873D-01
26  2.5000000000000D-01  1.6756001587651D+00  8.4028201078240D-01
27  2.6000000000000D-01  1.6572974581823D+00  8.7836096420670D-01
28  2.7000000000000D-01  1.6316634115943D+00  9.1631105429454D-01
29  2.8000000000000D-01  1.5988721855738D+00  9.5403059715553D-01
30  2.9000000000000D-01  1.5591336834680D+00  9.9141356329931D-01
31  3.0000000000000D-01  1.5126922897585D+00  1.0283503144581D+00
32  3.1000000000000D-01  1.4598254222200D+00  1.0647283695842D+00
33  3.2000000000000D-01  1.4008418995562D+00  1.1004331927558D+00
34  3.3000000000000D-01  1.3360801333435D+00  1.1353489956366D+00
35  3.4000000000000D-01  1.2659061542272D+00  1.1693595471219D+00
36  3.5000000000000D-01  1.1907114833918D+00  1.2023489828747D+00
37  3.6000000000000D-01  1.1109108613450D+00  1.2342026076028D+00
38  3.7000000000000D-01  1.0269398470238D+00  1.2648076831447D+00
39  3.8000000000000D-01  9.3925230112069D-01  1.2940541957260D+00
40  3.9000000000000D-01  8.4831776835459D-01  1.3218355961028D+00
41  4.0000000000000D-01  7.5461877414146D-01  1.3480495067218D+00
42  4.1000000000000D-01  6.5864805177106D-01  1.3725983905007D+00
43  4.2000000000000D-01  5.6090571674188D-01  1.3953901763439D+00
44  4.3000000000000D-01  4.6189640535233D-01  1.4163388370672D+00
45  4.4000000000000D-01  3.6212639498156D-01  1.4353649159915D+00
46  4.5000000000000D-01  2.6210072371379D-01  1.4523959990781D+00
47  4.6000000000000D-01  1.6232032706264D-01  1.4673671301049D+00
48  4.7000000000000D-01  6.3279209532519D-02  1.4802211670191D+00
49  4.8000000000000D-01 -3.4538331389749D-02  1.4909090782367D+00
50  4.9000000000000D-01 -1.3066041148811D-01  1.4993901782855D+00
51  5.0000000000000D-01 -2.2463017938471D-01  1.5056323028009D+00
52  5.1000000000000D-01 -3.1600833300873D-01  1.5096119234689D+00
53  5.2000000000000D-01 -4.0437551719476D-01  1.5113142040722D+00
54  5.3000000000000D-01 -4.8933458739654D-01  1.5107329993146D+00
55  5.4000000000000D-01 -5.7051272537550D-01  1.5078707985794D+00
56  5.5000000000000D-01 -6.4756339370402D-01  1.5027386172134D+00
57  5.6000000000000D-01 -7.2016811700437D-01  1.4953558383088D+00
58  5.7000000000000D-01 -7.8803807902107D-01  1.4857500082879D+00
59  5.8000000000000D-01 -8.5091552587987D-01  1.4739565898684D+00
60  5.9000000000000D-01 -9.0857496722291D-01  1.4600186762035D+00
61  6.0000000000000D-01 -9.6082416829845D-01  1.4439866701516D+00
62  6.1000000000000D-01 -1.0075049275359D+00  1.4259179327328D+00
63  6.2000000000000D-01 -1.0484936356110D+00  1.4058764048728D+00
64  6.3000000000000D-01 -1.0837016135213D+00  1.3839322065312D+00
65  6.4000000000000D-01 -1.1130752287067D+00  1.3601612172491D+00
66  6.5000000000000D-01 -1.1365957897621D+00  1.3346446420478D+00
67  6.6000000000000D-01 -1.1542792217944D+00  1.3074685664607D+00
68  6.7000000000000D-01 -1.1661755259379D+00  1.2787235042934D+00
69  6.8000000000000D-01 -1.1723680279613D+00  1.2485039414904D+00
70  6.9000000000000D-01 -1.1729724222705D+00  1.2169078792372D+00
71  7.0000000000000D-01 -1.1681356188951D+00  1.1840363791635D+00
72  7.1000000000000D-01 -1.1580344022564D+00  1.1499931132287D+00
73  7.2000000000000D-01 -1.1428739116253D+00  1.1148839205844D+00
74  7.3000000000000D-01 -1.1228859541843D+00  1.0788163734119D+00
75  7.4000000000000D-01 -1.0983271624979D+00  1.0418993534501D+00
76  7.5000000000000D-01 -1.0694770089581D+00  1.0042426406453D+00
77  7.6000000000000D-01 -1.0366356904122D+00  9.6595651509231D-01
78  7.7000000000000D-01 -1.0001218966741D+00  9.2715137319464D-01
79  7.8000000000000D-01 -9.6027047698337D-01  8.8793735874490D-01
80  7.9000000000000D-01 -9.1743001869482D-01  8.4842400943975D-01
81  8.0000000000000D-01 -8.7196035255279D-01  8.0871991917779D-01
82  8.1000000000000D-01 -8.2422999884367D-01  7.6893241636050D-01
83  8.2000000000000D-01 -7.7461356851235D-01  7.2916725832077D-01
84  8.3000000000000D-01 -7.2348913299213D-01  6.8952834194272D-01
85  8.4000000000000D-01 -6.7123557603033D-01  6.5011743051065D-01
86  8.5000000000000D-01 -6.1822994020548D-01  6.1103389683234D-01
87  8.6000000000000D-01 -5.6484478013323D-01  5.7237448272132D-01
88  8.7000000000000D-01 -5.1144553355786D-01  5.3423307499131D-01
89  8.8000000000000D-01 -4.5838792063603D-01  4.9670049821077D-01
90  8.9000000000000D-01 -4.0601538075143D-01  4.5986432458264D-01
91  9.0000000000000D-01 -3.5465655516593D-01  4.2380870144915D-01
92  9.1000000000000D-01 -3.0462282272937D-01  3.8861419707006D-01
93  9.2000000000000D-01 -2.5620589475047D-01  3.5435766547864D-01
94  9.3000000000000D-01 -2.0967547398928D-01  3.2111213137897D-01
95  9.4000000000000D-01 -1.6527698158328D-01  2.8894669620391D-01
96  9.5000000000000D-01 -1.2322935457931D-01  2.5792646660125D-01
97  9.6000000000000D-01 -8.3722915617220D-02  2.2811250674970D-01
98  9.7000000000000D-01 -4.6917315242998D-02  1.9956181602047D-01
99  9.8000000000000D-01 -1.2939541792633D-02  1.7232733512374D-01
100  9.9000000000000D-01  1.8117999197765D-02  1.4645798036502D-01
101  1.0000000000000D+00  4.6199156283100D-02  1.2199865128393D-01
102  1.0100000000000D+00  7.1286482600663D-02  9.8990547705686D-02
103  1.0200000000000D+00  9.3400492153387D-02  7.7470459267081D-02
104  1.0300000000000D+00  1.1259007627741D-01  5.7467268618872D-02
105  1.0400000000000D+00  1.2892207474083D-01  3.8998925537130D-02
106  1.0500000000000D+00  1.4247900212148D-01  2.2072547093242D-02
107  1.0600000000000D+00  1.5335828883561D-01  6.6851039077637D-03
108  1.0700000000000D+00  1.6167101538946D-01 -7.1760778433202D-03
109  1.0800000000000D+00  1.6754075241816D-01 -1.9532757003126D-02
110  1.0900000000000D+00  1.7110241327293D-01 -3.0415202509362D-02
111  1.1000000000000D+00  1.7250111234275D-01 -3.9861606040594D-02
112  1.1100000000000D+00  1.7189103974172D-01 -4.7917479833807D-02
113  1.1200000000000D+00  1.6943435540420D-01 -5.4635039970196D-02
114  1.1300000000000D+00  1.6530010240578D-01 -6.0072576311301D-02
115  1.1400000000000D+00  1.5966313686648D-01 -6.4293810925763D-02
116  1.1500000000000D+00  1.5270306662902D-01 -6.7367248026969D-02
117  1.1600000000000D+00  1.4460318718620D-01 -6.9365519183212D-02
118  1.1700000000000D+00  1.3554939825097D-01 -7.0364728517271D-02
119  1.1800000000000D+00  1.2572908059806D-01 -7.0443803307207D-02
120  1.1900000000000D+00  1.1532990644099D-01 -6.9683856376049D-02
121  1.2000000000000D+00  1.0453855402464D-01 -6.8167566910935D-02
122  1.2100000000000D+00  9.3539294569266D-02 -6.5978586656350D-02
123  1.2200000000000D+00  8.2512416570885D-02 -6.3200978624350D-02
124  1.2300000000000D+00  7.1632455253247D-02 -5.9918694661978D-02
125  1.2400000000000D+00  6.1066200540203D-02 -5.6215097149694D-02
126  1.2500000000000D+00  5.0970457617311D-02 -5.2172529655330D-02
127  1.2600000000000D+00  4.1489554248970D-02 -4.7871937876794D-02
128  1.2700000000000D+00  3.2752606835863D-02 -4.3392539731255D-02
129  1.2800000000000D+00  2.4870559398306D-02 -3.8811542646399D-02
130  1.2900000000000D+00  1.7933064307098D-02 -3.4203898430429D-02
131  1.3000000000000D+00  1.2005288171128D-02 -2.9642084884394D-02
132  1.3100000000000D+00  7.1247411730081D-03 -2.5195900486071D-02
133  1.3200000000000D+00  3.2983054607940D-03 -2.0932250250269D-02
134  1.3300000000000D+00  4.9961791428169D-04 -1.6914904217622D-02
135  1.3400000000000D+00 -1.3329784509090D-03 -1.3204202315109D-02
136  1.3500000000000D+00 -2.2977024122060D-03 -9.8566850058431D-03
137  1.3600000000000D+00 -2.5296458889134D-03 -6.9246491227025D-03
138  1.3700000000000D+00 -2.2017644967034D-03 -4.4571079557148D-03
139  1.3800000000000D+00 -1.5070523348545D-03 -2.4851442862298D-03
140  1.3900000000000D+00 -6.9689064427271D-04 -1.0607158938274D-03
141  1.4000000000000D+00 -5.0433179275729D-05 -2.4176900838065D-04
142  1.4100000000000D+00  2.3122299097919D-04  6.2246648586129D-05
143  1.4200000000000D+00  1.2271470513251D-04  5.3570920770713D-05
144  1.4300000000000D+00 -2.8217673482219D-05 -1.3908081869530D-05
145  1.4400000000000D+00 -1.9387629851819D-05 -9.9571042198322D-06
146  1.4500000000000D+00  7.2386086968506D-06  3.5455179603442D-06
147  1.4600000000000D+00  1.0197145029004D-06  5.1175301292828D-07
148  1.4700000000000D+00 -6.4068898036925D-07 -1.5784886839000D-07
149  1.4800000000000D+00  0.0000000000000D+00  0.0000000000000D+00
150  1.4900000000000D+00  0.0000000000000D+00  0.0000000000000D+00
151  1.5000000000000D+00  0.0000000000000D+00  0.0000000000000D+00
152  1.5100000000000D+00  0.0000000000000D+00  0.0000000000000D+00
153  1.5200000000000D+00  0.0000000000000D+00  0.0000000000000D+00
154  1.5300000000000D+00  0.0000000000000D+00  0.0000000000000D+00
155  1.5400000000000D+00  0.0000000000000D+00  0.0000000000000D+00
156  1.5500000000000D+00  0.0000000000000D+00  0.0000000000000D+00
157  1.5600000000000D+00  0.0000000000000D+00  0.0000000000000D+00
158  1.5700000000000D+00  0.0000000000000D+00  0.0000000000000D+00
159  1.5800000000000D+00  0.0000000000000D+00  0.0000000000000D+00
160  1.5900000000000D+00  0.0000000000000D+00  0.0000000000000D+00
161  1.6000000000000D+00  0.0000000000000D+00  0.0000000000000D+00
162  1.6100000000000D+00  0.0000000000000D+00  0.0000000000000D+00
163  1.6200000000000D+00  0.0000000000000D+00  0.0000000000000D+00
164  1.6300000000000D+00  0.0000000000000D+00  0.0000000000000D+00
165  1.6400000000000D+00  0.0000000000000D+00  0.0000000000000D+00
166  1.6500000000000D+00  0.0000000000000D+00  0.0000000000000D+00
167  1.6600000000000D+00  0.0000000000000D+00  0.0000000000000D+00
168  1.6700000000000D+00  0.0000000000000D+00  0.0000000000000D+00
169  1.6800000000000D+00  0.0000000000000D+00  0.0000000000000D+00
170  1.6900000000000D+00  0.0000000000000D+00  0.0000000000000D+00
171  1.7000000000000D+00  0.0000000000000D+00  0.0000000000000D+00
172  1.7100000000000D+00  0.0000000000000D+00  0.0000000000000D+00
173  1.7200000000000D+00  0.0000000000000D+00  0.0000000000000D+00
174  1.7300000000000D+00  0.0000000000000D+00  0.0000000000000D+00
175  1.7400000000000D+00  0.0000000000000D+00  0.0000000000000D+00
176  1.7500000000000D+00  0.0000000000000D+00  0.0000000000000D+00
177  1.7600000000000D+00  0.0000000000000D+00  0.0000000000000D+00
178  1.7700000000000D+00  0.0000000000000D+00  0.0000000000000D+00
179  1.7800000000000D+00  0.0000000000000D+00  0.0000000000000D+00
180  1.7900000000000D+00  0.0000000000000D+00  0.0000000000000D+00
181  1.8000000000000D+00  0.0000000000000D+00  0.0000000000000D+00
182  1.8100000000000D+00  0.0000000000000D+00  0.0000000000000D+00
183  1.8200000000000D+00  0.0000000000000D+00  0.0000000000000D+00
184  1.8300000000000D+00  0.0000000000000D+00  0.0000000000000D+00
185  1.8400000000000D+00  0.0000000000000D+00  0.0000000000000D+00
186  1.8500000000000D+00  0.0000000000000D+00  0.0000000000000D+00
187  1.8600000000000D+00  0.0000000000000D+00  0.0000000000000D+00
188  1.8700000000000D+00  0.0000000000000D+00  0.0000000000000D+00
189  1.8800000000000D+00  0.0000000000000D+00  0.0000000000000D+00
190  1.8900000000000D+00  0.0000000000000D+00  0.0000000000000D+00
191  1.9000000000000D+00  0.0000000000000D+00  0.0000000000000D+00
192  1.9100000000000D+00  0.0000000000000D+00  0.0000000000000D+00
193  1.9200000000000D+00  0.0000000000000D+00  0.0000000000000D+00
194  1.9300000000000D+00  0.0000000000000D+00  0.0000000000000D+00
195  1.9400000000000D+00  0.0000000000000D+00  0.0000000000000D+00
196  1.9500000000000D+00  0.0000000000000D+00  0.0000000000000D+00
197  1.9600000000000D+00  0.0000000000000D+00  0.0000000000000D+00
198  1.9700000000000D+00  0.0000000000000D+00  0.0000000000000D+00
199  1.9800000000000D+00  0.0000000000000D+00  0.0000000000000D+00
200  1.9900000000000D+00  0.0000000000000D+00  0.0000000000000D+00
201  2.0000000000000D+00  0.0000000000000D+00  0.0000000000000D+00
202  2.0100000000000D+00  0.0000000000000D+00  0.0000000000000D+00
203  2.0200000000000D+00  0.0000000000000D+00  0.0000000000000D+00
204  2.0300000000000D+00  0.0000000000000D+00  0.0000000000000D+00
205  2.0400000000000D+00  0.0000000000000D+00  0.0000000000000D+00
206  2.0500000000000D+00  0.0000000000000D+00  0.0000000000000D+00
207  2.0600000000000D+00  0.0000000000000D+00  0.0000000000000D+00
208  2.0700000000000D+00  0.0000000000000D+00  0.0000000000000D+00
209  2.0800000000000D+00  0.0000000000000D+00  0.0000000000000D+00
210  2.0900000000000D+00  0.0000000000000D+00  0.0000000000000D+00
211  2.1000000000000D+00  0.0000000000000D+00  0.0000000000000D+00
212  2.1100000000000D+00  0.0000000000000D+00  0.0000000000000D+00
213  2.1200000000000D+00  0.0000000000000D+00  0.0000000000000D+00
214  2.1300000000000D+00  0.0000000000000D+00  0.0000000000000D+00
215  2.1400000000000D+00  0.0000000000000D+00  0.0000000000000D+00
216  2.1500000000000D+00  0.0000000000000D+00  0.0000000000000D+00
217  2.1600000000000D+00  0.0000000000000D+00  0.0000000000000D+00
218  2.1700000000000D+00  0.0000000000000D+00  0.0000000000000D+00
219  2.1800000000000D+00  0.0000000000000D+00  0.0000000000000D+00
220  2.1900000000000D+00  0.0000000000000D+00  0.0000000000000D+00
221  2.2000000000000D+00  0.0000000000000D+00  0.0000000000000D+00
222  2.2100000000000D+00  0.0000000000000D+00  0.0000000000000D+00
223  2.2200000000000D+00  0.0000000000000D+00  0.0000000000000D+00
224  2.2300000000000D+00  0.0000000000000D+00  0.0000000000000D+00
225  2.2400000000000D+00  0.0000000000000D+00  0.0000000000000D+00
226  2.2500000000000D+00  0.0000000000000D+00  0.0000000000000D+00
227  2.2600000000000D+00  0.0000000000000D+00  0.0000000000000D+00
228  2.2700000000000D+00  0.0000000000000D+00  0.0000000000000D+00
229  2.2800000000000D+00  0.0000000000000D+00  0.0000000000000D+00
230  2.2900000000000D+00  0.0000000000000D+00  0.0000000000000D+00
231  2.3000000000000D+00  0.0000000000000D+00  0.0000000000000D+00
232  2.3100000000000D+00  0.0000000000000D+00  0.0000000000000D+00
233  2.3200000000000D+00  0.0000000000000D+00  0.0000000000000D+00
234  2.3300000000000D+00  0.0000000000000D+00  0.0000000000000D+00
235  2.3400000000000D+00  0.0000000000000D+00  0.0000000000000D+00
236  2.3500000000000D+00  0.0000000000000D+00  0.0000000000000D+00
237  2.3600000000000D+00  0.0000000000000D+00  0.0000000000000D+00
238  2.3700000000000D+00  0.0000000000000D+00  0.0000000000000D+00
239  2.3800000000000D+00  0.0000000000000D+00  0.0000000000000D+00
240  2.3900000000000D+00  0.0000000000000D+00  0.0000000000000D+00
241  2.4000000000000D+00  0.0000000000000D+00  0.0000000000000D+00
242  2.4100000000000D+00  0.0000000000000D+00  0.0000000000000D+00
243  2.4200000000000D+00  0.0000000000000D+00  0.0000000000000D+00
244  2.4300000000000D+00  0.0000000000000D+00  0.0000000000000D+00
245  2.4400000000000D+00  0.0000000000000D+00  0.0000000000000D+00
246  2.4500000000000D+00  0.0000000000000D+00  0.0000000000000D+00
247  2.4600000000000D+00  0.0000000000000D+00  0.0000000000000D+00
248  2.4700000000000D+00  0.0000000000000D+00  0.0000000000000D+00
249  2.4800000000000D+00  0.0000000000000D+00  0.0000000000000D+00
250  2.4900000000000D+00  0.0000000000000D+00  0.0000000000000D+00
251  2.5000000000000D+00  0.0000000000000D+00  0.0000000000000D+00
252  2.5100000000000D+00  0.0000000000000D+00  0.0000000000000D+00
253  2.5200000000000D+00  0.0000000000000D+00  0.0000000000000D+00
254  2.5300000000000D+00  0.0000000000000D+00  0.0000000000000D+00
255  2.5400000000000D+00  0.0000000000000D+00  0.0000000000000D+00
256  2.5500000000000D+00  0.0000000000000D+00  0.0000000000000D+00
257  2.5600000000000D+00  0.0000000000000D+00  0.0000000000000D+00
258  2.5700000000000D+00  0.0000000000000D+00  0.0000000000000D+00
259  2.5800000000000D+00  0.0000000000000D+00  0.0000000000000D+00
260  2.5900000000000D+00  0.0000000000000D+00  0.0000000000000D+00
261  2.6000000000000D+00  0.0000000000000D+00  0.0000000000000D+00
262  2.6100000000000D+00  0.0000000000000D+00  0.0000000000000D+00
263  2.6200000000000D+00  0.0000000000000D+00  0.0000000000000D+00
264  2.6300000000000D+00  0.0000000000000D+00  0.0000000000000D+00
265  2.6400000000000D+00  0.0000000000000D+00  0.0000000000000D+00
266  2.6500000000000D+00  0.0000000000000D+00  0.0000000000000D+00
267  2.6600000000000D+00  0.0000000000000D+00  0.0000000000000D+00
268  2.6700000000000D+00  0.0000000000000D+00  0.0000000000000D+00
269  2.6800000000000D+00  0.0000000000000D+00  0.0000000000000D+00
270  2.6900000000000D+00  0.0000000000000D+00  0.0000000000000D+00
271  2.7000000000000D+00  0.0000000000000D+00  0.0000000000000D+00
272  2.7100000000000D+00  0.0000000000000D+00  0.0000000000000D+00
273  2.7200000000000D+00  0.0000000000000D+00  0.0000000000000D+00
274  2.7300000000000D+00  0.0000000000000D+00  0.0000000000000D+00
275  2.7400000000000D+00  0.0000000000000D+00  0.0000000000000D+00
276  2.7500000000000D+00  0.0000000000000D+00  0.0000000000000D+00
277  2.7600000000000D+00  0.0000000000000D+00  0.0000000000000D+00
278  2.7700000000000D+00  0.0000000000000D+00  0.0000000000000D+00
279  2.7800000000000D+00  0.0000000000000D+00  0.0000000000000D+00
280  2.7900000000000D+00  0.0000000000000D+00  0.0000000000000D+00
281  2.8000000000000D+00  0.0000000000000D+00  0.0000000000000D+00
282  2.8100000000000D+00  0.0000000000000D+00  0.0000000000000D+00
283  2.8200000000000D+00  0.0000000000000D+00  0.0000000000000D+00
284  2.8300000000000D+00  0.0000000000000D+00  0.0000000000000D+00
285  2.8400000000000D+00  0.0000000000000D+00  0.0000000000000D+00
286  2.8500000000000D+00  0.0000000000000D+00  0.0000000000000D+00
287  2.8600000000000D+00  0.0000000000000D+00  0.0000000000000D+00
288  2.8700000000000D+00  0.0000000000000D+00  0.0000000000000D+00
289  2.8800000000000D+00  0.0000000000000D+00  0.0000000000000D+00
290  2.8900000000000D+00  0.0000000000000D+00  0.0000000000000D+00
291  2.9000000000000D+00  0.0000000000000D+00  0.0000000000000D+00
292  2.9100000000000D+00  0.0000000000000D+00  0.0000000000000D+00
293  2.9200000000000D+00  0.0000000000000D+00  0.0000000000000D+00
294  2.9300000000000D+00  0.0000000000000D+00  0.0000000000000D+00
295  2.9400000000000D+00  0.0000000000000D+00  0.0000000000000D+00
296  2.9500000000000D+00  0.0000000000000D+00  0.0000000000000D+00
297  2.9600000000000D+00  0.0000000000000D+00  0.0000000000000D+00
298  2.9700000000000D+00  0.0000000000000D+00  0.0000000000000D+00
299  2.9800000000000D+00  0.0000000000000D+00  0.0000000000000D+00
300  2.9900000000000D+00  0.0000000000000D+00  0.0000000000000D+00
301  3.0000000000000D+00  0.0000000000000D+00  0.0000000000000D+00
302  3.0100000000000D+00  0.0000000000000D+00  0.0000000000000D+00
303  3.0200000000000D+00  0.0000000000000D+00  0.0000000000000D+00
304  3.0300000000000D+00  0.0000000000000D+00  0.0000000000000D+00
305  3.0400000000000D+00  0.0000000000000D+00  0.0000000000000D+00
306  3.0500000000000D+00  0.0000000000000D+00  0.0000000000000D+00
307  3.0600000000000D+00  0.0000000000000D+00  0.0000000000000D+00
308  3.0700000000000D+00  0.0000000000000D+00  0.0000000000000D+00
309  3.0800000000000D+00  0.0000000000000D+00  0.0000000000000D+00
310  3.0900000000000D+00  0.0000000000000D+00  0.0000000000000D+00
311  3.1000000000000D+00  0.0000000000000D+00  0.0000000000000D+00
312  3.1100000000000D+00  0.0000000000000D+00  0.0000000000000D+00
313  3.1200000000000D+00  0.0000000000000D+00  0.0000000000000D+00
314  3.1300000000000D+00  0.0000000000000D+00  0.0000000000000D+00
315  3.1400000000000D+00  0.0000000000000D+00  0.0000000000000D+00
316  3.1500000000000D+00  0.0000000000000D+00  0.0000000000000D+00
317  3.1600000000000D+00  0.0000000000000D+00  0.0000000000000D+00
318  3.1700000000000D+00  0.0000000000000D+00  0.0000000000000D+00
319  3.1800000000000D+00  0.0000000000000D+00  0.0000000000000D+00
320  3.1900000000000D+00  0.0000000000000D+00  0.0000000000000D+00
321  3.2000000000000D+00  0.0000000000000D+00  0.0000000000000D+00
322  3.2100000000000D+00  0.0000000000000D+00  0.0000000000000D+00
323  3.2200000000000D+00  0.0000000000000D+00  0.0000000000000D+00
324  3.2300000000000D+00  0.0000000000000D+00  0.0000000000000D+00
325  3.2400000000000D+00  0.0000000000000D+00  0.0000000000000D+00
326  3.2500000000000D+00  0.0000000000000D+00  0.0000000000000D+00
327  3.2600000000000D+00  0.0000000000000D+00  0.0000000000000D+00
328  3.2700000000000D+00  0.0000000000000D+00  0.0000000000000D+00
329  3.2800000000000D+00  0.0000000000000D+00  0.0000000000000D+00
330  3.2900000000000D+00  0.0000000000000D+00  0.0000000000000D+00
331  3.3000000000000D+00  0.0000000000000D+00  0.0000000000000D+00
332  3.3100000000000D+00  0.0000000000000D+00  0.0000000000000D+00
333  3.3200000000000D+00  0.0000000000000D+00  0.0000000000000D+00
334  3.3300000000000D+00  0.0000000000000D+00  0.0000000000000D+00
335  3.3400000000000D+00  0.0000000000000D+00  0.0000000000000D+00
336  3.3500000000000D+00  0.0000000000000D+00  0.0000000000000D+00
337  3.3600000000000D+00  0.0000000000000D+00  0.0000000000000D+00
338  3.3700000000000D+00  0.0000000000000D+00  0.0000000000000D+00
339  3.3800000000000D+00  0.0000000000000D+00  0.0000000000000D+00
340  3.3900000000000D+00  0.0000000000000D+00  0.0000000000000D+00
341  3.4000000000000D+00  0.0000000000000D+00  0.0000000000000D+00
342  3.4100000000000D+00  0.0000000000000D+00  0.0000000000000D+00
343  3.4200000000000D+00  0.0000000000000D+00  0.0000000000000D+00
344  3.4300000000000D+00  0.0000000000000D+00  0.0000000000000D+00
345  3.4400000000000D+00  0.0000000000000D+00  0.0000000000000D+00
346  3.4500000000000D+00  0.0000000000000D+00  0.0000000000000D+00
347  3.4600000000000D+00  0.0000000000000D+00  0.0000000000000D+00
348  3.4700000000000D+00  0.0000000000000D+00  0.0000000000000D+00
349  3.4800000000000D+00  0.0000000000000D+00  0.0000000000000D+00
350  3.4900000000000D+00  0.0000000000000D+00  0.0000000000000D+00
351  3.5000000000000D+00  0.0000000000000D+00  0.0000000000000D+00
352  3.5100000000000D+00  0.0000000000000D+00  0.0000000000000D+00
353  3.5200000000000D+00  0.0000000000000D+00  0.0000000000000D+00
354  3.5300000000000D+00  0.0000000000000D+00  0.0000000000000D+00
355  3.5400000000000D+00  0.0000000000000D+00  0.0000000000000D+00
356  3.5500000000000D+00  0.0000000000000D+00  0.0000000000000D+00
357  3.5600000000000D+00  0.0000000000000D+00  0.0000000000000D+00
358  3.5700000000000D+00  0.0000000000000D+00  0.0000000000000D+00
359  3.5800000000000D+00  0.0000000000000D+00  0.0000000000000D+00
360  3.5900000000000D+00  0.0000000000000D+00  0.0000000000000D+00
361  3.6000000000000D+00  0.0000000000000D+00  0.0000000000000D+00
362  3.6100000000000D+00  0.0000000000000D+00  0.0000000000000D+00
363  3.6200000000000D+00  0.0000000000000D+00  0.0000000000000D+00
364  3.6300000000000D+00  0.0000000000000D+00  0.0000000000000D+00
365  3.6400000000000D+00  0.0000000000000D+00  0.0000000000000D+00
366  3.6500000000000D+00  0.0000000000000D+00  0.0000000000000D+00
367  3.6600000000000D+00  0.0000000000000D+00  0.0000000000000D+00
368  3.6700000000000D+00  0.0000000000000D+00  0.0000000000000D+00
369  3.6800000000000D+00  0.0000000000000D+00  0.0000000000000D+00
370  3.6900000000000D+00  0.0000000000000D+00  0.0000000000000D+00
371  3.7000000000000D+00  0.0000000000000D+00  0.0000000000000D+00
372  3.7100000000000D+00  0.0000000000000D+00  0.0000000000000D+00
373  3.7200000000000D+00  0.0000000000000D+00  0.0000000000000D+00
374  3.7300000000000D+00  0.0000000000000D+00  0.0000000000000D+00
375  3.7400000000000D+00  0.0000000000000D+00  0.0000000000000D+00
376  3.7500000000000D+00  0.0000000000000D+00  0.0000000000000D+00
377  3.7600000000000D+00  0.0000000000000D+00  0.0000000000000D+00
378  3.7700000000000D+00  0.0000000000000D+00  0.0000000000000D+00
379  3.7800000000000D+00  0.0000000000000D+00  0.0000000000000D+00
380  3.7900000000000D+00  0.0000000000000D+00  0.0000000000000D+00
381  3.8000000000000D+00  0.0000000000000D+00  0.0000000000000D+00
382  3.8100000000000D+00  0.0000000000000D+00  0.0000000000000D+00
383  3.8200000000000D+00  0.0000000000000D+00  0.0000000000000D+00
384  3.8300000000000D+00  0.0000000000000D+00  0.0000000000000D+00
385  3.8400000000000D+00  0.0000000000000D+00  0.0000000000000D+00
386  3.8500000000000D+00  0.0000000000000D+00  0.0000000000000D+00
387  3.8600000000000D+00  0.0000000000000D+00  0.0000000000000D+00
388  3.8700000000000D+00  0.0000000000000D+00  0.0000000000000D+00
389  3.8800000000000D+00  0.0000000000000D+00  0.0000000000000D+00
390  3.8900000000000D+00  0.0000000000000D+00  0.0000000000000D+00
391  3.9000000000000D+00  0.0000000000000D+00  0.0000000000000D+00
392  3.9100000000000D+00  0.0000000000000D+00  0.0000000000000D+00
393  3.9200000000000D+00  0.0000000000000D+00  0.0000000000000D+00
394  3.9300000000000D+00  0.0000000000000D+00  0.0000000000000D+00
395  3.9400000000000D+00  0.0000000000000D+00  0.0000000000000D+00
396  3.9500000000000D+00  0.0000000000000D+00  0.0000000000000D+00
397  3.9600000000000D+00  0.0000000000000D+00  0.0000000000000D+00
398  3.9700000000000D+00  0.0000000000000D+00  0.0000000000000D+00
399  3.9800000000000D+00  0.0000000000000D+00  0.0000000000000D+00
400  3.9900000000000D+00  0.0000000000000D+00  0.0000000000000D+00
401  4.0000000000000D+00  0.0000000000000D+00  0.0000000000000D+00
402  4.0100000000000D+00  0.0000000000000D+00  0.0000000000000D+00
403  4.0200000000000D+00  0.0000000000000D+00  0.0000000000000D+00
404  4.0300000000000D+00  0.0000000000000D+00  0.0000000000000D+00
405  4.0400000000000D+00  0.0000000000000D+00  0.0000000000000D+00
406  4.0500000000000D+00  0.0000000000000D+00  0.0000000000000D+00
407  4.0600000000000D+00  0.0000000000000D+00  0.0000000000000D+00
408  4.0700000000000D+00  0.0000000000000D+00  0.0000000000000D+00
409  4.0800000000000D+00  0.0000000000000D+00  0.0000000000000D+00
410  4.0900000000000D+00  0.0000000000000D+00  0.0000000000000D+00
411  4.1000000000000D+00  0.0000000000000D+00  0.0000000000000D+00
412  4.1100000000000D+00  0.0000000000000D+00  0.0000000000000D+00
413  4.1200000000000D+00  0.0000000000000D+00  0.0000000000000D+00
414  4.1300000000000D+00  0.0000000000000D+00  0.0000000000000D+00
415  4.1400000000000D+00  0.0000000000000D+00  0.0000000000000D+00
416  4.1500000000000D+00  0.0000000000000D+00  0.0000000000000D+00
417  4.1600000000000D+00  0.0000000000000D+00  0.0000000000000D+00
418  4.1700000000000D+00  0.0000000000000D+00  0.0000000000000D+00
419  4.1800000000000D+00  0.0000000000000D+00  0.0000000000000D+00
420  4.1900000000000D+00  0.0000000000000D+00  0.0000000000000D+00
421  4.2000000000000D+00  0.0000000000000D+00  0.0000000000000D+00
422  4.2100000000000D+00  0.0000000000000D+00  0.0000000000000D+00
423  4.2200000000000D+00  0.0000000000000D+00  0.0000000000000D+00
424  4.2300000000000D+00  0.0000000000000D+00  0.0000000000000D+00
425  4.2400000000000D+00  0.0000000000000D+00  0.0000000000000D+00
426  4.2500000000000D+00  0.0000000000000D+00  0.0000000000000D+00
427  4.2600000000000D+00  0.0000000000000D+00  0.0000000000000D+00
428  4.2700000000000D+00  0.0000000000000D+00  0.0000000000000D+00
429  4.2800000000000D+00  0.0000000000000D+00  0.0000000000000D+00
430  4.2900000000000D+00  0.0000000000000D+00  0.0000000000000D+00
431  4.3000000000000D+00  0.0000000000000D+00  0.0000000000000D+00
432  4.3100000000000D+00  0.0000000000000D+00  0.0000000000000D+00
433  4.3200000000000D+00  0.0000000000000D+00  0.0000000000000D+00
434  4.3300000000000D+00  0.0000000000000D+00  0.0000000000000D+00
435  4.3400000000000D+00  0.0000000000000D+00  0.0000000000000D+00
436  4.3500000000000D+00  0.0000000000000D+00  0.0000000000000D+00
437  4.3600000000000D+00  0.0000000000000D+00  0.0000000000000D+00
438  4.3700000000000D+00  0.0000000000000D+00  0.0000000000000D+00
439  4.3800000000000D+00  0.0000000000000D+00  0.0000000000000D+00
440  4.3900000000000D+00  0.0000000000000D+00  0.0000000000000D+00
441  4.4000000000000D+00  0.0000000000000D+00  0.0000000000000D+00
442  4.4100000000000D+00  0.0000000000000D+00  0.0000000000000D+00
443  4.4200000000000D+00  0.0000000000000D+00  0.0000000000000D+00