   8    8    1    2
  1.9012744e+02   5.7501821e-10   5.7501821e-10   5.7501821e-10   5.0000000e-16
            1.000000e-04
  CAR
 DOS and projected DOS file by LOBSTER. Energy is shifted such that the Fermi level lies at 0 eV.
      8.45145538      -1.59879588   201       3.42632975       1.00000000
-5.02513  0.00000  0.00000 27.16409 27.16409
-4.97487  0.65135  0.65135 27.19682 27.19682
-4.92462  0.62988  0.62988 27.22847 27.22847
-4.87437  0.60290  0.60290 27.25877 27.25877
-4.82412  0.57517  0.57517 27.28767 27.28767
-4.77387  0.55081  0.55081 27.31535 27.31535
-4.72362  0.54229  0.54229 27.34260 27.34260
-4.67337  0.53709  0.53709 27.36959 27.36959
-4.62312  0.47752  0.47752 27.39358 27.39358
-4.57286  0.39305  0.39305 27.41333 27.41333
-4.52261  0.36959  0.36959 27.43191 27.43191
-4.47236  0.37121  0.37121 27.45056 27.45056
-4.42211  0.37408  0.37408 27.46936 27.46936
-4.37186  0.37715  0.37715 27.48831 27.48831
-4.32161  0.38075  0.38075 27.50744 27.50744
-4.27136  0.38632  0.38632 27.52686 27.52686
-4.22111  0.39141  0.39141 27.54653 27.54653
-4.17085  0.39520  0.39520 27.56638 27.56638
-4.12060  0.39852  0.39852 27.58641 27.58641
-4.07035  0.40174  0.40174 27.60660 27.60660
-4.02010  0.41027  0.41027 27.62722 27.62722
-3.96985  0.42505  0.42505 27.64857 27.64857
-3.91960  0.44270  0.44270 27.67082 27.67082
-3.86935  0.45793  0.45793 27.69383 27.69383
-3.81910  0.44863  0.44863 27.71638 27.71638
-3.76884  0.53482  0.53482 27.74325 27.74325
-3.71859  0.96246  0.96246 27.79162 27.79162
-3.66834  1.62956  1.62956 27.87350 27.87350
-3.61809  2.55264  2.55264 28.00178 28.00178
-3.56784  2.47064  2.47064 28.12593 28.12593
-3.51759  2.85823  2.85823 28.26956 28.26956
-3.46734  2.62132  2.62132 28.40128 28.40129
-3.41709  2.53844  2.53844 28.52884 28.52885
-3.36683  2.50798  2.50799 28.65487 28.65487
-3.31658  2.52821  2.52826 28.78192 28.78192
-3.26633  2.64336  2.64336 28.91475 28.91476
-3.21608  2.70782  2.70780 29.05082 29.05083
-3.16583  2.44523  2.44521 29.17370 29.17370
-3.11558  2.22590  2.22589 29.28555 29.28555
-3.06533  2.13135  2.13134 29.39266 29.39266
-3.01508  2.09842  2.09841 29.49810 29.49810
-2.96482  2.13899  2.13898 29.60559 29.60559
-2.91457  2.25789  2.25788 29.71905 29.71905
-2.86432  2.50652  2.50652 29.84501 29.84501
-2.81407  2.78367  2.78367 29.98489 29.98489
-2.76382  3.08401  3.08401 30.13987 30.13987
-2.71357  3.07186  3.07187 30.29423 30.29423
-2.66332  2.96280  2.96281 30.44312 30.44312
-2.61307  2.74171  2.74171 30.58089 30.58089
-2.56281  3.11293  3.11294 30.73732 30.73732
-2.51256  3.20397  3.20398 30.89832 30.89832
-2.46231  3.62409  3.62410 31.08044 31.08044
-2.41206  3.24991  3.24992 31.24375 31.24375
-2.36181  2.91598  2.91599 31.39028 31.39028
-2.31156  2.75543  2.75543 31.52874 31.52875
-2.26131  3.30845  3.30845 31.69500 31.69500
-2.21106  3.68032  3.68032 31.87994 31.87994
-2.16080  3.63372  3.63372 32.06254 32.06254
-2.11055  3.42349  3.42347 32.23457 32.23458
-2.06030  3.22759  3.22758 32.39676 32.39677
-2.01005  3.03900  3.03899 32.54948 32.54948
-1.95980  2.91725  2.91724 32.69607 32.69607
-1.90955  2.92166  2.92165 32.84289 32.84289
-1.85930  3.04078  3.04077 32.99569 32.99569
-1.80905  3.26721  3.26720 33.15987 33.15987
-1.75879  2.71348  2.71347 33.29623 33.29623
-1.70854  2.34682  2.34681 33.41416 33.41416
-1.65829  2.29467  2.29465 33.52947 33.52947
-1.60804  2.94340  2.94339 33.67738 33.67738
-1.55779  2.99396  2.99395 33.82783 33.82783
-1.50754  2.78589  2.78588 33.96782 33.96782
-1.45729  3.11526  3.11526 34.12437 34.12437
-1.40704  3.16001  3.16003 34.28316 34.28316
-1.35678  3.18868  3.18870 34.44340 34.44340
-1.30653  2.91305  2.91307 34.58978 34.58978
-1.25628  2.45361  2.45361 34.71308 34.71308
-1.20603  1.81571  1.81571 34.80432 34.80432
-1.15578  1.55718  1.55718 34.88257 34.88257
-1.10553  2.00020  2.00020 34.98309 34.98309
-1.05528  2.22765  2.22765 35.09503 35.09503
-1.00503  2.48271  2.48271 35.21979 35.21979
-0.95477  2.62874  2.62874 35.35188 35.35188
-0.90452  1.65282  1.65282 35.43494 35.43494
-0.85427  1.31343  1.31342 35.50094 35.50094
-0.80402  1.28213  1.28212 35.56537 35.56537
-0.75377  1.16362  1.16361 35.62384 35.62384
-0.70352  1.04359  1.04356 35.67629 35.67628
-0.65327  0.96277  0.96273 35.72467 35.72466
-0.60302  0.92128  0.92122 35.77096 35.77095
-0.55276  0.75284  0.75279 35.80879 35.80878
-0.50251  0.65458  0.65456 35.84169 35.84168
-0.45226  0.64679  0.64675 35.87419 35.87418
-0.40201  0.70365  0.70366 35.90955 35.90954
-0.35176  0.57147  0.57164 35.93826 35.93826
-0.30151  0.42747  0.42753 35.95975 35.95974
-0.25126  0.30505  0.30507 35.97507 35.97507
-0.20101  0.24046  0.24047 35.98716 35.98716
-0.15075  0.20227  0.20227 35.99732 35.99732
-0.10050  0.04139  0.04139 35.99940 35.99940
-0.05025  0.00034  0.00034 35.99942 35.99942
 0.00000  0.00000  0.00000 35.99942 35.99942
 0.05025  0.00001  0.00001 35.99942 35.99942
 0.10050  0.00010  0.00010 35.99943 35.99943
 0.15075  0.00026  0.00026 35.99944 35.99944
 0.20101  0.00051  0.00051 35.99946 35.99946
 0.25126  0.00083  0.00083 35.99951 35.99951
 0.30151  0.00123  0.00123 35.99957 35.99957
 0.35176  0.00172  0.00172 35.99965 35.99965
 0.40201  0.00229  0.00229 35.99977 35.99977
 0.45226  0.00293  0.00293 35.99992 35.99992
 0.50251  0.00366  0.00366 36.00010 36.00010
 0.55276  0.00446  0.00446 36.00032 36.00032
 0.60302  0.00535  0.00535 36.00059 36.00059
 0.65327  0.00632  0.00632 36.00091 36.00091
 0.70352  0.00736  0.00736 36.00128 36.00128
 0.75377  0.04700  0.04700 36.00364 36.00364
 0.80402  0.04178  0.04179 36.00574 36.00574
 0.85427  0.05472  0.05473 36.00849 36.00849
 0.90452  0.06989  0.06991 36.01200 36.01201
 0.95477  0.09479  0.09481 36.01677 36.01677
 1.00503  0.13510  0.13513 36.02356 36.02356
 1.05528  0.28666  0.28670 36.03796 36.03797
 1.10553  0.33004  0.33020 36.05455 36.05456
 1.15578  0.41696  0.41677 36.07550 36.07550
 1.20603  0.36160  0.36158 36.09367 36.09367
 1.25628  0.40910  0.40909 36.11423 36.11423
 1.30653  0.47832  0.47832 36.13826 36.13827
 1.35678  0.61873  0.61876 36.16935 36.16936
 1.40704  0.74795  0.74798 36.20694 36.20695
 1.45729  0.84239  0.84243 36.24927 36.24928
 1.50754  0.97728  0.97731 36.29838 36.29839
 1.55779  1.32135  1.32150 36.36478 36.36480
 1.60804  1.72742  1.72729 36.45159 36.45160
 1.65829  1.72413  1.72412 36.53823 36.53824
 1.70854  1.87486  1.87486 36.63244 36.63245
 1.75879  1.96228  1.96230 36.73105 36.73106
 1.80905  1.98645  1.98649 36.83087 36.83088
 1.85930  2.07490  2.07494 36.93513 36.93515
 1.90955  2.23238  2.23242 37.04731 37.04733
 1.95980  2.48221  2.48230 37.17205 37.17207
 2.01005  2.63317  2.63307 37.30437 37.30439
 2.06030  2.80129  2.80123 37.44514 37.44515
 2.11055  3.23617  3.23615 37.60776 37.60777
 2.16080  4.39722  4.39721 37.82872 37.82874
 2.21106  4.00318  4.00318 38.02989 38.02990
 2.26131  4.22392  4.22394 38.24215 38.24216
 2.31156  4.65887  4.65899 38.47626 38.47628
 2.36181  3.89844  3.89855 38.67216 38.67219
 2.41206  3.39121  3.39118 38.84257 38.84260
 2.46231  3.00744  3.00718 38.99370 38.99371
 2.51256  2.67324  2.67316 39.12804 39.12804
 2.56281  2.38460  2.38456 39.24786 39.24787
 2.61307  2.18930  2.18928 39.35788 39.35788
 2.66332  2.11669  2.11668 39.46425 39.46425
 2.71357  2.02421  2.02420 39.56597 39.56597
 2.76382  2.09366  2.09365 39.67117 39.67118
 2.81407  2.13776  2.13775 39.77860 39.77860
 2.86432  2.17136  2.17136 39.88771 39.88772
 2.91457  2.04857  2.04857 39.99066 39.99066
 2.96482  1.92856  1.92856 40.08757 40.08757
 3.01508  1.85188  1.85189 40.18063 40.18063
 3.06533  1.79495  1.79496 40.27083 40.27083
 3.11558  1.63720  1.63724 40.35310 40.35310
 3.16583  1.49823  1.49821 40.42839 40.42839
 3.21608  1.41695  1.41694 40.49959 40.49959
 3.26633  1.33240  1.33240 40.56654 40.56655
 3.31658  1.28424  1.28424 40.63108 40.63108
 3.36683  1.27659  1.27659 40.69523 40.69523
 3.41709  1.49115  1.49115 40.77016 40.77017
 3.46734  1.70350  1.70356 40.85576 40.85577
 3.51759  1.78129  1.78128 40.94528 40.94528
 3.56784  1.79991  1.79989 41.03572 41.03573
 3.61809  1.79210  1.79210 41.12578 41.12579
 3.66834  1.80311  1.80315 41.21639 41.21640
 3.71859  1.85829  1.85832 41.30977 41.30978
 3.76884  1.89134  1.89136 41.40481 41.40482
 3.81910  1.82696  1.82699 41.49662 41.49663
 3.86935  1.81185  1.81191 41.58767 41.58768
 3.91960  1.95077  1.95097 41.68569 41.68572
 3.96985  2.16355  2.16368 41.79442 41.79445
 4.02010  2.46938  2.46951 41.91851 41.91854
 4.07035  2.88583  2.88578 42.06352 42.06356
 4.12060  3.22383  3.22364 42.22552 42.22555
 4.17085  3.98519  3.98502 42.42578 42.42580
 4.22111  5.79485  5.79477 42.71698 42.71700
 4.27136  4.25285  4.25291 42.93069 42.93071
 4.32161  3.70061  3.70071 43.11665 43.11668
 4.37186  3.50019  3.50031 43.29254 43.29257
 4.42211  2.88339  2.88351 43.43744 43.43747
 4.47236  2.73141  2.73150 43.57469 43.57473
 4.52261  3.05843  3.05855 43.72838 43.72843
 4.57286  2.31304  2.31295 43.84462 43.84466
 4.62312  2.41579  2.41587 43.96601 43.96606
 4.67337  2.44134  2.44142 44.08869 44.08874
 4.72362  2.53404  2.53405 44.21603 44.21608
 4.77387  2.51588  2.51570 44.34246 44.34250
 4.82412  2.36413  2.36404 44.46126 44.46129
 4.87437  2.24272  2.24251 44.57396 44.57398
 4.92462  2.35571  2.35563 44.69234 44.69236
 4.97487  2.56758  2.56783 44.82136 44.82139
 5.02513  2.54800  2.54824 44.94940 44.94945
      5.02512563      -5.02512563   201       3.42632975       1.00000000; Z= 31; 4s 4p_y 4p_z 4p_x 3d_xy 3d_yz 3d_z^2 3d_xz 3d_x^2-y^2
-5.02513  0.00000  0.00000  0.00000  0.00000  0.00000  0.00000  0.00000  0.00000  0.00000  0.00000  0.00000  0.00000  0.00000  0.00000  0.00000  0.00000  0.00000  0.00000
-4.97487  0.06474  0.06474  0.00324  0.00324  0.00324  0.00324  0.00324  0.00324  0.00027  0.00027  0.00027  0.00027  0.00002  0.00002  0.00027  0.00027  0.00002  0.00002
-4.92462  0.06234  0.06234  0.00312  0.00312  0.00312  0.00312  0.00312  0.00312  0.00027  0.00027  0.00027  0.00027  0.00002  0.00002  0.00027  0.00027  0.00002  0.00002
-4.87437  0.05938  0.05938  0.00298  0.00298  0.00298  0.00298  0.00298  0.00298  0.00026  0.00026  0.00026  0.00026  0.00002  0.00002  0.00026  0.00026  0.00002  0.00002
-4.82412  0.05631  0.05631  0.00285  0.00285  0.00285  0.00285  0.00285  0.00285  0.00025  0.00025  0.00025  0.00025  0.00002  0.00002  0.00025  0.00025  0.00002  0.00002
-4.77387  0.05355  0.05355  0.00275  0.00275  0.00275  0.00275  0.00275  0.00275  0.00024  0.00024  0.00024  0.00024  0.00002  0.00002  0.00024  0.00024  0.00002  0.00002
-4.72362  0.05247  0.05247  0.00268  0.00268  0.00268  0.00268  0.00268  0.00268  0.00024  0.00024  0.00024  0.00024  0.00002  0.00002  0.00024  0.00024  0.00002  0.00002
-4.67337  0.05178  0.05178  0.00262  0.00262  0.00262  0.00262  0.00262  0.00262  0.00024  0.00024  0.00024  0.00024  0.00002  0.00002  0.00024  0.00024  0.00002  0.00002
-4.62312  0.04518  0.04518  0.00252  0.00252  0.00252  0.00251  0.00251  0.00252  0.00022  0.00022  0.00022  0.00022  0.00001  0.00001  0.00022  0.00022  0.00001  0.00001
-4.57286  0.03580  0.03580  0.00246  0.00245  0.00245  0.00245  0.00245  0.00245  0.00018  0.00018  0.00018  0.00018  0.00001  0.00001  0.00018  0.00018  0.00001  0.00001
-4.52261  0.03307  0.03308  0.00246  0.00246  0.00246  0.00246  0.00246  0.00246  0.00016  0.00016  0.00016  0.00016  0.00000  0.00000  0.00016  0.00016  0.00000  0.00000
-4.47236  0.03308  0.03309  0.00250  0.00249  0.00249  0.00249  0.00249  0.00249  0.00017  0.00017  0.00017  0.00017  0.00001  0.00001  0.00017  0.00017  0.00001  0.00001
-4.42211  0.03324  0.03324  0.00252  0.00252  0.00252  0.00252  0.00252  0.00252  0.00017  0.00017  0.00017  0.00017  0.00001  0.00001  0.00017  0.00017  0.00001  0.00001
-4.37186  0.03328  0.03328  0.00258  0.00258  0.00258  0.00258  0.00258  0.00258  0.00017  0.00017  0.00017  0.00017  0.00001  0.00001  0.00017  0.00017  0.00001  0.00001
-4.32161  0.03321  0.03321  0.00270  0.00269  0.00269  0.00270  0.00269  0.00270  0.00017  0.00017  0.00017  0.00017  0.00001  0.00001  0.00017  0.00017  0.00001  0.00001
-4.27136  0.03309  0.03309  0.00290  0.00289  0.00289  0.00290  0.00289  0.00290  0.00017  0.00017  0.00017  0.00017  0.00001  0.00001  0.00017  0.00017  0.00001  0.00001
-4.22111  0.03275  0.03275  0.00316  0.00316  0.00316  0.00316  0.00316  0.00316  0.00017  0.00017  0.00017  0.00017  0.00001  0.00001  0.00017  0.00017  0.00001  0.00001
-4.17085  0.03233  0.03233  0.00342  0.00341  0.00341  0.00341  0.00341  0.00342  0.00017  0.00017  0.00017  0.00017  0.00001  0.00001  0.00017  0.00017  0.00001  0.00001
-4.12060  0.03192  0.03192  0.00366  0.00366  0.00366  0.00366  0.00366  0.00366  0.00017  0.00017  0.00017  0.00017  0.00001  0.00001  0.00017  0.00017  0.00001  0.00001
-4.07035  0.03146  0.03146  0.00393  0.00392  0.00392  0.00392  0.00392  0.00393  0.00017  0.00017  0.00017  0.00017  0.00002  0.00002  0.00017  0.00017  0.00002  0.00002
-4.02010  0.03140  0.03141  0.00425  0.00424  0.00424  0.00424  0.00424  0.00425  0.00017  0.00017  0.00017  0.00017  0.00002  0.00002  0.00017  0.00017  0.00002  0.00002
-3.96985  0.03174  0.03174  0.00467  0.00466  0.00467  0.00466  0.00466  0.00468  0.00017  0.00017  0.00017  0.00017  0.00002  0.00002  0.00017  0.00017  0.00002  0.00002
-3.91960  0.03210  0.03210  0.00520  0.00519  0.00520  0.00519  0.00519  0.00521  0.00018  0.00018  0.00018  0.00018  0.00002  0.00002  0.00018  0.00018  0.00002  0.00002
-3.86935  0.03199  0.03199  0.00581  0.00580  0.00581  0.00580  0.00580  0.00583  0.00018  0.00018  0.00018  0.00018  0.00003  0.00003  0.00018  0.00018  0.00003  0.00003
-3.81910  0.02881  0.02881  0.00656  0.00656  0.00658  0.00656  0.00656  0.00660  0.00016  0.00016  0.00016  0.00016  0.00003  0.00003  0.00016  0.00016  0.00003  0.00003
-3.76884  0.02559  0.02558  0.01026  0.01033  0.01040  0.01035  0.01035  0.01039  0.00016  0.00016  0.00016  0.00016  0.00005  0.00005  0.00016  0.00016  0.00005  0.00005
-3.71859  0.02439  0.02439  0.02412  0.02438  0.02454  0.02447  0.02445  0.02449  0.00018  0.00018  0.00018  0.00018  0.00013  0.00013  0.00018  0.00018  0.00013  0.00013
-3.66834  0.02833  0.02832  0.04460  0.04496  0.04510  0.04507  0.04511  0.04509  0.00025  0.00025  0.00025  0.00025  0.00024  0.00024  0.00025  0.00025  0.00024  0.00024
-3.61809  0.03582  0.03580  0.07563  0.07582  0.07600  0.07601  0.07607  0.07609  0.00036  0.00036  0.00036  0.00036  0.00037  0.00037  0.00036  0.00036  0.00037  0.00037
-3.56784  0.03135  0.03134  0.07243  0.07260  0.07277  0.07267  0.07270  0.07274  0.00034  0.00034  0.00034  0.00034  0.00039  0.00039  0.00034  0.00034  0.00039  0.00039
-3.51759  0.02991  0.02990  0.08192  0.08207  0.08238  0.08230  0.08212  0.08214  0.00037  0.00037  0.00036  0.00036  0.00049  0.00049  0.00036  0.00036  0.00049  0.00049
-3.46734  0.03010  0.03009  0.07481  0.07484  0.07558  0.07557  0.07510  0.07515  0.00036  0.00036  0.00036  0.00036  0.00043  0.00043  0.00036  0.00036  0.00043  0.00043
-3.41709  0.03142  0.03140  0.07104  0.07103  0.07246  0.07254  0.07155  0.07158  0.00037  0.00037  0.00036  0.00036  0.00040  0.00040  0.00036  0.00036  0.00040  0.00040
-3.36683  0.03295  0.03291  0.06869  0.06865  0.07105  0.07123  0.06954  0.06953  0.00038  0.00038  0.00037  0.00037  0.00038  0.00038  0.00036  0.00036  0.00037  0.00037
-3.31658  0.03518  0.03511  0.06698  0.06695  0.07055  0.07087  0.06830  0.06823  0.00040  0.00040  0.00038  0.00038  0.00038  0.00038  0.00037  0.00037  0.00036  0.00036
-3.26633  0.03810  0.03789  0.06842  0.06769  0.07483  0.07584  0.07137  0.07117  0.00044  0.00044  0.00042  0.00041  0.00039  0.00039  0.00040  0.00039  0.00035  0.00035
-3.21608  0.04141  0.04110  0.06907  0.06772  0.07805  0.07950  0.07292  0.07268  0.00049  0.00049  0.00046  0.00045  0.00038  0.00037  0.00043  0.00042  0.00032  0.00032
-3.16583  0.03677  0.03642  0.06121  0.05957  0.06929  0.07087  0.06513  0.06494  0.00045  0.00045  0.00042  0.00041  0.00034  0.00034  0.00039  0.00038  0.00028  0.00028
-3.11558  0.03152  0.03115  0.05631  0.05451  0.06321  0.06482  0.06001  0.05985  0.00042  0.00041  0.00038  0.00037  0.00030  0.00030  0.00036  0.00035  0.00025  0.00025
-3.06533  0.02977  0.02942  0.05444  0.05264  0.05966  0.06121  0.05764  0.05740  0.00040  0.00040  0.00038  0.00037  0.00027  0.00027  0.00036  0.00035  0.00024  0.00024
-3.01508  0.02795  0.02769  0.05488  0.05333  0.05720  0.05851  0.05740  0.05703  0.00039  0.00039  0.00038  0.00037  0.00025  0.00025  0.00036  0.00036  0.00023  0.00023
-2.96482  0.02621  0.02608  0.05810  0.05695  0.05815  0.05894  0.05994  0.05970  0.00038  0.00039  0.00039  0.00039  0.00024  0.00024  0.00038  0.00037  0.00023  0.00023
-2.91457  0.02454  0.02452  0.06354  0.06287  0.06213  0.06242  0.06463  0.06448  0.00039  0.00040  0.00041  0.00041  0.00023  0.00023  0.00040  0.00040  0.00024  0.00024
-2.86432  0.02419  0.02432  0.07233  0.07248  0.06926  0.06890  0.07233  0.07229  0.00043  0.00043  0.00044  0.00045  0.00023  0.00024  0.00044  0.00044  0.00026  0.00026
-2.81407  0.02468  0.02491  0.08149  0.08241  0.07704  0.07617  0.08048  0.08043  0.00047  0.00047  0.00048  0.00049  0.00025  0.00025  0.00049  0.00050  0.00028  0.00028
-2.76382  0.02609  0.02637  0.09163  0.09343  0.08541  0.08383  0.08857  0.08852  0.00051  0.00052  0.00053  0.00054  0.00027  0.00027  0.00055  0.00056  0.00031  0.00031
-2.71357  0.02636  0.02667  0.09132  0.09320  0.08583  0.08396  0.08836  0.08851  0.00053  0.00053  0.00055  0.00056  0.00026  0.00026  0.00057  0.00058  0.00030  0.00030
-2.66332  0.02642  0.02666  0.08823  0.08957  0.08386  0.08245  0.08667  0.08673  0.00053  0.00054  0.00055  0.00056  0.00024  0.00024  0.00056  0.00057  0.00026  0.00026
-2.61307  0.02597  0.02616  0.08071  0.08263  0.08262  0.08036  0.07942  0.07999  0.00054  0.00053  0.00053  0.00054  0.00023  0.00023  0.00053  0.00054  0.00024  0.00024
-2.56281  0.02589  0.02604  0.09040  0.09276  0.08781  0.08677  0.08952  0.08842  0.00058  0.00058  0.00059  0.00059  0.00023  0.00023  0.00060  0.00060  0.00024  0.00024
-2.51256  0.01805  0.01816  0.09616  0.09640  0.09294  0.09296  0.09492  0.09467  0.00058  0.00058  0.00059  0.00059  0.00023  0.00023  0.00059  0.00059  0.00024  0.00024
-2.46231  0.01438  0.01443  0.10690  0.10693  0.10162  0.10136  0.10566  0.10610  0.00063  0.00063  0.00065  0.00065  0.00025  0.00025  0.00066  0.00066  0.00027  0.00027
-2.41206  0.01477  0.01480  0.09372  0.09352  0.09324  0.09290  0.09254  0.09325  0.00063  0.00063  0.00063  0.00063  0.00025  0.00024  0.00064  0.00064  0.00025  0.00025
-2.36181  0.01493  0.01496  0.08415  0.08455  0.08279  0.08252  0.08324  0.08325  0.00060  0.00060  0.00060  0.00061  0.00022  0.00022  0.00061  0.00061  0.00023  0.00023
-2.31156  0.01608  0.01610  0.07925  0.07922  0.07797  0.07777  0.07844  0.07830  0.00061  0.00060  0.00060  0.00060  0.00021  0.00021  0.00061  0.00060  0.00022  0.00022
-2.26131  0.02672  0.02671  0.09326  0.09228  0.09223  0.09213  0.09248  0.09251  0.00076  0.00076  0.00075  0.00076  0.00024  0.00024  0.00076  0.00075  0.00024  0.00024
-2.21106  0.02999  0.02998  0.10333  0.10238  0.10238  0.10237  0.10256  0.10265  0.00085  0.00085  0.00085  0.00085  0.00027  0.00027  0.00086  0.00085  0.00027  0.00027
-2.16080  0.02861  0.02862  0.10143  0.10108  0.10070  0.10072  0.10070  0.10083  0.00085  0.00085  0.00085  0.00085  0.00026  0.00026  0.00086  0.00085  0.00027  0.00027
-2.11055  0.02396  0.02400  0.09522  0.09528  0.09428  0.09438  0.09448  0.09454  0.00080  0.00080  0.00080  0.00080  0.00024  0.00024  0.00081  0.00081  0.00025  0.00025
-2.06030  0.01934  0.01941  0.08898  0.08959  0.08774  0.08792  0.08824  0.08813  0.00075  0.00075  0.00076  0.00076  0.00024  0.00023  0.00077  0.00077  0.00024  0.00024
-2.01005  0.01660  0.01666  0.08326  0.08401  0.08147  0.08152  0.08261  0.08238  0.00074  0.00073  0.00074  0.00074  0.00022  0.00022  0.00075  0.00075  0.00022  0.00022
-1.95980  0.01506  0.01511  0.07937  0.08012  0.07759  0.07762  0.07875  0.07847  0.00072  0.00072  0.00072  0.00072  0.00022  0.00022  0.00073  0.00073  0.00022  0.00022
-1.90955  0.01439  0.01444  0.07884  0.07939  0.07789  0.07792  0.07816  0.07809  0.00073  0.00073  0.00073  0.00073  0.00022  0.00022  0.00074  0.00074  0.00022  0.00022
-1.85930  0.01511  0.01512  0.08163  0.08181  0.07967  0.07970  0.07893  0.07907  0.00076  0.00076  0.00076  0.00076  0.00024  0.00024  0.00079  0.00080  0.00024  0.00024
-1.80905  0.01360  0.01360  0.08614  0.08518  0.08912  0.08923  0.08557  0.08655  0.00086  0.00086  0.00087  0.00086  0.00024  0.00024  0.00087  0.00087  0.00025  0.00024
-1.75879  0.01120  0.01120  0.07250  0.07183  0.07372  0.07381  0.07219  0.07259  0.00073  0.00074  0.00073  0.00073  0.00022  0.00021  0.00073  0.00073  0.00022  0.00022
-1.70854  0.00993  0.00993  0.06299  0.06228  0.06316  0.06328  0.06283  0.06294  0.00065  0.00065  0.00064  0.00064  0.00020  0.00020  0.00064  0.00063  0.00020  0.00020
-1.65829  0.00904  0.00904  0.06166  0.06107  0.06156  0.06165  0.06153  0.06159  0.00065  0.00065  0.00064  0.00064  0.00020  0.00020  0.00065  0.00064  0.00020  0.00020
-1.60804  0.01118  0.01118  0.07881  0.07855  0.07828  0.07827  0.07875  0.07860  0.00090  0.00090  0.00090  0.00090  0.00022  0.00022  0.00090  0.00089  0.00022  0.00022
-1.55779  0.01189  0.01188  0.07992  0.08005  0.07871  0.07859  0.07995  0.07947  0.00095  0.00095  0.00094  0.00094  0.00022  0.00022  0.00094  0.00094  0.00022  0.00022
-1.50754  0.01107  0.01106  0.07427  0.07432  0.07291  0.07273  0.07434  0.07372  0.00091  0.00090  0.00088  0.00089  0.00021  0.00021  0.00089  0.00088  0.00021  0.00021
-1.45729  0.01251  0.01251  0.08133  0.08144  0.08134  0.08108  0.08138  0.08086  0.00102  0.00102  0.00099  0.00099  0.00025  0.00025  0.00100  0.00099  0.00024  0.00024
-1.40704  0.00884  0.00884  0.07382  0.07491  0.07610  0.07571  0.07374  0.07365  0.00096  0.00095  0.00095  0.00094  0.00029  0.00029  0.00094  0.00097  0.00028  0.00028
-1.35678  0.00818  0.00818  0.07089  0.07177  0.07302  0.07258  0.07079  0.07062  0.00096  0.00096  0.00095  0.00094  0.00029  0.00029  0.00095  0.00097  0.00029  0.00029
-1.30653  0.00760  0.00760  0.06841  0.06901  0.06926  0.06887  0.06832  0.06794  0.00096  0.00095  0.00094  0.00094  0.00024  0.00024  0.00094  0.00095  0.00024  0.00024
-1.25628  0.00764  0.00765  0.05385  0.05429  0.05332  0.05385  0.05356  0.05469  0.00081  0.00081  0.00080  0.00082  0.00018  0.00017  0.00080  0.00081  0.00018  0.00018
-1.20603  0.00579  0.00580  0.03943  0.03930  0.04106  0.04132  0.03895  0.03985  0.00067  0.00067  0.00063  0.00064  0.00011  0.00011  0.00064  0.00063  0.00010  0.00010
-1.15578  0.00520  0.00520  0.03341  0.03332  0.03621  0.03639  0.03312  0.03372  0.00062  0.00063  0.00057  0.00058  0.00009  0.00009  0.00057  0.00057  0.00008  0.00008
-1.10553  0.00476  0.00476  0.04517  0.04539  0.04311  0.04313  0.04545  0.04522  0.00075  0.00075  0.00077  0.00077  0.00011  0.00011  0.00077  0.00077  0.00013  0.00013
-1.05528  0.00459  0.00459  0.04997  0.05024  0.04775  0.04776  0.05028  0.04995  0.00084  0.00084  0.00087  0.00087  0.00014  0.00014  0.00087  0.00087  0.00015  0.00015
-1.00503  0.00449  0.00449  0.05440  0.05438  0.05416  0.05415  0.05443  0.05438  0.00097  0.00097  0.00096  0.00096  0.00018  0.00018  0.00096  0.00096  0.00018  0.00018
-0.95477  0.00426  0.00426  0.05694  0.05691  0.05699  0.05698  0.05695  0.05692  0.00104  0.00104  0.00103  0.00103  0.00021  0.00021  0.00103  0.00103  0.00021  0.00021
-0.90452  0.00345  0.00345  0.03506  0.03502  0.03514  0.03514  0.03507  0.03504  0.00070  0.00070  0.00069  0.00069  0.00011  0.00011  0.00069  0.00069  0.00011  0.00011
-0.85427  0.00312  0.00312  0.02729  0.02725  0.02717  0.02717  0.02731  0.02726  0.00058  0.00058  0.00057  0.00057  0.00007  0.00007  0.00057  0.00057  0.00007  0.00007
-0.80402  0.00323  0.00323  0.02620  0.02618  0.02583  0.02583  0.02623  0.02616  0.00057  0.00057  0.00057  0.00057  0.00007  0.00007  0.00057  0.00057  0.00007  0.00007
-0.75377  0.00297  0.00297  0.02337  0.02334  0.02300  0.02300  0.02339  0.02332  0.00053  0.00053  0.00053  0.00053  0.00006  0.00006  0.00053  0.00053  0.00006  0.00006
-0.70352  0.00260  0.00260  0.02050  0.02047  0.02017  0.02017  0.02052  0.02044  0.00049  0.00049  0.00049  0.00049  0.00005  0.00005  0.00049  0.00049  0.00005  0.00005
-0.65327  0.00230  0.00230  0.01840  0.01836  0.01810  0.01810  0.01840  0.01834  0.00047  0.00047  0.00046  0.00046  0.00004  0.00004  0.00047  0.00046  0.00004  0.00004
-0.60302  0.00197  0.00197  0.01695  0.01686  0.01685  0.01683  0.01692  0.01689  0.00046  0.00046  0.00045  0.00046  0.00004  0.00004  0.00046  0.00045  0.00004  0.00004
-0.55276  0.00155  0.00155  0.01337  0.01324  0.01345  0.01343  0.01330  0.01334  0.00040  0.00040  0.00038  0.00038  0.00003  0.00003  0.00038  0.00038  0.00003  0.00003
-0.50251  0.00128  0.00128  0.01138  0.01126  0.01145  0.01144  0.01132  0.01138  0.00035  0.00035  0.00034  0.00034  0.00002  0.00002  0.00034  0.00034  0.00002  0.00002
-0.45226  0.00120  0.00120  0.01095  0.01085  0.01086  0.01086  0.01092  0.01097  0.00035  0.00035  0.00035  0.00035  0.00002  0.00002  0.00035  0.00035  0.00002  0.00002
-0.40201  0.00130  0.00130  0.01151  0.01144  0.01116  0.01118  0.01151  0.01156  0.00038  0.00038  0.00040  0.00039  0.00002  0.00002  0.00039  0.00040  0.00002  0.00002
-0.35176  0.00091  0.00090  0.00896  0.00891  0.00864  0.00864  0.00894  0.00902  0.00031  0.00031  0.00033  0.00033  0.00001  0.00001  0.00033  0.00033  0.00001  0.00001
-0.30151  0.00051  0.00051  0.00649  0.00637  0.00613  0.00610  0.00632  0.00649  0.00024  0.00024  0.00025  0.00026  0.00001  0.00001  0.00026  0.00025  0.00001  0.00001
-0.25126  0.00028  0.00028  0.00454  0.00431  0.00408  0.00406  0.00427  0.00455  0.00017  0.00017  0.00018  0.00020  0.00000  0.00000  0.00020  0.00018  0.00000  0.00000
-0.20101  0.00015  0.00015  0.00336  0.00335  0.00273  0.00277  0.00344  0.00347  0.00011  0.00011  0.00017  0.00017  0.00000  0.00000  0.00017  0.00017  0.00000  0.00000
-0.15075  0.00005  0.00005  0.00241  0.00292  0.00200  0.00210  0.00317  0.00263  0.00007  0.00008  0.00018  0.00013  0.00000  0.00000  0.00013  0.00017  0.00000  0.00000
-0.10050  0.00000  0.00000  0.00044  0.00064  0.00036  0.00038  0.00071  0.00050  0.00001  0.00001  0.00004  0.00003  0.00000  0.00000  0.00002  0.00004  0.00000  0.00000
-0.05025  0.00000  0.00000  0.00000  0.00001  0.00000  0.00000  0.00001  0.00000  0.00000  0.00000  0.00000  0.00000  0.00000  0.00000  0.00000  0.00000  0.00000  0.00000
 0.00000  0.00000  0.00000  0.00000  0.00000  0.00000  0.00000  0.00000  0.00000  0.00000  0.00000  0.00000  0.00000  0.00000  0.00000  0.00000  0.00000  0.00000 -0.00000
 0.05025  0.00000  0.00000  0.00000  0.00000  0.00000  0.00000  0.00000  0.00000  0.00000  0.00000  0.00000  0.00000  0.00000  0.00000  0.00000  0.00000  0.00000  0.00000
 0.10050  0.00001  0.00001  0.00000  0.00000  0.00000  0.00000  0.00000  0.00000  0.00000  0.00000  0.00000  0.00000  0.00000  0.00000  0.00000  0.00000  0.00000  0.00000
 0.15075  0.00003  0.00003  0.00000  0.00000  0.00000  0.00000  0.00000  0.00000  0.00000  0.00000  0.00000  0.00000  0.00000  0.00000  0.00000  0.00000  0.00000  0.00000
 0.20101  0.00006  0.00006  0.00000  0.00000  0.00000  0.00000  0.00000  0.00000  0.00000  0.00000  0.00000  0.00000  0.00000  0.00000  0.00000  0.00000  0.00000  0.00000
 0.25126  0.00009  0.00009  0.00000  0.00001  0.00001  0.00000  0.00001  0.00001  0.00000  0.00000  0.00000  0.00000  0.00000  0.00000  0.00000  0.00000  0.00000  0.00000
 0.30151  0.00014  0.00014  0.00001  0.00001  0.00001  0.00001  0.00001  0.00001  0.00000  0.00000  0.00000  0.00000  0.00000  0.00000  0.00000  0.00000  0.00000  0.00000
 0.35176  0.00019  0.00019  0.00001  0.00001  0.00001  0.00001  0.00001  0.00001  0.00000  0.00000  0.00000  0.00000  0.00000  0.00000  0.00000  0.00000  0.00000  0.00000
 0.40201  0.00026  0.00026  0.00001  0.00001  0.00001  0.00001  0.00001  0.00001  0.00000  0.00000  0.00000  0.00000  0.00000  0.00000  0.00000  0.00000  0.00000  0.00000
 0.45226  0.00033  0.00033  0.00002  0.00002  0.00002  0.00002  0.00002  0.00002  0.00000  0.00000  0.00000  0.00000  0.00000  0.00000  0.00000  0.00000  0.00000  0.00000
 0.50251  0.00041  0.00041  0.00002  0.00002  0.00002  0.00002  0.00002  0.00002  0.00000  0.00000  0.00000  0.00000  0.00000  0.00000  0.00000  0.00000  0.00000  0.00000
 0.55276  0.00050  0.00050  0.00003  0.00003  0.00003  0.00003  0.00003  0.00003  0.00000  0.00000  0.00000  0.00000  0.00000  0.00000  0.00000  0.00000  0.00000  0.00000
 0.60302  0.00060  0.00060  0.00003  0.00003  0.00003  0.00003  0.00003  0.00003  0.00000  0.00000  0.00000  0.00000  0.00000  0.00000  0.00000  0.00000  0.00000  0.00000
 0.65327  0.00071  0.00071  0.00004  0.00004  0.00004  0.00004  0.00004  0.00004  0.00000  0.00000  0.00000  0.00000  0.00000  0.00000  0.00000  0.00000  0.00000  0.00000
 0.70352  0.00082  0.00082  0.00004  0.00005  0.00005  0.00004  0.00004  0.00004  0.00000  0.00000  0.00000  0.00000  0.00000  0.00000  0.00000  0.00000  0.00000  0.00000
 0.75377  0.00440  0.00440  0.00109  0.00109  0.00109  0.00109  0.00109  0.00109  0.00001  0.00001  0.00001  0.00001  0.00000  0.00000  0.00001  0.00001  0.00000  0.00000
 0.80402  0.00385  0.00385  0.00092  0.00093  0.00093  0.00092  0.00092  0.00092  0.00001  0.00001  0.00001  0.00001  0.00000  0.00000  0.00001  0.00001  0.00000  0.00000
 0.85427  0.00496  0.00496  0.00124  0.00125  0.00125  0.00124  0.00125  0.00125  0.00001  0.00001  0.00001  0.00001  0.00000  0.00000  0.00001  0.00001  0.00000  0.00000
 0.90452  0.00624  0.00624  0.00162  0.00163  0.00163  0.00162  0.00163  0.00163  0.00001  0.00001  0.00001  0.00001  0.00000  0.00000  0.00001  0.00001  0.00000  0.00000