   8   8   1   0
  0.2376593E+02  0.5750182E-09  0.5750182E-09  0.5750182E-09  0.5000000E-15
   1.0000000000000000E-004
  CAR
 unknown system
     14.30104808    -12.66879809  301      3.42632975      1.00000000
    -12.669  0.0000E+00  0.0000E+00  0.0000E+00  0.0000E+00
    -12.579  0.0000E+00  0.0000E+00  0.0000E+00  0.0000E+00
    -12.489  0.0000E+00  0.0000E+00  0.0000E+00  0.0000E+00
    -12.399  0.0000E+00  0.0000E+00  0.0000E+00  0.0000E+00
    -12.309  0.0000E+00  0.0000E+00  0.0000E+00  0.0000E+00
    -12.219  0.0000E+00  0.0000E+00  0.0000E+00  0.0000E+00
    -12.129  0.0000E+00  0.0000E+00  0.0000E+00  0.0000E+00
    -12.040  0.0000E+00  0.0000E+00  0.0000E+00  0.0000E+00
    -11.950  0.0000E+00  0.0000E+00  0.0000E+00  0.0000E+00
    -11.860  0.0000E+00  0.0000E+00  0.0000E+00  0.0000E+00
    -11.770  0.0000E+00  0.0000E+00  0.0000E+00  0.0000E+00
    -11.680  0.0000E+00  0.0000E+00  0.0000E+00  0.0000E+00
    -11.590  0.0000E+00  0.0000E+00  0.0000E+00  0.0000E+00
    -11.500  0.0000E+00  0.0000E+00  0.0000E+00  0.0000E+00
    -11.410  0.1102E+03  0.1103E+03  0.2879E+01  0.2879E+01
    -11.320  0.3333E+03  0.3333E+03  0.9635E+01  0.9637E+01
    -11.230  0.1077E+03  0.1077E+03  0.2000E+02  0.2000E+02
    -11.141  0.0000E+00  0.0000E+00  0.2000E+02  0.2000E+02
    -11.051  0.0000E+00  0.0000E+00  0.2000E+02  0.2000E+02
    -10.961  0.0000E+00  0.0000E+00  0.2000E+02  0.2000E+02
    -10.871  0.0000E+00  0.0000E+00  0.2000E+02  0.2000E+02
    -10.781  0.0000E+00  0.0000E+00  0.2000E+02  0.2000E+02
    -10.691  0.0000E+00  0.0000E+00  0.2000E+02  0.2000E+02
    -10.601  0.0000E+00  0.0000E+00  0.2000E+02  0.2000E+02
    -10.511  0.0000E+00  0.0000E+00  0.2000E+02  0.2000E+02
    -10.421  0.0000E+00  0.0000E+00  0.2000E+02  0.2000E+02
    -10.331  0.0000E+00  0.0000E+00  0.2000E+02  0.2000E+02
    -10.242  0.0000E+00  0.0000E+00  0.2000E+02  0.2000E+02
    -10.152  0.0000E+00  0.0000E+00  0.2000E+02  0.2000E+02
    -10.062  0.0000E+00  0.0000E+00  0.2000E+02  0.2000E+02
     -9.972  0.0000E+00  0.0000E+00  0.2000E+02  0.2000E+02
     -9.882  0.0000E+00  0.0000E+00  0.2000E+02  0.2000E+02
     -9.792  0.0000E+00  0.0000E+00  0.2000E+02  0.2000E+02
     -9.702  0.0000E+00  0.0000E+00  0.2000E+02  0.2000E+02
     -9.612  0.0000E+00  0.0000E+00  0.2000E+02  0.2000E+02
     -9.522  0.0000E+00  0.0000E+00  0.2000E+02  0.2000E+02
     -9.432  0.0000E+00  0.0000E+00  0.2000E+02  0.2000E+02
     -9.343  0.0000E+00  0.0000E+00  0.2000E+02  0.2000E+02
     -9.253  0.0000E+00  0.0000E+00  0.2000E+02  0.2000E+02
     -9.163  0.0000E+00  0.0000E+00  0.2000E+02  0.2000E+02
     -9.073  0.0000E+00  0.0000E+00  0.2000E+02  0.2000E+02
     -8.983  0.2310E+00  0.2310E+00  0.2001E+02  0.2001E+02
     -8.893  0.3485E+00  0.3485E+00  0.2003E+02  0.2003E+02
     -8.803  0.4458E+00  0.4458E+00  0.2007E+02  0.2007E+02
     -8.713  0.5419E+00  0.5419E+00  0.2011E+02  0.2011E+02
     -8.623  0.6429E+00  0.6429E+00  0.2017E+02  0.2017E+02
     -8.533  0.7106E+00  0.7106E+00  0.2023E+02  0.2023E+02
     -8.444  0.7918E+00  0.7918E+00  0.2029E+02  0.2029E+02
     -8.354  0.1015E+01  0.1015E+01  0.2037E+02  0.2037E+02
     -8.264  0.1166E+01  0.1166E+01  0.2048E+02  0.2048E+02
     -8.174  0.1029E+01  0.1029E+01  0.2058E+02  0.2058E+02
     -8.084  0.9573E+00  0.9573E+00  0.2066E+02  0.2066E+02
     -7.994  0.1063E+01  0.1063E+01  0.2075E+02  0.2075E+02
     -7.904  0.1414E+01  0.1414E+01  0.2086E+02  0.2086E+02
     -7.814  0.1494E+01  0.1494E+01  0.2099E+02  0.2099E+02
     -7.724  0.1718E+01  0.1718E+01  0.2114E+02  0.2114E+02
     -7.634  0.1862E+01  0.1862E+01  0.2130E+02  0.2130E+02
     -7.545  0.2023E+01  0.2023E+01  0.2147E+02  0.2147E+02
     -7.455  0.3083E+01  0.3083E+01  0.2171E+02  0.2171E+02
     -7.365  0.2695E+01  0.2695E+01  0.2195E+02  0.2195E+02
     -7.275  0.3818E+01  0.3818E+01  0.2223E+02  0.2223E+02
     -7.185  0.2896E+01  0.2896E+01  0.2250E+02  0.2250E+02
     -7.095  0.3807E+01  0.3807E+01  0.2278E+02  0.2278E+02
     -7.005  0.2953E+01  0.2953E+01  0.2307E+02  0.2307E+02
     -6.915  0.2910E+01  0.2910E+01  0.2333E+02  0.2333E+02
     -6.825  0.4420E+01  0.4420E+01  0.2367E+02  0.2367E+02
     -6.735  0.1746E+01  0.1746E+01  0.2399E+02  0.2399E+02
     -6.646  0.0000E+00  0.0000E+00  0.2400E+02  0.2400E+02
     -6.556  0.0000E+00  0.0000E+00  0.2400E+02  0.2400E+02
     -6.466  0.0000E+00  0.0000E+00  0.2400E+02  0.2400E+02
     -6.376  0.0000E+00  0.0000E+00  0.2400E+02  0.2400E+02
     -6.286  0.0000E+00  0.0000E+00  0.2400E+02  0.2400E+02
     -6.196  0.0000E+00  0.0000E+00  0.2400E+02  0.2400E+02
     -6.106  0.0000E+00  0.0000E+00  0.2400E+02  0.2400E+02
     -6.016  0.0000E+00  0.0000E+00  0.2400E+02  0.2400E+02
     -5.926  0.0000E+00  0.0000E+00  0.2400E+02  0.2400E+02
     -5.836  0.0000E+00  0.0000E+00  0.2400E+02  0.2400E+02
     -5.747  0.0000E+00  0.0000E+00  0.2400E+02  0.2400E+02
     -5.657  0.0000E+00  0.0000E+00  0.2400E+02  0.2400E+02
     -5.567  0.0000E+00  0.0000E+00  0.2400E+02  0.2400E+02
     -5.477  0.0000E+00  0.0000E+00  0.2400E+02  0.2400E+02
     -5.387  0.0000E+00  0.0000E+00  0.2400E+02  0.2400E+02
     -5.297  0.0000E+00  0.0000E+00  0.2400E+02  0.2400E+02
     -5.207  0.0000E+00  0.0000E+00  0.2400E+02  0.2400E+02
     -5.117  0.0000E+00  0.0000E+00  0.2400E+02  0.2400E+02
     -5.027  0.0000E+00  0.0000E+00  0.2400E+02  0.2400E+02
     -4.937  0.0000E+00  0.0000E+00  0.2400E+02  0.2400E+02
     -4.848  0.0000E+00  0.0000E+00  0.2400E+02  0.2400E+02
     -4.758  0.0000E+00  0.0000E+00  0.2400E+02  0.2400E+02
     -4.668  0.0000E+00  0.0000E+00  0.2400E+02  0.2400E+02
     -4.578  0.0000E+00  0.0000E+00  0.2400E+02  0.2400E+02
     -4.488  0.0000E+00  0.0000E+00  0.2400E+02  0.2400E+02
     -4.398  0.0000E+00  0.0000E+00  0.2400E+02  0.2400E+02
     -4.308  0.0000E+00  0.0000E+00  0.2400E+02  0.2400E+02
     -4.218  0.0000E+00  0.0000E+00  0.2400E+02  0.2400E+02
     -4.128  0.0000E+00  0.0000E+00  0.2400E+02  0.2400E+02
     -4.038  0.0000E+00  0.0000E+00  0.2400E+02  0.2400E+02
     -3.949  0.0000E+00  0.0000E+00  0.2400E+02  0.2400E+02
     -3.859  0.0000E+00  0.0000E+00  0.2400E+02  0.2400E+02
     -3.769  0.0000E+00  0.0000E+00  0.2400E+02  0.2400E+02
     -3.679  0.0000E+00  0.0000E+00  0.2400E+02  0.2400E+02
     -3.589  0.0000E+00  0.0000E+00  0.2400E+02  0.2400E+02
     -3.499  0.0000E+00  0.0000E+00  0.2400E+02  0.2400E+02
     -3.409  0.0000E+00  0.0000E+00  0.2400E+02  0.2400E+02
     -3.319  0.0000E+00  0.0000E+00  0.2400E+02  0.2400E+02
     -3.229  0.5019E+00  0.5019E+00  0.2401E+02  0.2401E+02
     -3.139  0.1552E+01  0.1552E+01  0.2410E+02  0.2410E+02
     -3.050  0.4866E+01  0.4866E+01  0.2438E+02  0.2438E+02
     -2.960  0.6862E+01  0.6862E+01  0.2481E+02  0.2481E+02
     -2.870  0.4592E+01  0.4592E+01  0.2534E+02  0.2534E+02
     -2.780  0.3013E+01  0.3013E+01  0.2565E+02  0.2565E+02
     -2.690  0.2319E+01  0.2319E+01  0.2589E+02  0.2589E+02
     -2.600  0.1862E+01  0.1862E+01  0.2608E+02  0.2608E+02
     -2.510  0.1480E+01  0.1480E+01  0.2623E+02  0.2623E+02
     -2.420  0.1338E+01  0.1338E+01  0.2636E+02  0.2636E+02
     -2.330  0.1329E+01  0.1329E+01  0.2648E+02  0.2648E+02
     -2.240  0.1288E+01  0.1288E+01  0.2659E+02  0.2659E+02
     -2.151  0.1060E+01  0.1060E+01  0.2670E+02  0.2670E+02
     -2.061  0.9724E+00  0.9724E+00  0.2679E+02  0.2679E+02
     -1.971  0.8992E+00  0.8992E+00  0.2688E+02  0.2688E+02
     -1.881  0.8417E+00  0.8417E+00  0.2695E+02  0.2695E+02
     -1.791  0.8032E+00  0.8032E+00  0.2703E+02  0.2703E+02
     -1.701  0.7103E+00  0.7103E+00  0.2709E+02  0.2709E+02
     -1.611  0.6676E+00  0.6676E+00  0.2716E+02  0.2716E+02
     -1.521  0.6295E+00  0.6295E+00  0.2721E+02  0.2721E+02
     -1.431  0.5797E+00  0.5797E+00  0.2727E+02  0.2727E+02
     -1.341  0.5444E+00  0.5444E+00  0.2732E+02  0.2732E+02
     -1.252  0.5331E+00  0.5331E+00  0.2737E+02  0.2737E+02
     -1.162  0.3748E+00  0.3748E+00  0.2741E+02  0.2741E+02
     -1.072  0.3712E+00  0.3712E+00  0.2744E+02  0.2744E+02
     -0.982  0.3765E+00  0.3765E+00  0.2748E+02  0.2748E+02
     -0.892  0.3836E+00  0.3836E+00  0.2751E+02  0.2751E+02
     -0.802  0.3929E+00  0.3929E+00  0.2754E+02  0.2754E+02
     -0.712  0.3990E+00  0.3990E+00  0.2758E+02  0.2758E+02
     -0.622  0.4093E+00  0.4093E+00  0.2762E+02  0.2762E+02
     -0.532  0.4374E+00  0.4374E+00  0.2765E+02  0.2765E+02
     -0.442  0.4540E+00  0.4540E+00  0.2769E+02  0.2769E+02
     -0.353  0.5927E+00  0.5927E+00  0.2774E+02  0.2774E+02
     -0.263  0.1682E+01  0.1682E+01  0.2784E+02  0.2784E+02
     -0.173  0.2453E+01  0.2453E+01  0.2805E+02  0.2805E+02
     -0.083  0.2746E+01  0.2746E+01  0.2829E+02  0.2829E+02
      0.007  0.2516E+01  0.2516E+01  0.2852E+02  0.2852E+02
      0.097  0.2500E+01  0.2500E+01  0.2875E+02  0.2875E+02
      0.187  0.2770E+01  0.2770E+01  0.2899E+02  0.2899E+02
      0.277  0.2246E+01  0.2246E+01  0.2921E+02  0.2921E+02
      0.367  0.2106E+01  0.2106E+01  0.2940E+02  0.2940E+02
      0.457  0.2175E+01  0.2175E+01  0.2960E+02  0.2960E+02
      0.546  0.2553E+01  0.2553E+01  0.2981E+02  0.2981E+02
      0.636  0.3097E+01  0.3097E+01  0.3006E+02  0.3006E+02
      0.726  0.3010E+01  0.3010E+01  0.3034E+02  0.3034E+02
      0.816  0.2948E+01  0.2948E+01  0.3059E+02  0.3059E+02
      0.906  0.3329E+01  0.3329E+01  0.3087E+02  0.3087E+02
      0.996  0.3272E+01  0.3272E+01  0.3119E+02  0.3119E+02
      1.086  0.2660E+01  0.2660E+01  0.3145E+02  0.3145E+02
      1.176  0.3682E+01  0.3682E+01  0.3173E+02  0.3173E+02
      1.266  0.3520E+01  0.3520E+01  0.3206E+02  0.3206E+02
      1.356  0.3172E+01  0.3172E+01  0.3236E+02  0.3236E+02
      1.445  0.2959E+01  0.2959E+01  0.3264E+02  0.3264E+02
      1.535  0.2994E+01  0.2994E+01  0.3290E+02  0.3290E+02
      1.625  0.3404E+01  0.3404E+01  0.3319E+02  0.3319E+02
      1.715  0.2320E+01  0.2320E+01  0.3341E+02  0.3341E+02
      1.805  0.3270E+01  0.3270E+01  0.3364E+02  0.3364E+02
      1.895  0.2772E+01  0.2772E+01  0.3390E+02  0.3390E+02
      1.985  0.3522E+01  0.3522E+01  0.3418E+02  0.3418E+02
      2.075  0.4116E+01  0.4116E+01  0.3447E+02  0.3447E+02
      2.165  0.2637E+01  0.2637E+01  0.3470E+02  0.3470E+02
      2.255  0.1682E+01  0.1682E+01  0.3486E+02  0.3486E+02
      2.344  0.2276E+01  0.2276E+01  0.3504E+02  0.3504E+02
      2.434  0.3085E+01  0.3085E+01  0.3526E+02  0.3526E+02
      2.524  0.1328E+01  0.1328E+01  0.3544E+02  0.3544E+02
      2.614  0.1256E+01  0.1256E+01  0.3556E+02  0.3556E+02
      2.704  0.1033E+01  0.1033E+01  0.3566E+02  0.3566E+02
      2.794  0.9290E+00  0.9290E+00  0.3574E+02  0.3574E+02
      2.884  0.6713E+00  0.6713E+00  0.3582E+02  0.3582E+02
      2.974  0.7001E+00  0.7001E+00  0.3587E+02  0.3587E+02
      3.064  0.5216E+00  0.5217E+00  0.3593E+02  0.3593E+02
      3.154  0.2961E+00  0.2961E+00  0.3597E+02  0.3597E+02
      3.243  0.2252E+00  0.2252E+00  0.3599E+02  0.3599E+02
      3.333  0.8162E-03  0.8174E-03  0.3600E+02  0.3600E+02
      3.423  0.0000E+00  0.0000E+00  0.3600E+02  0.3600E+02
      3.513  0.1248E-03  0.1248E-03  0.3600E+02  0.3600E+02
      3.603  0.5067E-03  0.5068E-03  0.3600E+02  0.3600E+02
      3.693  0.1146E-02  0.1146E-02  0.3600E+02  0.3600E+02
      3.783  0.2042E-02  0.2042E-02  0.3600E+02  0.3600E+02
      3.873  0.3196E-02  0.3196E-02  0.3600E+02  0.3600E+02
      3.963  0.4606E-02  0.4606E-02  0.3600E+02  0.3600E+02
      4.053  0.6274E-02  0.6274E-02  0.3600E+02  0.3600E+02
      4.142  0.8199E-02  0.8199E-02  0.3600E+02  0.3600E+02
      4.232  0.6365E-01  0.6365E-01  0.3601E+02  0.3601E+02
      4.322  0.7528E-01  0.7528E-01  0.3601E+02  0.3601E+02
      4.412  0.1401E+00  0.1401E+00  0.3602E+02  0.3602E+02
      4.502  0.3439E+00  0.3440E+00  0.3604E+02  0.3604E+02
      4.592  0.3475E+00  0.3475E+00  0.3608E+02  0.3608E+02
      4.682  0.4393E+00  0.4394E+00  0.3611E+02  0.3611E+02
      4.772  0.6663E+00  0.6663E+00  0.3616E+02  0.3616E+02
      4.862  0.8420E+00  0.8420E+00  0.3623E+02  0.3623E+02
      4.952  0.1132E+01  0.1132E+01  0.3632E+02  0.3632E+02
      5.041  0.1841E+01  0.1841E+01  0.3646E+02  0.3646E+02
      5.131  0.1926E+01  0.1926E+01  0.3663E+02  0.3663E+02
      5.221  0.1994E+01  0.1994E+01  0.3680E+02  0.3680E+02
      5.311  0.2232E+01  0.2232E+01  0.3699E+02  0.3699E+02
      5.401  0.2620E+01  0.2620E+01  0.3721E+02  0.3721E+02
      5.491  0.2964E+01  0.2965E+01  0.3746E+02  0.3746E+02
      5.581  0.4382E+01  0.4381E+01  0.3780E+02  0.3780E+02
      5.671  0.4204E+01  0.4204E+01  0.3817E+02  0.3817E+02
      5.761  0.4023E+01  0.4023E+01  0.3857E+02  0.3857E+02
      5.850  0.3088E+01  0.3088E+01  0.3888E+02  0.3888E+02
      5.940  0.2537E+01  0.2537E+01  0.3913E+02  0.3913E+02
      6.030  0.2163E+01  0.2163E+01  0.3934E+02  0.3934E+02
      6.120  0.2030E+01  0.2030E+01  0.3953E+02  0.3953E+02
      6.210  0.2131E+01  0.2131E+01  0.3971E+02  0.3971E+02
      6.300  0.2123E+01  0.2123E+01  0.3991E+02  0.3991E+02
      6.390  0.1822E+01  0.1822E+01  0.4009E+02  0.4009E+02
      6.480  0.1805E+01  0.1805E+01  0.4025E+02  0.4025E+02
      6.570  0.1489E+01  0.1489E+01  0.4040E+02  0.4040E+02
      6.660  0.1341E+01  0.1341E+01  0.4052E+02  0.4052E+02
      6.749  0.1235E+01  0.1235E+01  0.4064E+02  0.4064E+02
      6.839  0.1627E+01  0.1627E+01  0.4076E+02  0.4076E+02
      6.929  0.1793E+01  0.1793E+01  0.4092E+02  0.4092E+02
      7.019  0.1790E+01  0.1790E+01  0.4108E+02  0.4108E+02
      7.109  0.1831E+01  0.1831E+01  0.4124E+02  0.4124E+02
      7.199  0.1862E+01  0.1862E+01  0.4141E+02  0.4141E+02
      7.289  0.1819E+01  0.1819E+01  0.4158E+02  0.4158E+02
      7.379  0.2214E+01  0.2215E+01  0.4176E+02  0.4176E+02
      7.469  0.2881E+01  0.2881E+01  0.4198E+02  0.4198E+02
      7.559  0.3457E+01  0.3457E+01  0.4227E+02  0.4227E+02
      7.648  0.5483E+01  0.5483E+01  0.4272E+02  0.4272E+02
      7.738  0.3480E+01  0.3480E+01  0.4308E+02  0.4308E+02
      7.828  0.2913E+01  0.2913E+01  0.4338E+02  0.4338E+02
      7.918  0.4655E+01  0.4656E+01  0.4364E+02  0.4364E+02
      8.008  0.2304E+01  0.2304E+01  0.4387E+02  0.4387E+02
      8.098  0.2549E+01  0.2549E+01  0.4409E+02  0.4409E+02
      8.188  0.2439E+01  0.2439E+01  0.4431E+02  0.4431E+02
      8.278  0.2209E+01  0.2209E+01  0.4452E+02  0.4452E+02
      8.368  0.2526E+01  0.2526E+01  0.4474E+02  0.4474E+02
      8.458  0.2459E+01  0.2459E+01  0.4497E+02  0.4497E+02
      8.547  0.2403E+01  0.2403E+01  0.4519E+02  0.4519E+02
      8.637  0.3461E+01  0.3461E+01  0.4542E+02  0.4542E+02
      8.727  0.3423E+01  0.3423E+01  0.4573E+02  0.4573E+02
      8.817  0.4325E+01  0.4325E+01  0.4611E+02  0.4611E+02
      8.907  0.2781E+01  0.2781E+01  0.4642E+02  0.4642E+02
      8.997  0.3521E+01  0.3521E+01  0.4670E+02  0.4670E+02
      9.087  0.3573E+01  0.3573E+01  0.4702E+02  0.4702E+02
      9.177  0.2361E+01  0.2361E+01  0.4727E+02  0.4727E+02
      9.267  0.1613E+01  0.1613E+01  0.4745E+02  0.4745E+02
      9.357  0.1836E+01  0.1836E+01  0.4760E+02  0.4760E+02
      9.446  0.1730E+01  0.1730E+01  0.4775E+02  0.4775E+02
      9.536  0.1859E+01  0.1859E+01  0.4792E+02  0.4792E+02
      9.626  0.2029E+01  0.2030E+01  0.4809E+02  0.4809E+02
      9.716  0.2453E+01  0.2453E+01  0.4830E+02  0.4830E+02
      9.806  0.2053E+01  0.2053E+01  0.4850E+02  0.4850E+02
      9.896  0.1836E+01  0.1836E+01  0.4867E+02  0.4867E+02
      9.986  0.1643E+01  0.1643E+01  0.4883E+02  0.4883E+02
     10.076  0.1602E+01  0.1602E+01  0.4897E+02  0.4897E+02
     10.166  0.2297E+01  0.2294E+01  0.4914E+02  0.4914E+02
     10.256  0.2029E+01  0.2028E+01  0.4933E+02  0.4933E+02
     10.345  0.2231E+01  0.2230E+01  0.4952E+02  0.4952E+02
     10.435  0.2911E+01  0.2910E+01  0.4976E+02  0.4976E+02
     10.525  0.2897E+01  0.2895E+01  0.5002E+02  0.5002E+02
     10.615  0.2533E+01  0.2531E+01  0.5026E+02  0.5026E+02
     10.705  0.2386E+01  0.2385E+01  0.5048E+02  0.5048E+02
     10.795  0.2274E+01  0.2273E+01  0.5069E+02  0.5069E+02
     10.885  0.2168E+01  0.2166E+01  0.5090E+02  0.5090E+02
     10.975  0.2537E+01  0.2537E+01  0.5110E+02  0.5110E+02
     11.065  0.1455E+01  0.1455E+01  0.5125E+02  0.5124E+02
     11.155  0.1210E+01  0.1209E+01  0.5136E+02  0.5136E+02
     11.244  0.9151E+00  0.9334E+00  0.5145E+02  0.5145E+02
     11.334  0.7300E+00  0.7315E+00  0.5152E+02  0.5152E+02
     11.424  0.6755E+00  0.6766E+00  0.5159E+02  0.5159E+02
     11.514  0.6803E+00  0.6811E+00  0.5165E+02  0.5165E+02
     11.604  0.5908E+00  0.5914E+00  0.5170E+02  0.5170E+02
     11.694  0.4974E+00  0.4977E+00  0.5175E+02  0.5175E+02
     11.784  0.4094E+00  0.4094E+00  0.5179E+02  0.5179E+02
     11.874  0.4701E+00  0.4553E+00  0.5183E+02  0.5183E+02
     11.964  0.3148E+00  0.3125E+00  0.5186E+02  0.5186E+02
     12.054  0.2649E+00  0.2629E+00  0.5189E+02  0.5189E+02
     12.143  0.2238E+00  0.2224E+00  0.5191E+02  0.5191E+02
     12.233  0.1913E+00  0.1907E+00  0.5193E+02  0.5193E+02
     12.323  0.1670E+00  0.1668E+00  0.5194E+02  0.5194E+02
     12.413  0.1477E+00  0.1477E+00  0.5196E+02  0.5196E+02
     12.503  0.1355E+00  0.1350E+00  0.5197E+02  0.5197E+02
     12.593  0.1258E+00  0.1251E+00  0.5198E+02  0.5198E+02
     12.683  0.6509E-01  0.6893E-01  0.5199E+02  0.5199E+02
     12.773  0.3701E-01  0.3782E-01  0.5200E+02  0.5200E+02
     12.863  0.1811E-01  0.1853E-01  0.5200E+02  0.5200E+02
     12.953  0.5890E-02  0.6052E-02  0.5200E+02  0.5200E+02
     13.042  0.3598E-03  0.3799E-03  0.5200E+02  0.5200E+02
     13.132  0.0000E+00  0.0000E+00  0.5200E+02  0.5200E+02
     13.222  0.0000E+00  0.0000E+00  0.5200E+02  0.5200E+02
     13.312  0.0000E+00  0.0000E+00  0.5200E+02  0.5200E+02
     13.402  0.0000E+00  0.0000E+00  0.5200E+02  0.5200E+02
     13.492  0.0000E+00  0.0000E+00  0.5200E+02  0.5200E+02
     13.582  0.0000E+00  0.0000E+00  0.5200E+02  0.5200E+02
     13.672  0.0000E+00  0.0000E+00  0.5200E+02  0.5200E+02
     13.762  0.0000E+00  0.0000E+00  0.5200E+02  0.5200E+02
     13.852  0.0000E+00  0.0000E+00  0.5200E+02  0.5200E+02
     13.941  0.0000E+00  0.0000E+00  0.5200E+02  0.5200E+02
     14.031  0.0000E+00  0.0000E+00  0.5200E+02  0.5200E+02
     14.121  0.0000E+00  0.0000E+00  0.5200E+02  0.5200E+02
     14.211  0.0000E+00  0.0000E+00  0.5200E+02  0.5200E+02
     14.301  0.0000E+00  0.0000E+00  0.5200E+02  0.5200E+02
     14.30104808    -12.66879809  301      3.42632975      1.00000000
    -12.669  0.0000E+00  0.0000E+00  0.0000E+00  0.0000E+00  0.0000E+00  0.0000E+00  0.0000E+00  0.0000E+00  0.0000E+00  0.0000E+00  0.0000E+00  0.0000E+00  0.0000E+00  0.0000E+00  0.0000E+00  0.0000E+00  0.0000E+00  0.0000E+00
    -12.579  0.0000E+00  0.0000E+00  0.0000E+00  0.0000E+00  0.0000E+00  0.0000E+00  0.0000E+00  0.0000E+00  0.0000E+00  0.0000E+00  0.0000E+00  0.0000E+00  0.0000E+00  0.0000E+00  0.0000E+00  0.0000E+00  0.0000E+00  0.0000E+00
    -12.489  0.0000E+00  0.0000E+00  0.0000E+00  0.0000E+00  0.0000E+00  0.0000E+00  0.0000E+00  0.0000E+00  0.0000E+00  0.0000E+00  0.0000E+00  0.0000E+00  0.0000E+00  0.0000E+00  0.0000E+00  0.0000E+00  0.0000E+00  0.0000E+00
    -12.399  0.0000E+00  0.0000E+00  0.0000E+00  0.0000E+00  0.0000E+00  0.0000E+00  0.0000E+00  0.0000E+00  0.0000E+00  0.0000E+00  0.0000E+00  0.0000E+00  0.0000E+00  0.0000E+00  0.0000E+00  0.0000E+00  0.0000E+00  0.0000E+00
    -12.309  0.0000E+00  0.0000E+00  0.0000E+00  0.0000E+00  0.0000E+00  0.0000E+00  0.0000E+00  0.0000E+00  0.0000E+00  0.0000E+00  0.0000E+00  0.0000E+00  0.0000E+00  0.0000E+00  0.0000E+00  0.0000E+00  0.0000E+00  0.0000E+00
    -12.219  0.0000E+00  0.0000E+00  0.0000E+00  0.0000E+00  0.0000E+00  0.0000E+00  0.0000E+00  0.0000E+00  0.0000E+00  0.0000E+00  0.0000E+00  0.0000E+00  0.0000E+00  0.0000E+00  0.0000E+00  0.0000E+00  0.0000E+00  0.0000E+00
    -12.129  0.0000E+00  0.0000E+00  0.0000E+00  0.0000E+00  0.0000E+00  0.0000E+00  0.0000E+00  0.0000E+00  0.0000E+00  0.0000E+00  0.0000E+00  0.0000E+00  0.0000E+00  0.0000E+00  0.0000E+00  0.0000E+00  0.0000E+00  0.0000E+00
    -12.040  0.0000E+00  0.0000E+00  0.0000E+00  0.0000E+00  0.0000E+00  0.0000E+00  0.0000E+00  0.0000E+00  0.0000E+00  0.0000E+00  0.0000E+00  0.0000E+00  0.0000E+00  0.0000E+00  0.0000E+00  0.0000E+00  0.0000E+00  0.0000E+00
    -11.950  0.0000E+00  0.0000E+00  0.0000E+00  0.0000E+00  0.0000E+00  0.0000E+00  0.0000E+00  0.0000E+00  0.0000E+00  0.0000E+00  0.0000E+00  0.0000E+00  0.0000E+00  0.0000E+00  0.0000E+00  0.0000E+00  0.0000E+00  0.0000E+00
    -11.860  0.0000E+00  0.0000E+00  0.0000E+00  0.0000E+00  0.0000E+00  0.0000E+00  0.0000E+00  0.0000E+00  0.0000E+00  0.0000E+00  0.0000E+00  0.0000E+00  0.0000E+00  0.0000E+00  0.0000E+00  0.0000E+00  0.0000E+00  0.0000E+00
    -11.770  0.0000E+00  0.0000E+00  0.0000E+00  0.0000E+00  0.0000E+00  0.0000E+00  0.0000E+00  0.0000E+00  0.0000E+00  0.0000E+00  0.0000E+00  0.0000E+00  0.0000E+00  0.0000E+00  0.0000E+00  0.0000E+00  0.0000E+00  0.0000E+00
    -11.680  0.0000E+00  0.0000E+00  0.0000E+00  0.0000E+00  0.0000E+00  0.0000E+00  0.0000E+00  0.0000E+00  0.0000E+00  0.0000E+00  0.0000E+00  0.0000E+00  0.0000E+00  0.0000E+00  0.0000E+00  0.0000E+00  0.0000E+00  0.0000E+00
    -11.590  0.0000E+00  0.0000E+00  0.0000E+00  0.0000E+00  0.0000E+00  0.0000E+00  0.0000E+00  0.0000E+00  0.0000E+00  0.0000E+00  0.0000E+00  0.0000E+00  0.0000E+00  0.0000E+00  0.0000E+00  0.0000E+00  0.0000E+00  0.0000E+00
    -11.500  0.0000E+00  0.0000E+00  0.0000E+00  0.0000E+00  0.0000E+00  0.0000E+00  0.0000E+00  0.0000E+00  0.0000E+00  0.0000E+00  0.0000E+00  0.0000E+00  0.0000E+00  0.0000E+00  0.0000E+00  0.0000E+00  0.0000E+00  0.0000E+00
    -11.410  0.1430E-01  0.1432E-01  0.5292E-02  0.5297E-02  0.5539E-02  0.5548E-02  0.5532E-02  0.5531E-02  0.8899E+01  0.8919E+01  0.8885E+01  0.8888E+01  0.9619E-02  0.9633E-02  0.8554E+01  0.8564E+01  0.9322E-02  0.9325E-02
    -11.320  0.2284E-02  0.2283E-02  0.2441E-02  0.2439E-02  0.2463E-02  0.2466E-02  0.2456E-02  0.2456E-02  0.2619E+02  0.2622E+02  0.2606E+02  0.2605E+02  0.1758E+01  0.1757E+01  0.2592E+02  0.2590E+02  0.1811E+01  0.1811E+01
    -11.230  0.2410E-03  0.2410E-03  0.1545E-03  0.1545E-03  0.1508E-03  0.1509E-03  0.1524E-03  0.1524E-03  0.1774E+01  0.1775E+01  0.1790E+01  0.1790E+01  0.1061E+02  0.1061E+02  0.1810E+01  0.1810E+01  0.1061E+02  0.1061E+02
    -11.141  0.0000E+00  0.0000E+00  0.0000E+00  0.0000E+00  0.0000E+00  0.0000E+00  0.0000E+00  0.0000E+00  0.0000E+00  0.0000E+00  0.0000E+00  0.0000E+00  0.0000E+00  0.0000E+00  0.0000E+00  0.0000E+00  0.0000E+00  0.0000E+00
    -11.051  0.0000E+00  0.0000E+00  0.0000E+00  0.0000E+00  0.0000E+00  0.0000E+00  0.0000E+00  0.0000E+00  0.0000E+00  0.0000E+00  0.0000E+00  0.0000E+00  0.0000E+00  0.0000E+00  0.0000E+00  0.0000E+00  0.0000E+00  0.0000E+00
    -10.961  0.0000E+00  0.0000E+00  0.0000E+00  0.0000E+00  0.0000E+00  0.0000E+00  0.0000E+00  0.0000E+00  0.0000E+00  0.0000E+00  0.0000E+00  0.0000E+00  0.0000E+00  0.0000E+00  0.0000E+00  0.0000E+00  0.0000E+00  0.0000E+00
    -10.871  0.0000E+00  0.0000E+00  0.0000E+00  0.0000E+00  0.0000E+00  0.0000E+00  0.0000E+00  0.0000E+00  0.0000E+00  0.0000E+00  0.0000E+00  0.0000E+00  0.0000E+00  0.0000E+00  0.0000E+00  0.0000E+00  0.0000E+00  0.0000E+00
    -10.781  0.0000E+00  0.0000E+00  0.0000E+00  0.0000E+00  0.0000E+00  0.0000E+00  0.0000E+00  0.0000E+00  0.0000E+00  0.0000E+00  0.0000E+00  0.0000E+00  0.0000E+00  0.0000E+00  0.0000E+00  0.0000E+00  0.0000E+00  0.0000E+00
    -10.691  0.0000E+00  0.0000E+00  0.0000E+00  0.0000E+00  0.0000E+00  0.0000E+00  0.0000E+00  0.0000E+00  0.0000E+00  0.0000E+00  0.0000E+00  0.0000E+00  0.0000E+00  0.0000E+00  0.0000E+00  0.0000E+00  0.0000E+00  0.0000E+00
    -10.601  0.0000E+00  0.0000E+00  0.0000E+00  0.0000E+00  0.0000E+00  0.0000E+00  0.0000E+00  0.0000E+00  0.0000E+00  0.0000E+00  0.0000E+00  0.0000E+00  0.0000E+00  0.0000E+00  0.0000E+00  0.0000E+00  0.0000E+00  0.0000E+00
    -10.511  0.0000E+00  0.0000E+00  0.0000E+00  0.0000E+00  0.0000E+00  0.0000E+00  0.0000E+00  0.0000E+00  0.0000E+00  0.0000E+00  0.0000E+00  0.0000E+00  0.0000E+00  0.0000E+00  0.0000E+00  0.0000E+00  0.0000E+00  0.0000E+00
    -10.421  0.0000E+00  0.0000E+00  0.0000E+00  0.0000E+00  0.0000E+00  0.0000E+00  0.0000E+00  0.0000E+00  0.0000E+00  0.0000E+00  0.0000E+00  0.0000E+00  0.0000E+00  0.0000E+00  0.0000E+00  0.0000E+00  0.0000E+00  0.0000E+00
    -10.331  0.0000E+00  0.0000E+00  0.0000E+00  0.0000E+00  0.0000E+00  0.0000E+00  0.0000E+00  0.0000E+00  0.0000E+00  0.0000E+00  0.0000E+00  0.0000E+00  0.0000E+00  0.0000E+00  0.0000E+00  0.0000E+00  0.0000E+00  0.0000E+00
    -10.242  0.0000E+00  0.0000E+00  0.0000E+00  0.0000E+00  0.0000E+00  0.0000E+00  0.0000E+00  0.0000E+00  0.0000E+00  0.0000E+00  0.0000E+00  0.0000E+00  0.0000E+00  0.0000E+00  0.0000E+00  0.0000E+00  0.0000E+00  0.0000E+00
    -10.152  0.0000E+00  0.0000E+00  0.0000E+00  0.0000E+00  0.0000E+00  0.0000E+00  0.0000E+00  0.0000E+00  0.0000E+00  0.0000E+00  0.0000E+00  0.0000E+00  0.0000E+00  0.0000E+00  0.0000E+00  0.0000E+00  0.0000E+00  0.0000E+00
    -10.062  0.0000E+00  0.0000E+00  0.0000E+00  0.0000E+00  0.0000E+00  0.0000E+00  0.0000E+00  0.0000E+00  0.0000E+00  0.0000E+00  0.0000E+00  0.0000E+00  0.0000E+00  0.0000E+00  0.0000E+00  0.0000E+00  0.0000E+00  0.0000E+00
     -9.972  0.0000E+00  0.0000E+00  0.0000E+00  0.0000E+00  0.0000E+00  0.0000E+00  0.0000E+00  0.0000E+00  0.0000E+00  0.0000E+00  0.0000E+00  0.0000E+00  0.0000E+00  0.0000E+00  0.0000E+00  0.0000E+00  0.0000E+00  0.0000E+00
     -9.882  0.0000E+00  0.0000E+00  0.0000E+00  0.0000E+00  0.0000E+00  0.0000E+00  0.0000E+00  0.0000E+00  0.0000E+00  0.0000E+00  0.0000E+00  0.0000E+00  0.0000E+00  0.0000E+00  0.0000E+00  0.0000E+00  0.0000E+00  0.0000E+00
     -9.792  0.0000E+00  0.0000E+00  0.0000E+00  0.0000E+00  0.0000E+00  0.0000E+00  0.0000E+00  0.0000E+00  0.0000E+00  0.0000E+00  0.0000E+00  0.0000E+00  0.0000E+00  0.0000E+00  0.0000E+00  0.0000E+00  0.0000E+00  0.0000E+00
     -9.702  0.0000E+00  0.0000E+00  0.0000E+00  0.0000E+00  0.0000E+00  0.0000E+00  0.0000E+00  0.0000E+00  0.0000E+00  0.0000E+00  0.0000E+00  0.0000E+00  0.0000E+00  0.0000E+00  0.0000E+00  0.0000E+00  0.0000E+00  0.0000E+00
     -9.612  0.0000E+00  0.0000E+00  0.0000E+00  0.0000E+00  0.0000E+00  0.0000E+00  0.0000E+00  0.0000E+00  0.0000E+00  0.0000E+00  0.0000E+00  0.0000E+00  0.0000E+00  0.0000E+00  0.0000E+00  0.0000E+00  0.0000E+00  0.0000E+00
     -9.522  0.0000E+00  0.0000E+00  0.0000E+00  0.0000E+00  0.0000E+00  0.0000E+00  0.0000E+00  0.0000E+00  0.0000E+00  0.0000E+00  0.0000E+00  0.0000E+00  0.0000E+00  0.0000E+00  0.0000E+00  0.0000E+00  0.0000E+00  0.0000E+00
     -9.432  0.0000E+00  0.0000E+00  0.0000E+00  0.0000E+00  0.0000E+00  0.0000E+00  0.0000E+00  0.0000E+00  0.0000E+00  0.0000E+00  0.0000E+00  0.0000E+00  0.0000E+00  0.0000E+00  0.0000E+00  0.0000E+00  0.0000E+00  0.0000E+00
     -9.343  0.0000E+00  0.0000E+00  0.0000E+00  0.0000E+00  0.0000E+00  0.0000E+00  0.0000E+00  0.0000E+00  0.0000E+00  0.0000E+00  0.0000E+00  0.0000E+00  0.0000E+00  0.0000E+00  0.0000E+00  0.0000E+00  0.0000E+00  0.0000E+00
     -9.253  0.0000E+00  0.0000E+00  0.0000E+00  0.0000E+00  0.0000E+00  0.0000E+00  0.0000E+00  0.0000E+00  0.0000E+00  0.0000E+00  0.0000E+00  0.0000E+00  0.0000E+00  0.0000E+00  0.0000E+00  0.0000E+00  0.0000E+00  0.0000E+00
     -9.163  0.0000E+00  0.0000E+00  0.0000E+00  0.0000E+00  0.0000E+00  0.0000E+00  0.0000E+00  0.0000E+00  0.0000E+00  0.0000E+00  0.0000E+00  0.0000E+00  0.0000E+00  0.0000E+00  0.0000E+00  0.0000E+00  0.0000E+00  0.0000E+00
     -9.073  0.0000E+00  0.0000E+00  0.0000E+00  0.0000E+00  0.0000E+00  0.0000E+00  0.0000E+00  0.0000E+00  0.0000E+00  0.0000E+00  0.0000E+00  0.0000E+00  0.0000E+00  0.0000E+00  0.0000E+00  0.0000E+00  0.0000E+00  0.0000E+00
     -8.983  0.9298E-02  0.9298E-02  0.2379E-04  0.2379E-04  0.2379E-04  0.2379E-04  0.2379E-04  0.2379E-04  0.5760E-04  0.5760E-04  0.5760E-04  0.5760E-04  0.8287E-07  0.8287E-07  0.5760E-04  0.5760E-04  0.8287E-07  0.8287E-07
     -8.893  0.1374E-01  0.1374E-01  0.7526E-04  0.7526E-04  0.7526E-04  0.7526E-04  0.7526E-04  0.7526E-04  0.1723E-03  0.1723E-03  0.1723E-03  0.1723E-03  0.4687E-06  0.4687E-06  0.1723E-03  0.1723E-03  0.4687E-06  0.4687E-06
     -8.803  0.1717E-01  0.1717E-01  0.1507E-03  0.1507E-03  0.1507E-03  0.1507E-03  0.1507E-03  0.1507E-03  0.3272E-03  0.3272E-03  0.3272E-03  0.3272E-03  0.1278E-05  0.1278E-05  0.3272E-03  0.3272E-03  0.1278E-05  0.1278E-05
     -8.713  0.2045E-01  0.2045E-01  0.2383E-03  0.2383E-03  0.2383E-03  0.2383E-03  0.2383E-03  0.2383E-03  0.4965E-03  0.4965E-03  0.4965E-03  0.4965E-03  0.2300E-05  0.2300E-05  0.4965E-03  0.4965E-03  0.2300E-05  0.2300E-05
     -8.623  0.2372E-01  0.2372E-01  0.3520E-03  0.3520E-03  0.3520E-03  0.3520E-03  0.3520E-03  0.3520E-03  0.7052E-03  0.7052E-03  0.7052E-03  0.7052E-03  0.3657E-05  0.3657E-05  0.7052E-03  0.7052E-03  0.3657E-05  0.3657E-05
     -8.533  0.2551E-01  0.2551E-01  0.4772E-03  0.4772E-03  0.4772E-03  0.4772E-03  0.4772E-03  0.4772E-03  0.9137E-03  0.9137E-03  0.9137E-03  0.9137E-03  0.5439E-05  0.5439E-05  0.9137E-03  0.9137E-03  0.5438E-05  0.5438E-05
     -8.444  0.2766E-01  0.2766E-01  0.6240E-03  0.6240E-03  0.6240E-03  0.6240E-03  0.6240E-03  0.6240E-03  0.1151E-02  0.1151E-02  0.1151E-02  0.1151E-02  0.7417E-05  0.7417E-05  0.1151E-02  0.1151E-02  0.7417E-05  0.7417E-05
     -8.354  0.3458E-01  0.3458E-01  0.9050E-03  0.9050E-03  0.9050E-03  0.9050E-03  0.9050E-03  0.9050E-03  0.1607E-02  0.1607E-02  0.1607E-02  0.1607E-02  0.1256E-04  0.1256E-04  0.1607E-02  0.1607E-02  0.1256E-04  0.1256E-04
     -8.264  0.3863E-01  0.3863E-01  0.1165E-02  0.1165E-02  0.1165E-02  0.1165E-02  0.1165E-02  0.1165E-02  0.2019E-02  0.2019E-02  0.2019E-02  0.2019E-02  0.1482E-04  0.1482E-04  0.2019E-02  0.2019E-02  0.1482E-04  0.1482E-04
     -8.174  0.3285E-01  0.3285E-01  0.1157E-02  0.1157E-02  0.1157E-02  0.1157E-02  0.1157E-02  0.1157E-02  0.1975E-02  0.1975E-02  0.1975E-02  0.1975E-02  0.1031E-04  0.1031E-04  0.1975E-02  0.1975E-02  0.1031E-04  0.1031E-04