    8    8    1    2
  0.2376593E+02  0.5750182E-09  0.5750182E-09  0.5750182E-09  0.5000000E-15
   1.0000000000000000E-004
  CAR
 unknown system
     72    365     52

  0.1262379E-14  0.1262379E-14  0.1262379E-14  0.1371742E-02
      1        -11.442891      -11.442896   1.000000   1.000000
      2        -11.442891      -11.442896   1.000000   1.000000
      3        -11.442891      -11.442896   1.000000   1.000000
      4        -11.348369      -11.348374   1.000000   1.000000
      5        -11.348369      -11.348374   1.000000   1.000000
      6        -11.348369      -11.348374   1.000000   1.000000
      7        -11.306889      -11.306894   1.000000   1.000000
      8        -11.306857      -11.306863   1.000000   1.000000
      9        -11.306855      -11.306861   1.000000   1.000000
     10        -11.306846      -11.306852   1.000000   1.000000
     11        -11.306844      -11.306849   1.000000   1.000000
     12        -11.306812      -11.306818   1.000000   1.000000
     13        -11.301075      -11.301080   1.000000   1.000000
     14        -11.301055      -11.301060   1.000000   1.000000
     15        -11.301036      -11.301041   1.000000   1.000000
     16        -11.280035      -11.280040   1.000000   1.000000
     17        -11.280035      -11.280040   1.000000   1.000000
     18        -11.269063      -11.269068   1.000000   1.000000
     19        -11.269043      -11.269048   1.000000   1.000000
     20        -11.269024      -11.269029   1.000000   1.000000
     21         -9.058084       -9.058085   1.000000   1.000000
     22         -6.755907       -6.755907   1.000000   1.000000
     23         -6.755907       -6.755907   1.000000   1.000000
     24         -6.755907       -6.755907   1.000000   1.000000
     25         -3.277776       -3.277776   1.000000   1.000000
     26         -3.277768       -3.277769   1.000000   1.000000
     27         -3.277761       -3.277762   1.000000   1.000000
     28          0.816803        0.816803   1.000000   1.000000
     29          0.816806        0.816806   1.000000   1.000000
     30          0.816806        0.816806   1.000000   1.000000
     31          0.816806        0.816806   1.000000   1.000000
     32          0.816806        0.816806   1.000000   1.000000
     33          0.816810        0.816810   1.000000   1.000000
     34          3.340178        3.340183   1.000000   1.000000
     35          3.340178        3.340183   1.000000   1.000000
     36          3.340178        3.340183   1.000000   1.000000
     37          3.424546        3.424541   0.000003   0.000003
     38          4.783756        4.783744   0.000000   0.000000
     39          4.783756        4.783744   0.000000   0.000000
     40          4.783756        4.783744   0.000000   0.000000
     41          4.936113        4.936098   0.000000   0.000000
     42          4.936115        4.936100   0.000000   0.000000
     43          4.936118        4.936102   0.000000   0.000000
     44          7.017056        7.017046   0.000000   0.000000
     45          7.017056        7.017046   0.000000   0.000000
     46          7.017056        7.017046   0.000000   0.000000
     47         10.574376       10.574350   0.000000   0.000000
     48         13.069802       13.069793   0.000000   0.000000
     49         13.069804       13.069798   0.000000   0.000000
     50         13.069810       13.069807   0.000000   0.000000
     51         13.070250       13.072480   0.000000   0.000000
     52         13.075146       13.074902   0.000000   0.000000

  0.1111111E+00  0.1262379E-14  0.1262379E-14  0.2743484E-02
      1        -11.441684      -11.441689   1.000000   1.000000
      2        -11.441684      -11.441689   1.000000   1.000000
      3        -11.440588      -11.440593   1.000000   1.000000
      4        -11.352071      -11.352077   1.000000   1.000000
      5        -11.347163      -11.347169   1.000000   1.000000
      6        -11.347163      -11.347169   1.000000   1.000000
      7        -11.308536      -11.308542   1.000000   1.000000
      8        -11.308532      -11.308538   1.000000   1.000000
      9        -11.308151      -11.308157   1.000000   1.000000
     10        -11.308148      -11.308153   1.000000   1.000000
     11        -11.307651      -11.307657   1.000000   1.000000
     12        -11.307644      -11.307650   1.000000   1.000000
     13        -11.300329      -11.300334   1.000000   1.000000
     14        -11.299541      -11.299545   1.000000   1.000000
     15        -11.299537      -11.299542   1.000000   1.000000
     16        -11.280491      -11.280496   1.000000   1.000000
     17        -11.279702      -11.279707   1.000000   1.000000
     18        -11.269653      -11.269658   1.000000   1.000000
     19        -11.269648      -11.269653   1.000000   1.000000
     20        -11.269369      -11.269374   1.000000   1.000000
     21         -9.012715       -9.012716   1.000000   1.000000
     22         -6.886974       -6.886973   1.000000   1.000000
     23         -6.750348       -6.750347   1.000000   1.000000
     24         -6.750347       -6.750347   1.000000   1.000000
     25         -3.259778       -3.259779   1.000000   1.000000
     26         -3.259778       -3.259778   1.000000   1.000000
     27         -3.091717       -3.091718   1.000000   1.000000
     28          0.703241        0.703240   1.000000   1.000000
     29          0.703241        0.703240   1.000000   1.000000
     30          0.726671        0.726670   1.000000   1.000000
     31          0.726671        0.726670   1.000000   1.000000
     32          0.865364        0.865364   1.000000   1.000000
     33          0.865364        0.865364   1.000000   1.000000
     34          2.424538        2.424538   1.000000   1.000000
     35          3.193536        3.193540   1.000000   1.000000
     36          3.193536        3.193540   1.000000   1.000000
     37          4.332083        4.332083  -0.000000  -0.000000
     38          4.730286        4.730272   0.000000   0.000000
     39          5.012814        5.012802   0.000000   0.000000
     40          5.012814        5.012802   0.000000   0.000000
     41          5.112095        5.112080   0.000000   0.000000
     42          5.169592        5.169577   0.000000   0.000000
     43          5.169592        5.169577   0.000000   0.000000
     44          6.842253        6.842241   0.000000   0.000000
     45          7.220997        7.220987   0.000000   0.000000
     46          7.220997        7.220987   0.000000   0.000000
     47         10.857700       10.857674   0.000000   0.000000
     48         12.592866       12.593446   0.000000   0.000000
     49         12.598711       12.597635   0.000000   0.000000
     50         12.614818       12.608607   0.000000   0.000000
     51         12.647502       12.637338   0.000000   0.000000
     52         12.707081       12.714959   0.000000   0.000000

  0.1262379E-14  0.1111111E+00  0.1262379E-14  0.2743484E-02
      1        -11.441684      -11.441689   1.000000   1.000000
      2        -11.441684      -11.441689   1.000000   1.000000
      3        -11.440588      -11.440593   1.000000   1.000000
      4        -11.352071      -11.352077   1.000000   1.000000
      5        -11.347163      -11.347169   1.000000   1.000000
      6        -11.347163      -11.347169   1.000000   1.000000
      7        -11.308536      -11.308542   1.000000   1.000000
      8        -11.308532      -11.308538   1.000000   1.000000
      9        -11.308151      -11.308157   1.000000   1.000000
     10        -11.308148      -11.308153   1.000000   1.000000
     11        -11.307653      -11.307659   1.000000   1.000000
     12        -11.307642      -11.307648   1.000000   1.000000
     13        -11.300329      -11.300334   1.000000   1.000000
     14        -11.299541      -11.299546   1.000000   1.000000
     15        -11.299537      -11.299542   1.000000   1.000000
     16        -11.280491      -11.280496   1.000000   1.000000
     17        -11.279702      -11.279707   1.000000   1.000000
     18        -11.269654      -11.269659   1.000000   1.000000
     19        -11.269647      -11.269652   1.000000   1.000000
     20        -11.269369      -11.269374   1.000000   1.000000
     21         -9.012715       -9.012716   1.000000   1.000000
     22         -6.886974       -6.886973   1.000000   1.000000
     23         -6.750348       -6.750347   1.000000   1.000000
     24         -6.750347       -6.750347   1.000000   1.000000
     25         -3.259778       -3.259779   1.000000   1.000000
     26         -3.259778       -3.259779   1.000000   1.000000
     27         -3.091717       -3.091718   1.000000   1.000000
     28          0.703241        0.703240   1.000000   1.000000
     29          0.703241        0.703240   1.000000   1.000000
     30          0.726671        0.726670   1.000000   1.000000
     31          0.726671        0.726670   1.000000   1.000000
     32          0.865364        0.865364   1.000000   1.000000
     33          0.865364        0.865364   1.000000   1.000000
     34          2.424538        2.424538   1.000000   1.000000
     35          3.193536        3.193540   1.000000   1.000000
     36          3.193536        3.193540   1.000000   1.000000
     37          4.332083        4.332083  -0.000000  -0.000000
     38          4.730286        4.730272   0.000000   0.000000
     39          5.012814        5.012802   0.000000   0.000000
     40          5.012814        5.012802   0.000000   0.000000
     41          5.112095        5.112080   0.000000   0.000000
     42          5.169592        5.169577   0.000000   0.000000
     43          5.169592        5.169578   0.000000   0.000000
     44          6.842253        6.842241   0.000000   0.000000
     45          7.220997        7.220987   0.000000   0.000000
     46          7.220997        7.220987   0.000000   0.000000
     47         10.857700       10.857674   0.000000   0.000000
     48         12.592799       12.594379   0.000000   0.000000
     49         12.600582       12.598348   0.000000   0.000000
     50         12.605267       12.608161   0.000000   0.000000
     51         12.631373       12.647024   0.000000   0.000000
     52         12.671804       12.687975   0.000000   0.000000

  0.1262379E-14  0.1262379E-14  0.1111111E+00  0.2743484E-02
      1        -11.441684      -11.441689   1.000000   1.000000
      2        -11.441684      -11.441689   1.000000   1.000000
      3        -11.440589      -11.440593   1.000000   1.000000
      4        -11.352071      -11.352077   1.000000   1.000000
      5        -11.347163      -11.347169   1.000000   1.000000
      6        -11.347163      -11.347169   1.000000   1.000000
      7        -11.308533      -11.308538   1.000000   1.000000
      8        -11.308532      -11.308538   1.000000   1.000000
      9        -11.308151      -11.308157   1.000000   1.000000
     10        -11.308151      -11.308157   1.000000   1.000000
     11        -11.307680      -11.307685   1.000000   1.000000
     12        -11.307615      -11.307621   1.000000   1.000000
     13        -11.300329      -11.300334   1.000000   1.000000
     14        -11.299553      -11.299558   1.000000   1.000000
     15        -11.299525      -11.299530   1.000000   1.000000
     16        -11.280491      -11.280496   1.000000   1.000000
     17        -11.279702      -11.279707   1.000000   1.000000
     18        -11.269670      -11.269675   1.000000   1.000000
     19        -11.269630      -11.269635   1.000000   1.000000
     20        -11.269370      -11.269375   1.000000   1.000000
     21         -9.012715       -9.012716   1.000000   1.000000
     22         -6.886974       -6.886973   1.000000   1.000000
     23         -6.750348       -6.750347   1.000000   1.000000
     24         -6.750347       -6.750347   1.000000   1.000000
     25         -3.259786       -3.259786   1.000000   1.000000
     26         -3.259770       -3.259771   1.000000   1.000000
     27         -3.091717       -3.091718   1.000000   1.000000
     28          0.703237        0.703237   1.000000   1.000000
     29          0.703245        0.703243   1.000000   1.000000
     30          0.726671        0.726670   1.000000   1.000000
     31          0.726671        0.726670   1.000000   1.000000
     32          0.865364        0.865364   1.000000   1.000000
     33          0.865364        0.865364   1.000000   1.000000
     34          2.424538        2.424538   1.000000   1.000000
     35          3.193536        3.193540   1.000000   1.000000
     36          3.193536        3.193540   1.000000   1.000000
     37          4.332083        4.332083  -0.000000  -0.000000
     38          4.730286        4.730272   0.000000   0.000000
     39          5.012814        5.012802   0.000000   0.000000
     40          5.012814        5.012802   0.000000   0.000000
     41          5.112095        5.112080   0.000000   0.000000
     42          5.169590        5.169575   0.000000   0.000000
     43          5.169594        5.169579   0.000000   0.000000
     44          6.842253        6.842241   0.000000   0.000000
     45          7.220997        7.220987   0.000000   0.000000
     46          7.220997        7.220987   0.000000   0.000000
     47         10.857700       10.857674   0.000000   0.000000
     48         12.593414       12.592672   0.000000   0.000000
     49         12.598181       12.597509   0.000000   0.000000
     50         12.605956       12.607284   0.000000   0.000000
     51         12.634955       12.633926   0.000000   0.000000
     52         12.687871       12.678474   0.000000   0.000000

  0.2222222E+00  0.1262379E-14  0.1262379E-14  0.2743484E-02
      1        -11.438483      -11.438488   1.000000   1.000000
      2        -11.438483      -11.438488   1.000000   1.000000
      3        -11.433836      -11.433841   1.000000   1.000000
      4        -11.362271      -11.362276   1.000000   1.000000
      5        -11.343689      -11.343695   1.000000   1.000000
      6        -11.343689      -11.343694   1.000000   1.000000
      7        -11.312940      -11.312945   1.000000   1.000000
      8        -11.312938      -11.312944   1.000000   1.000000
      9        -11.311887      -11.311892   1.000000   1.000000
     10        -11.311885      -11.311891   1.000000   1.000000
     11        -11.308893      -11.308899   1.000000   1.000000
     12        -11.308886      -11.308892   1.000000   1.000000
     13        -11.298253      -11.298258   1.000000   1.000000
     14        -11.296277      -11.296282   1.000000   1.000000
     15        -11.296274      -11.296279   1.000000   1.000000
     16        -11.281928      -11.281933   1.000000   1.000000
     17        -11.278750      -11.278755   1.000000   1.000000
     18        -11.271365      -11.271370   1.000000   1.000000
     19        -11.271359      -11.271364   1.000000   1.000000
     20        -11.270319      -11.270324   1.000000   1.000000
     21         -8.878262       -8.878263   1.000000   1.000000
     22         -7.210145       -7.210145   1.000000   1.000000
     23         -6.736186       -6.736185   1.000000   1.000000
     24         -6.736186       -6.736185   1.000000   1.000000
     25         -3.212229       -3.212229   1.000000   1.000000
     26         -3.212228       -3.212228   1.000000   1.000000
     27         -2.604286       -2.604287   1.000000   1.000000
     28          0.443264        0.443261   1.000000   1.000000
     29          0.443264        0.443261   1.000000   1.000000
     30          0.523155        0.523153   1.000000   1.000000
     31          0.523155        0.523153   1.000000   1.000000
     32          1.009726        1.009726   1.000000   1.000000
     33          1.009726        1.009726   1.000000   1.000000
     34          1.483104        1.483104   1.000000   1.000000
     35          2.834192        2.834195   1.000000   1.000000
     36          2.834192        2.834195   1.000000   1.000000
     37          4.747045        4.747031   0.000000   0.000000
     38          5.208913        5.208913   0.000000   0.000000
     39          5.452762        5.452749   0.000000   0.000000
     40          5.632642        5.632631   0.000000   0.000000
     41          5.632642        5.632631   0.000000   0.000000
     42          5.789185        5.789174   0.000000   0.000000
     43          5.789186        5.789174   0.000000   0.000000
     44          6.457085        6.457071   0.000000   0.000000
     45          7.750974        7.750965   0.000000   0.000000
     46          7.750974        7.750965   0.000000   0.000000
     47         11.404412       11.404388   0.000000   0.000000
     48         11.485672       11.485649   0.000000   0.000000
     49         11.485788       11.485728   0.000000   0.000000
     50         11.645554       11.645574   0.000000   0.000000
     51         11.647079       11.646065   0.000000   0.000000
     52         11.712387       11.712789   0.000000   0.000000

  0.1262379E-14  0.2222222E+00  0.1262379E-14  0.2743484E-02
      1        -11.438483      -11.438488   1.000000   1.000000
      2        -11.438483      -11.438488   1.000000   1.000000
      3        -11.433836      -11.433841   1.000000   1.000000
      4        -11.362271      -11.362276   1.000000   1.000000
      5        -11.343689      -11.343695   1.000000   1.000000
      6        -11.343689      -11.343694   1.000000   1.000000
      7        -11.312940      -11.312945   1.000000   1.000000
      8        -11.312938      -11.312944   1.000000   1.000000
      9        -11.311887      -11.311892   1.000000   1.000000
     10        -11.311885      -11.311891   1.000000   1.000000
     11        -11.308894      -11.308900   1.000000   1.000000
     12        -11.308885      -11.308890   1.000000   1.000000
     13        -11.298253      -11.298258   1.000000   1.000000
     14        -11.296277      -11.296282   1.000000   1.000000
     15        -11.296273      -11.296278   1.000000   1.000000
     16        -11.281928      -11.281933   1.000000   1.000000
     17        -11.278750      -11.278755   1.000000   1.000000
     18        -11.271366      -11.271371   1.000000   1.000000
     19        -11.271358      -11.271363   1.000000   1.000000
     20        -11.270319      -11.270324   1.000000   1.000000
     21         -8.878262       -8.878263   1.000000   1.000000
     22         -7.210145       -7.210145   1.000000   1.000000
     23         -6.736186       -6.736185   1.000000   1.000000
     24         -6.736186       -6.736185   1.000000   1.000000
     25         -3.212229       -3.212229   1.000000   1.000000
     26         -3.212228       -3.212229   1.000000   1.000000
     27         -2.604286       -2.604287   1.000000   1.000000
     28          0.443264        0.443261   1.000000   1.000000
     29          0.443264        0.443261   1.000000   1.000000
     30          0.523155        0.523153   1.000000   1.000000
     31          0.523155        0.523153   1.000000   1.000000
     32          1.009726        1.009726   1.000000   1.000000
     33          1.009726        1.009726   1.000000   1.000000
     34          1.483104        1.483104   1.000000   1.000000
     35          2.834192        2.834195   1.000000   1.000000
     36          2.834192        2.834195   1.000000   1.000000
     37          4.747045        4.747031   0.000000   0.000000
     38          5.208913        5.208913   0.000000   0.000000
     39          5.452762        5.452749   0.000000   0.000000
     40          5.632642        5.632631   0.000000   0.000000
     41          5.632642        5.632631   0.000000   0.000000
     42          5.789185        5.789174   0.000000   0.000000
     43          5.789186        5.789174   0.000000   0.000000
     44          6.457085        6.457071   0.000000   0.000000
     45          7.750974        7.750965   0.000000   0.000000
     46          7.750974        7.750965   0.000000   0.000000
     47         11.404414       11.404388   0.000000   0.000000
     48         11.485681       11.485648   0.000000   0.000000
     49         11.485720       11.485679   0.000000   0.000000
     50         11.645937       11.645566   0.000000   0.000000
     51         11.648213       11.646931   0.000000   0.000000
     52         11.712283       11.712875   0.000000   0.000000

  0.1262379E-14  0.1262379E-14  0.2222222E+00  0.2743484E-02
      1        -11.438483      -11.438488   1.000000   1.000000
      2        -11.438483      -11.438488   1.000000   1.000000
      3        -11.433836      -11.433841   1.000000   1.000000
      4        -11.362271      -11.362276   1.000000   1.000000
      5        -11.343689      -11.343695   1.000000   1.000000
      6        -11.343689      -11.343695   1.000000   1.000000
      7        -11.312938      -11.312944   1.000000   1.000000
      8        -11.312938      -11.312944   1.000000   1.000000
      9        -11.311886      -11.311892   1.000000   1.000000
     10        -11.311886      -11.311892   1.000000   1.000000
     11        -11.308918      -11.308923   1.000000   1.000000
     12        -11.308862      -11.308868   1.000000   1.000000
     13        -11.298253      -11.298258   1.000000   1.000000
     14        -11.296287      -11.296293   1.000000   1.000000
     15        -11.296263      -11.296268   1.000000   1.000000
     16        -11.281928      -11.281933   1.000000   1.000000
     17        -11.278750      -11.278755   1.000000   1.000000
     18        -11.271385      -11.271390   1.000000   1.000000
     19        -11.271339      -11.271344   1.000000   1.000000
     20        -11.270319      -11.270324   1.000000   1.000000
     21         -8.878262       -8.878263   1.000000   1.000000
     22         -7.210145       -7.210145   1.000000   1.000000
     23         -6.736186       -6.736185   1.000000   1.000000
     24         -6.736186       -6.736185   1.000000   1.000000
     25         -3.212236       -3.212236   1.000000   1.000000
     26         -3.212221       -3.212221   1.000000   1.000000
     27         -2.604286       -2.604287   1.000000   1.000000
     28          0.443261        0.443258   1.000000   1.000000
     29          0.443267        0.443264   1.000000   1.000000
     30          0.523155        0.523153   1.000000   1.000000
     31          0.523155        0.523153   1.000000   1.000000
     32          1.009726        1.009726   1.000000   1.000000
     33          1.009726        1.009726   1.000000   1.000000
     34          1.483104        1.483104   1.000000   1.000000
     35          2.834192        2.834195   1.000000   1.000000
     36          2.834192        2.834195   1.000000   1.000000
     37          4.747045        4.747031   0.000000   0.000000
     38          5.208913        5.208913   0.000000   0.000000
     39          5.452762        5.452749   0.000000   0.000000
     40          5.632642        5.632631   0.000000   0.000000
     41          5.632642        5.632631   0.000000   0.000000
     42          5.789183        5.789171   0.000000   0.000000
     43          5.789188        5.789176   0.000000   0.000000
     44          6.457085        6.457071   0.000000   0.000000
     45          7.750974        7.750965   0.000000   0.000000
     46          7.750974        7.750965   0.000000   0.000000
     47         11.404412       11.404388   0.000000   0.000000
     48         11.485659       11.485648   0.000000   0.000000
     49         11.485691       11.485713   0.000000   0.000000
     50         11.645567       11.645575   0.000000   0.000000
     51         11.647422       11.646827   0.000000   0.000000
     52         11.712805       11.712242   0.000000   0.000000

  0.3333333E+00  0.1262379E-14  0.1262379E-14  0.2743484E-02
      1        -11.434564      -11.434569   1.000000   1.000000
      2        -11.434564      -11.434569   1.000000   1.000000
      3        -11.423082      -11.423088   1.000000   1.000000
      4        -11.376790      -11.376795   1.000000   1.000000
      5        -11.338316      -11.338322   1.000000   1.000000
      6        -11.338316      -11.338321   1.000000   1.000000
      7        -11.318238      -11.318243   1.000000   1.000000
      8        -11.318236      -11.318241   1.000000   1.000000
      9        -11.317559      -11.317564   1.000000   1.000000
     10        -11.317557      -11.317562   1.000000   1.000000
     11        -11.309806      -11.309812   1.000000   1.000000
     12        -11.309800      -11.309806   1.000000   1.000000
     13        -11.295134      -11.295139   1.000000   1.000000
     14        -11.292579      -11.292584   1.000000   1.000000
     15        -11.292576      -11.292581   1.000000   1.000000
     16        -11.284392      -11.284396   1.000000   1.000000
     17        -11.277284      -11.277289   1.000000   1.000000
     18        -11.273822      -11.273827   1.000000   1.000000
     19        -11.273816      -11.273821   1.000000   1.000000
     20        -11.271785      -11.271789   1.000000   1.000000
     21         -8.659618       -8.659619   1.000000   1.000000
     22         -7.609139       -7.609140   1.000000   1.000000
     23         -6.719905       -6.719905   1.000000   1.000000
     24         -6.719905       -6.719905   1.000000   1.000000
     25         -3.154162       -3.154162   1.000000   1.000000
     26         -3.154161       -3.154161   1.000000   1.000000
     27         -1.933475       -1.933476   1.000000   1.000000
     28          0.180231        0.180227   1.000000   1.000000
     29          0.180231        0.180227   1.000000   1.000000
     30          0.322822        0.322820   1.000000   1.000000
     31          0.322822        0.322820   1.000000   1.000000
     32          0.566673        0.566672   1.000000   1.000000
     33          1.245746        1.245746   1.000000   1.000000
     34          1.245746        1.245746   1.000000   1.000000
     35          2.393573        2.393575   1.000000   1.000000
     36          2.393573        2.393575   1.000000   1.000000
     37          4.877249        4.877235   0.000000   0.000000
     38          5.708999        5.708995   0.000000   0.000000
     39          5.874780        5.874769   0.000000   0.000000
     40          6.229933        6.229920   0.000000   0.000000
     41          6.522540        6.522530   0.000000   0.000000
     42          6.522540        6.522530   0.000000   0.000000
     43          6.641601        6.641593   0.000000   0.000000
     44          6.641601        6.641593   0.000000   0.000000
     45          8.472421        8.472413   0.000000   0.000000
     46          8.472421        8.472413   0.000000   0.000000
     47         10.184246       10.184236   0.000000   0.000000
     48         10.184246       10.184236   0.000000   0.000000
     49         10.492801       10.492784   0.000000   0.000000
     50         10.492803       10.492785   0.000000   0.000000
     51         10.680341       10.680328   0.000000   0.000000
     52         11.077003       11.077025   0.000000   0.000000

  0.1262379E-14  0.3333333E+00  0.1262379E-14  0.2743484E-02
      1        -11.434564      -11.434569   1.000000   1.000000
      2        -11.434564      -11.434568   1.000000   1.000000
      3        -11.423082      -11.423088   1.000000   1.000000
      4        -11.376790      -11.376795   1.000000   1.000000
      5        -11.338316      -11.338322   1.000000   1.000000
      6        -11.338316      -11.338321   1.000000   1.000000
      7        -11.318238      -11.318243   1.000000   1.000000
      8        -11.318235      -11.318241   1.000000   1.000000
      9        -11.317559      -11.317564   1.000000   1.000000
     10        -11.317557      -11.317562   1.000000   1.000000
     11        -11.309808      -11.309814   1.000000   1.000000
     12        -11.309799      -11.309804   1.000000   1.000000
     13        -11.295134      -11.295139   1.000000   1.000000
     14        -11.292580      -11.292585   1.000000   1.000000
     15        -11.292575      -11.292580   1.000000   1.000000
     16        -11.284392      -11.284396   1.000000   1.000000
     17        -11.277284      -11.277289   1.000000   1.000000
     18        -11.273824      -11.273829   1.000000   1.000000
     19        -11.273814      -11.273819   1.000000   1.000000
     20        -11.271785      -11.271789   1.000000   1.000000
     21         -8.659618       -8.659619   1.000000   1.000000
     22         -7.609139       -7.609140   1.000000   1.000000
     23         -6.719905       -6.719905   1.000000   1.000000
     24         -6.719905       -6.719905   1.000000   1.000000
     25         -3.154162       -3.154162   1.000000   1.000000
     26         -3.154162       -3.154162   1.000000   1.000000
     27         -1.933475       -1.933476   1.000000   1.000000
     28          0.180231        0.180227   1.000000   1.000000
     29          0.180231        0.180227   1.000000   1.000000
     30          0.322822        0.322820   1.000000   1.000000
     31          0.322822        0.322820   1.000000   1.000000
     32          0.566673        0.566672   1.000000   1.000000
     33          1.245746        1.245746   1.000000   1.000000
     34          1.245746        1.245746   1.000000   1.000000
     35          2.393573        2.393575   1.000000   1.000000
     36          2.393573        2.393575   1.000000   1.000000
     37          4.877249        4.877235   0.000000   0.000000
     38          5.708999        5.708995   0.000000   0.000000
     39          5.874780        5.874769   0.000000   0.000000
     40          6.229933        6.229920   0.000000   0.000000
     41          6.522540        6.522530   0.000000   0.000000