Automatically generated mesh
     365
Reciprocal lattice
    0.00000000000000    0.00000000000000    0.00000000000000             1
    0.11111111111112    0.00000000000000    0.00000000000000             2
    0.00000000000000    0.11111111111112    0.00000000000000             2
    0.00000000000000    0.00000000000000    0.11111111111112             2
    0.22222222222222    0.00000000000000    0.00000000000000             2
    0.00000000000000    0.22222222222222    0.00000000000000             2
    0.00000000000000    0.00000000000000    0.22222222222222             2
    0.33333333333334    0.00000000000000    0.00000000000000             2
    0.00000000000000    0.33333333333334    0.00000000000000             2
    0.00000000000000    0.00000000000000    0.33333333333334             2
    0.44444444444444    0.00000000000000    0.00000000000000             2
    0.00000000000000    0.44444444444444    0.00000000000000             2
    0.00000000000000    0.00000000000000    0.44444444444444             2
    0.11111111111112    0.11111111111112    0.00000000000000             2
    0.00000000000000    0.11111111111112    0.11111111111112             2
    0.11111111111112    0.00000000000000    0.11111111111112             2
   -0.11111111111111    0.11111111111112    0.00000000000000             2
   -0.11111111111111    0.00000000000000    0.11111111111112             2
    0.00000000000000   -0.11111111111111    0.11111111111112             2
    0.22222222222222    0.11111111111112    0.00000000000000             2
    0.00000000000000    0.22222222222222    0.11111111111112             2
    0.11111111111112    0.00000000000000    0.22222222222222             2
   -0.11111111111111    0.22222222222222    0.00000000000000             2
   -0.22222222222222    0.00000000000000    0.11111111111112             2
    0.00000000000000    0.11111111111112    0.22222222222222             2
    0.00000000000000   -0.22222222222222    0.11111111111112             2
   -0.11111111111111    0.00000000000000    0.22222222222222             2
    0.22222222222222    0.00000000000000    0.11111111111112             2
    0.00000000000000   -0.11111111111111    0.22222222222222             2
    0.22222222222222   -0.11111111111111    0.00000000000000             2
    0.11111111111112    0.22222222222222    0.00000000000000             2
    0.33333333333334    0.11111111111112    0.00000000000000             2
    0.00000000000000    0.33333333333334    0.11111111111112             2
    0.11111111111112    0.00000000000000    0.33333333333334             2
   -0.11111111111111    0.33333333333334    0.00000000000000             2
   -0.33333333333333    0.00000000000000    0.11111111111112             2
    0.00000000000000    0.11111111111112    0.33333333333334             2
    0.00000000000000   -0.33333333333333    0.11111111111112             2
   -0.11111111111111    0.00000000000000    0.33333333333334             2
    0.33333333333334    0.00000000000000    0.11111111111112             2
    0.00000000000000   -0.11111111111111    0.33333333333334             2
    0.33333333333334   -0.11111111111111    0.00000000000000             2
    0.11111111111112    0.33333333333334    0.00000000000000             2
    0.44444444444444    0.11111111111112    0.00000000000000             2
    0.00000000000000    0.44444444444444    0.11111111111112             2
    0.11111111111112    0.00000000000000    0.44444444444444             2
   -0.11111111111111    0.44444444444444    0.00000000000000             2
   -0.44444444444444    0.00000000000000    0.11111111111112             2
    0.00000000000000    0.11111111111112    0.44444444444444             2
    0.00000000000000   -0.44444444444444    0.11111111111112             2
   -0.11111111111111    0.00000000000000    0.44444444444444             2
    0.44444444444444    0.00000000000000    0.11111111111112             2
    0.00000000000000   -0.11111111111111    0.44444444444444             2
    0.44444444444444   -0.11111111111111    0.00000000000000             2
    0.11111111111112    0.44444444444444    0.00000000000000             2
    0.22222222222222    0.22222222222222    0.00000000000000             2
    0.00000000000000    0.22222222222222    0.22222222222222             2
    0.22222222222222    0.00000000000000    0.22222222222222             2
   -0.22222222222222    0.22222222222222    0.00000000000000             2
   -0.22222222222222    0.00000000000000    0.22222222222222             2
    0.00000000000000   -0.22222222222222    0.22222222222222             2
    0.33333333333334    0.22222222222222    0.00000000000000             2
    0.00000000000000    0.33333333333334    0.22222222222222             2
    0.22222222222222    0.00000000000000    0.33333333333334             2
   -0.22222222222222    0.33333333333334    0.00000000000000             2
   -0.33333333333333    0.00000000000000    0.22222222222222             2
    0.00000000000000    0.22222222222222    0.33333333333334             2
    0.00000000000000   -0.33333333333333    0.22222222222222             2
   -0.22222222222222    0.00000000000000    0.33333333333334             2
    0.33333333333334    0.00000000000000    0.22222222222222             2
    0.00000000000000   -0.22222222222222    0.33333333333334             2
    0.33333333333334   -0.22222222222222    0.00000000000000             2
    0.22222222222222    0.33333333333334    0.00000000000000             2
    0.44444444444444    0.22222222222222    0.00000000000000             2
    0.00000000000000    0.44444444444444    0.22222222222222             2
    0.22222222222222    0.00000000000000    0.44444444444444             2
   -0.22222222222222    0.44444444444444    0.00000000000000             2
   -0.44444444444444    0.00000000000000    0.22222222222222             2
    0.00000000000000    0.22222222222222    0.44444444444444             2
    0.00000000000000   -0.44444444444444    0.22222222222222             2
   -0.22222222222222    0.00000000000000    0.44444444444444             2
    0.44444444444444    0.00000000000000    0.22222222222222             2
    0.00000000000000   -0.22222222222222    0.44444444444444             2
    0.44444444444444   -0.22222222222222    0.00000000000000             2
    0.22222222222222    0.44444444444444    0.00000000000000             2
    0.33333333333334    0.33333333333334    0.00000000000000             2
    0.00000000000000    0.33333333333334    0.33333333333334             2
    0.33333333333334    0.00000000000000    0.33333333333334             2
   -0.33333333333333    0.33333333333334    0.00000000000000             2
   -0.33333333333333    0.00000000000000    0.33333333333334             2
    0.00000000000000   -0.33333333333333    0.33333333333334             2
    0.44444444444444    0.33333333333334    0.00000000000000             2
    0.00000000000000    0.44444444444444    0.33333333333334             2
    0.33333333333334    0.00000000000000    0.44444444444444             2
   -0.33333333333333    0.44444444444444    0.00000000000000             2
   -0.44444444444444    0.00000000000000    0.33333333333334             2
    0.00000000000000    0.33333333333334    0.44444444444444             2
    0.00000000000000   -0.44444444444444    0.33333333333334             2
   -0.33333333333333    0.00000000000000    0.44444444444444             2
    0.44444444444444    0.00000000000000    0.33333333333334             2
    0.00000000000000   -0.33333333333333    0.44444444444444             2
    0.44444444444444   -0.33333333333333    0.00000000000000             2
    0.33333333333334    0.44444444444444    0.00000000000000             2
    0.44444444444444    0.44444444444444    0.00000000000000             2
    0.00000000000000    0.44444444444444    0.44444444444444             2
    0.44444444444444    0.00000000000000    0.44444444444444             2
   -0.44444444444444    0.44444444444444    0.00000000000000             2
   -0.44444444444444    0.00000000000000    0.44444444444444             2
    0.00000000000000   -0.44444444444444    0.44444444444444             2
    0.11111111111112    0.11111111111112    0.11111111111112             2
   -0.11111111111111    0.11111111111112    0.11111111111112             2
   -0.11111111111111   -0.11111111111111    0.11111111111112             2
    0.11111111111112   -0.11111111111111    0.11111111111112             2
    0.22222222222222    0.11111111111112    0.11111111111112             2
    0.11111111111112    0.22222222222222    0.11111111111112             2
    0.11111111111112    0.11111111111112    0.22222222222222             2
   -0.11111111111111    0.22222222222222    0.11111111111112             2
   -0.22222222222222    0.11111111111112    0.11111111111112             2
   -0.11111111111111    0.11111111111112    0.22222222222222             2
   -0.22222222222222   -0.11111111111111    0.11111111111112             2
   -0.11111111111111   -0.22222222222222    0.11111111111112             2
   -0.11111111111111   -0.11111111111111    0.22222222222222             2
    0.11111111111112   -0.22222222222222    0.11111111111112             2
    0.22222222222222   -0.11111111111111    0.11111111111112             2
    0.11111111111112   -0.11111111111111    0.22222222222222             2
    0.33333333333334    0.11111111111112    0.11111111111112             2
    0.11111111111112    0.33333333333334    0.11111111111112             2
    0.11111111111112    0.11111111111112    0.33333333333334             2
   -0.11111111111111    0.33333333333334    0.11111111111112             2
   -0.33333333333333    0.11111111111112    0.11111111111112             2
   -0.11111111111111    0.11111111111112    0.33333333333334             2
   -0.33333333333333   -0.11111111111111    0.11111111111112             2
   -0.11111111111111   -0.33333333333333    0.11111111111112             2
   -0.11111111111111   -0.11111111111111    0.33333333333334             2
    0.11111111111112   -0.33333333333333    0.11111111111112             2
    0.33333333333334   -0.11111111111111    0.11111111111112             2
    0.11111111111112   -0.11111111111111    0.33333333333334             2
    0.44444444444444    0.11111111111112    0.11111111111112             2
    0.11111111111112    0.44444444444444    0.11111111111112             2
    0.11111111111112    0.11111111111112    0.44444444444444             2
   -0.11111111111111    0.44444444444444    0.11111111111112             2
   -0.44444444444444    0.11111111111112    0.11111111111112             2
   -0.11111111111111    0.11111111111112    0.44444444444444             2
   -0.44444444444444   -0.11111111111111    0.11111111111112             2
   -0.11111111111111   -0.44444444444444    0.11111111111112             2
   -0.11111111111111   -0.11111111111111    0.44444444444444             2
    0.11111111111112   -0.44444444444444    0.11111111111112             2
    0.44444444444444   -0.11111111111111    0.11111111111112             2
    0.11111111111112   -0.11111111111111    0.44444444444444             2
    0.22222222222222    0.22222222222222    0.11111111111112             2
    0.11111111111112    0.22222222222222    0.22222222222222             2
    0.22222222222222    0.11111111111112    0.22222222222222             2
   -0.22222222222222    0.22222222222222    0.11111111111112             2
   -0.22222222222222    0.11111111111112    0.22222222222222             2
   -0.11111111111111    0.22222222222222    0.22222222222222             2
   -0.22222222222222   -0.22222222222222    0.11111111111112             2
   -0.11111111111111   -0.22222222222222    0.22222222222222             2
   -0.22222222222222   -0.11111111111111    0.22222222222222             2
    0.22222222222222   -0.22222222222222    0.11111111111112             2
    0.22222222222222   -0.11111111111111    0.22222222222222             2
    0.11111111111112   -0.22222222222222    0.22222222222222             2
    0.33333333333334    0.22222222222222    0.11111111111112             2
    0.11111111111112    0.33333333333334    0.22222222222222             2
    0.22222222222222    0.11111111111112    0.33333333333334             2
   -0.22222222222222    0.33333333333334    0.11111111111112             2
   -0.33333333333333    0.11111111111112    0.22222222222222             2
   -0.11111111111111    0.22222222222222    0.33333333333334             2
   -0.33333333333333   -0.22222222222222    0.11111111111112             2
   -0.11111111111111   -0.33333333333333    0.22222222222222             2
   -0.22222222222222   -0.11111111111111    0.33333333333334             2
    0.22222222222222   -0.33333333333333    0.11111111111112             2
    0.33333333333334   -0.11111111111111    0.22222222222222             2
    0.11111111111112   -0.22222222222222    0.33333333333334             2
    0.11111111111112   -0.33333333333333   -0.22222222222222             2
    0.22222222222222   -0.11111111111111   -0.33333333333333             2
    0.33333333333334   -0.22222222222222   -0.11111111111111             2
    0.11111111111112    0.22222222222222   -0.33333333333333             2
    0.22222222222222    0.33333333333334   -0.11111111111111             2
    0.33333333333334    0.11111111111112   -0.22222222222222             2
   -0.22222222222222    0.11111111111112   -0.33333333333333             2
   -0.33333333333333    0.22222222222222   -0.11111111111111             2
   -0.11111111111111    0.33333333333334   -0.22222222222222             2
   -0.33333333333333   -0.11111111111111   -0.22222222222222             2
   -0.22222222222222   -0.33333333333333   -0.11111111111111             2
   -0.11111111111111   -0.22222222222222   -0.33333333333333             2
    0.44444444444444    0.22222222222222    0.11111111111112             2
    0.11111111111112    0.44444444444444    0.22222222222222             2
    0.22222222222222    0.11111111111112    0.44444444444444             2
   -0.22222222222222    0.44444444444444    0.11111111111112             2
   -0.44444444444444    0.11111111111112    0.22222222222222             2
   -0.11111111111111    0.22222222222222    0.44444444444444             2
   -0.44444444444444   -0.22222222222222    0.11111111111112             2
   -0.11111111111111   -0.44444444444444    0.22222222222222             2
   -0.22222222222222   -0.11111111111111    0.44444444444444             2
    0.22222222222222   -0.44444444444444    0.11111111111112             2
    0.44444444444444   -0.11111111111111    0.22222222222222             2
    0.11111111111112   -0.22222222222222    0.44444444444444             2
    0.11111111111112   -0.44444444444444   -0.22222222222222             2
    0.22222222222222   -0.11111111111111   -0.44444444444444             2
    0.44444444444444   -0.22222222222222   -0.11111111111111             2
    0.11111111111112    0.22222222222222   -0.44444444444444             2
    0.22222222222222    0.44444444444444   -0.11111111111111             2
    0.44444444444444    0.11111111111112   -0.22222222222222             2
   -0.22222222222222    0.11111111111112   -0.44444444444444             2
   -0.44444444444444    0.22222222222222   -0.11111111111111             2
   -0.11111111111111    0.44444444444444   -0.22222222222222             2
   -0.44444444444444   -0.11111111111111   -0.22222222222222             2
   -0.22222222222222   -0.44444444444444   -0.11111111111111             2
   -0.11111111111111   -0.22222222222222   -0.44444444444444             2
    0.33333333333334    0.33333333333334    0.11111111111112             2
    0.11111111111112    0.33333333333334    0.33333333333334             2
    0.33333333333334    0.11111111111112    0.33333333333334             2
   -0.33333333333333    0.33333333333334    0.11111111111112             2
   -0.33333333333333    0.11111111111112    0.33333333333334             2
   -0.11111111111111    0.33333333333334    0.33333333333334             2
   -0.33333333333333   -0.33333333333333    0.11111111111112             2
   -0.11111111111111   -0.33333333333333    0.33333333333334             2
   -0.33333333333333   -0.11111111111111    0.33333333333334             2
    0.33333333333334   -0.33333333333333    0.11111111111112             2
    0.33333333333334   -0.11111111111111    0.33333333333334             2
    0.11111111111112   -0.33333333333333    0.33333333333334             2
    0.44444444444444    0.33333333333334    0.11111111111112             2
    0.11111111111112    0.44444444444444    0.33333333333334             2
    0.33333333333334    0.11111111111112    0.44444444444444             2
   -0.33333333333333    0.44444444444444    0.11111111111112             2
   -0.44444444444444    0.11111111111112    0.33333333333334             2
   -0.11111111111111    0.33333333333334    0.44444444444444             2
   -0.44444444444444   -0.33333333333333    0.11111111111112             2
   -0.11111111111111   -0.44444444444444    0.33333333333334             2
   -0.33333333333333   -0.11111111111111    0.44444444444444             2
    0.33333333333334   -0.44444444444444    0.11111111111112             2
    0.44444444444444   -0.11111111111111    0.33333333333334             2
    0.11111111111112   -0.33333333333333    0.44444444444444             2
    0.11111111111112   -0.44444444444444   -0.33333333333333             2
    0.33333333333334   -0.11111111111111   -0.44444444444444             2
    0.44444444444444   -0.33333333333333   -0.11111111111111             2
    0.11111111111112    0.33333333333334   -0.44444444444444             2
    0.33333333333334    0.44444444444444   -0.11111111111111             2
    0.44444444444444    0.11111111111112   -0.33333333333333             2
   -0.33333333333333    0.11111111111112   -0.44444444444444             2
   -0.44444444444444    0.33333333333334   -0.11111111111111             2
   -0.11111111111111    0.44444444444444   -0.33333333333333             2
   -0.44444444444444   -0.11111111111111   -0.33333333333333             2
   -0.33333333333333   -0.44444444444444   -0.11111111111111             2
   -0.11111111111111   -0.33333333333333   -0.44444444444444             2
    0.44444444444444    0.44444444444444    0.11111111111112             2
    0.11111111111112    0.44444444444444    0.44444444444444             2
    0.44444444444444    0.11111111111112    0.44444444444444             2
   -0.44444444444444    0.44444444444444    0.11111111111112             2
   -0.44444444444444    0.11111111111112    0.44444444444444             2
   -0.11111111111111    0.44444444444444    0.44444444444444             2
   -0.44444444444444   -0.44444444444444    0.11111111111112             2
   -0.11111111111111   -0.44444444444444    0.44444444444444             2
   -0.44444444444444   -0.11111111111111    0.44444444444444             2
    0.44444444444444   -0.44444444444444    0.11111111111112             2
    0.44444444444444   -0.11111111111111    0.44444444444444             2
    0.11111111111112   -0.44444444444444    0.44444444444444             2
    0.22222222222222    0.22222222222222    0.22222222222222             2
   -0.22222222222222    0.22222222222222    0.22222222222222             2
   -0.22222222222222   -0.22222222222222    0.22222222222222             2
    0.22222222222222   -0.22222222222222    0.22222222222222             2
    0.33333333333334    0.22222222222222    0.22222222222222             2
    0.22222222222222    0.33333333333334    0.22222222222222             2
    0.22222222222222    0.22222222222222    0.33333333333334             2
   -0.22222222222222    0.33333333333334    0.22222222222222             2
   -0.33333333333333    0.22222222222222    0.22222222222222             2
   -0.22222222222222    0.22222222222222    0.33333333333334             2
   -0.33333333333333   -0.22222222222222    0.22222222222222             2
   -0.22222222222222   -0.33333333333333    0.22222222222222             2
   -0.22222222222222   -0.22222222222222    0.33333333333334             2
    0.22222222222222   -0.33333333333333    0.22222222222222             2
    0.33333333333334   -0.22222222222222    0.22222222222222             2
    0.22222222222222   -0.22222222222222    0.33333333333334             2
    0.44444444444444    0.22222222222222    0.22222222222222             2
    0.22222222222222    0.44444444444444    0.22222222222222             2
    0.22222222222222    0.22222222222222    0.44444444444444             2
   -0.22222222222222    0.44444444444444    0.22222222222222             2
   -0.44444444444444    0.22222222222222    0.22222222222222             2
   -0.22222222222222    0.22222222222222    0.44444444444444             2
   -0.44444444444444   -0.22222222222222    0.22222222222222             2
   -0.22222222222222   -0.44444444444444    0.22222222222222             2
   -0.22222222222222   -0.22222222222222    0.44444444444444             2
    0.22222222222222   -0.44444444444444    0.22222222222222             2
    0.44444444444444   -0.22222222222222    0.22222222222222             2
    0.22222222222222   -0.22222222222222    0.44444444444444             2
    0.33333333333334    0.33333333333334    0.22222222222222             2
    0.22222222222222    0.33333333333334    0.33333333333334             2
    0.33333333333334    0.22222222222222    0.33333333333334             2
   -0.33333333333333    0.33333333333334    0.22222222222222             2
   -0.33333333333333    0.22222222222222    0.33333333333334             2
   -0.22222222222222    0.33333333333334    0.33333333333334             2
   -0.33333333333333   -0.33333333333333    0.22222222222222             2
   -0.22222222222222   -0.33333333333333    0.33333333333334             2
   -0.33333333333333   -0.22222222222222    0.33333333333334             2
    0.33333333333334   -0.33333333333333    0.22222222222222             2
    0.33333333333334   -0.22222222222222    0.33333333333334             2
    0.22222222222222   -0.33333333333333    0.33333333333334             2
    0.44444444444444    0.33333333333334    0.22222222222222             2
    0.22222222222222    0.44444444444444    0.33333333333334             2
    0.33333333333334    0.22222222222222    0.44444444444444             2
   -0.33333333333333    0.44444444444444    0.22222222222222             2
   -0.44444444444444    0.22222222222222    0.33333333333334             2
   -0.22222222222222    0.33333333333334    0.44444444444444             2
   -0.44444444444444   -0.33333333333333    0.22222222222222             2
   -0.22222222222222   -0.44444444444444    0.33333333333334             2
   -0.33333333333333   -0.22222222222222    0.44444444444444             2
    0.33333333333334   -0.44444444444444    0.22222222222222             2
    0.44444444444444   -0.22222222222222    0.33333333333334             2
    0.22222222222222   -0.33333333333333    0.44444444444444             2
    0.22222222222222   -0.44444444444444   -0.33333333333333             2
    0.33333333333334   -0.22222222222222   -0.44444444444444             2
    0.44444444444444   -0.33333333333333   -0.22222222222222             2
    0.22222222222222    0.33333333333334   -0.44444444444444             2
    0.33333333333334    0.44444444444444   -0.22222222222222             2
    0.44444444444444    0.22222222222222   -0.33333333333333             2
   -0.33333333333333    0.22222222222222   -0.44444444444444             2
   -0.44444444444444    0.33333333333334   -0.22222222222222             2
   -0.22222222222222    0.44444444444444   -0.33333333333333             2
   -0.44444444444444   -0.22222222222222   -0.33333333333333             2
   -0.33333333333333   -0.44444444444444   -0.22222222222222             2
   -0.22222222222222   -0.33333333333333   -0.44444444444444             2
    0.44444444444444    0.44444444444444    0.22222222222222             2
    0.22222222222222    0.44444444444444    0.44444444444444             2
    0.44444444444444    0.22222222222222    0.44444444444444             2
   -0.44444444444444    0.44444444444444    0.22222222222222             2
   -0.44444444444444    0.22222222222222    0.44444444444444             2
   -0.22222222222222    0.44444444444444    0.44444444444444             2
   -0.44444444444444   -0.44444444444444    0.22222222222222             2
   -0.22222222222222   -0.44444444444444    0.44444444444444             2
   -0.44444444444444   -0.22222222222222    0.44444444444444             2
    0.44444444444444   -0.44444444444444    0.22222222222222             2
    0.44444444444444   -0.22222222222222    0.44444444444444             2
    0.22222222222222   -0.44444444444444    0.44444444444444             2
    0.33333333333334    0.33333333333334    0.33333333333334             2
   -0.33333333333333    0.33333333333334    0.33333333333334             2
   -0.33333333333333   -0.33333333333333    0.33333333333334             2
    0.33333333333334   -0.33333333333333    0.33333333333334             2
    0.44444444444444    0.33333333333334    0.33333333333334             2
    0.33333333333334    0.44444444444444    0.33333333333334             2
    0.33333333333334    0.33333333333334    0.44444444444444             2
   -0.33333333333333    0.44444444444444    0.33333333333334             2
   -0.44444444444444    0.33333333333334    0.33333333333334             2
   -0.33333333333333    0.33333333333334    0.44444444444444             2
   -0.44444444444444   -0.33333333333333    0.33333333333334             2
   -0.33333333333333   -0.44444444444444    0.33333333333334             2
   -0.33333333333333   -0.33333333333333    0.44444444444444             2
    0.33333333333334   -0.44444444444444    0.33333333333334             2
    0.44444444444444   -0.33333333333333    0.33333333333334             2
    0.33333333333334   -0.33333333333333    0.44444444444444             2
    0.44444444444444    0.44444444444444    0.33333333333334             2
    0.33333333333334    0.44444444444444    0.44444444444444             2
    0.44444444444444    0.33333333333334    0.44444444444444             2
   -0.44444444444444    0.44444444444444    0.33333333333334             2
   -0.44444444444444    0.33333333333334    0.44444444444444             2
   -0.33333333333333    0.44444444444444    0.44444444444444             2
   -0.44444444444444   -0.44444444444444    0.33333333333334             2
   -0.33333333333333   -0.44444444444444    0.44444444444444             2
   -0.44444444444444   -0.33333333333333    0.44444444444444             2
    0.44444444444444   -0.44444444444444    0.33333333333334             2
    0.44444444444444   -0.33333333333333    0.44444444444444             2
    0.33333333333334   -0.44444444444444    0.44444444444444             2
    0.44444444444444    0.44444444444444    0.44444444444444             2
   -0.44444444444444    0.44444444444444    0.44444444444444             2
   -0.44444444444444   -0.44444444444444    0.44444444444444             2
    0.44444444444444   -0.44444444444444    0.44444444444444             2
Tetrahedra
      2184    0.00022862368541
         2       110       114       116       150
         2       110       115       116       150
         2       115       116       150       151
         2       114       116       150       152
         2       116       150       152       258
         2       116       150       151       258
         2       114       126       152       162
         2       114       150       152       162
         2       150       152       162       258
         2       126       152       162       183
         2       152       162       183       262
         2       152       162       258       262
         2       126       138       183       186
         2       126       162       183       186
         2       162       183       186       262
         2       138       183       186       207
         2       183       186       207       274
         2       183       186       262       274
         2       138       142       200       207
         2       138       186       200       207
         2       186       200       207       274
         2       142       190       200       207
         2       190       200       207       278
         2       200       207       274       278
         2       130       142       176       190
         2       142       176       190       200
         2       176       190       200       278
         2       130       166       176       190
         2       166       176       190       266
         2       176       190       266       278
         2       118       130       153       166
         2       130       153       166       176
         2       153       166       176       266
         2       118       153       154       166
         2       153       154       166       259
         2       153       166       259       266
         2       111       117       118       154
         2       117       118       153       154
         2       117       153       154       259
         2       111       117       119       154
         2       117       119       154       155
         2       117       154       155       259
         2        15        21       111       119
         2        21       111       117       119
         2        21       117       119       155
         2        15        21        25       119
         2        21        25        57       119
         2        21        57       119       155
         2        15        25       110       115