  COHP#       atomMU       atomNU     distance     translation      ICOHP (at) eF   for spin  1
      1          As5          Ga1      2.48990       0   1   1           -2.16463
      1       As5_4s       Ga1_4s      2.48990       0   1   1           -0.06008
      1     As5_4p_y       Ga1_4s      2.48990       0   1   1           -0.18105
      1     As5_4p_z       Ga1_4s      2.48990       0   1   1           -0.18117
      1     As5_4p_x       Ga1_4s      2.48990       0   1   1           -0.18111
      1       As5_4s     Ga1_4p_y      2.48990       0   1   1           -0.22137
      1     As5_4p_y     Ga1_4p_y      2.48990       0   1   1           -0.00744
      1     As5_4p_z     Ga1_4p_y      2.48990       0   1   1           -0.14216
      1     As5_4p_x     Ga1_4p_y      2.48990       0   1   1           -0.14227
      1       As5_4s     Ga1_4p_z      2.48990       0   1   1           -0.22087
      1     As5_4p_y     Ga1_4p_z      2.48990       0   1   1           -0.14195
      1     As5_4p_z     Ga1_4p_z      2.48990       0   1   1           -0.00754
      1     As5_4p_x     Ga1_4p_z      2.48990       0   1   1           -0.14211
      1       As5_4s     Ga1_4p_x      2.48990       0   1   1           -0.22124
      1     As5_4p_y     Ga1_4p_x      2.48990       0   1   1           -0.14208
      1     As5_4p_z     Ga1_4p_x      2.48990       0   1   1           -0.14200
      1     As5_4p_x     Ga1_4p_x      2.48990       0   1   1           -0.00742
      1       As5_4s    Ga1_3d_xy      2.48990       0   1   1           -0.00099
      1     As5_4p_y    Ga1_3d_xy      2.48990       0   1   1           -0.00105
      1     As5_4p_z    Ga1_3d_xy      2.48990       0   1   1           -0.00283
      1     As5_4p_x    Ga1_3d_xy      2.48990       0   1   1           -0.00104
      1       As5_4s    Ga1_3d_yz      2.48990       0   1   1           -0.00099
      1     As5_4p_y    Ga1_3d_yz      2.48990       0   1   1           -0.00104
      1     As5_4p_z    Ga1_3d_yz      2.48990       0   1   1           -0.00104
      1     As5_4p_x    Ga1_3d_yz      2.48990       0   1   1           -0.00283
      1       As5_4s   Ga1_3d_z^2      2.48990       0   1   1           -0.00000
      1     As5_4p_y   Ga1_3d_z^2      2.48990       0   1   1           -0.00042
      1     As5_4p_z   Ga1_3d_z^2      2.48990       0   1   1           -0.00169
      1     As5_4p_x   Ga1_3d_z^2      2.48990       0   1   1           -0.00042
      1       As5_4s    Ga1_3d_xz      2.48990       0   1   1           -0.00099
      1     As5_4p_y    Ga1_3d_xz      2.48990       0   1   1           -0.00283
      1     As5_4p_z    Ga1_3d_xz      2.48990       0   1   1           -0.00104
      1     As5_4p_x    Ga1_3d_xz      2.48990       0   1   1           -0.00104
      1       As5_4s Ga1_3d_x^2-y^2      2.48990       0   1   1           -0.00000
      1     As5_4p_y Ga1_3d_x^2-y^2      2.48990       0   1   1           -0.00126
      1     As5_4p_z Ga1_3d_x^2-y^2      2.48990       0   1   1           -0.00000
      1     As5_4p_x Ga1_3d_x^2-y^2      2.48990       0   1   1           -0.00126
      2          As6          Ga1      2.48990       0   0   0           -2.16446
      2       As6_4s       Ga1_4s      2.48990       0   0   0           -0.06007
      2     As6_4p_y       Ga1_4s      2.48990       0   0   0           -0.18116
      2     As6_4p_z       Ga1_4s      2.48990       0   0   0           -0.18126
      2     As6_4p_x       Ga1_4s      2.48990       0   0   0           -0.18114
      2       As6_4s     Ga1_4p_y      2.48990       0   0   0           -0.22070
      2     As6_4p_y     Ga1_4p_y      2.48990       0   0   0           -0.00745
      2     As6_4p_z     Ga1_4p_y      2.48990       0   0   0           -0.14216
      2     As6_4p_x     Ga1_4p_y      2.48990       0   0   0           -0.14216
      2       As6_4s     Ga1_4p_z      2.48990       0   0   0           -0.22097
      2     As6_4p_y     Ga1_4p_z      2.48990       0   0   0           -0.14211
      2     As6_4p_z     Ga1_4p_z      2.48990       0   0   0           -0.00751
      2     As6_4p_x     Ga1_4p_z      2.48990       0   0   0           -0.14206
      2       As6_4s     Ga1_4p_x      2.48990       0   0   0           -0.22125
      2     As6_4p_y     Ga1_4p_x      2.48990       0   0   0           -0.14212
      2     As6_4p_z     Ga1_4p_x      2.48990       0   0   0           -0.14208
      2     As6_4p_x     Ga1_4p_x      2.48990       0   0   0           -0.00747
      2       As6_4s    Ga1_3d_xy      2.48990       0   0   0           -0.00099
      2     As6_4p_y    Ga1_3d_xy      2.48990       0   0   0           -0.00104
      2     As6_4p_z    Ga1_3d_xy      2.48990       0   0   0           -0.00283
      2     As6_4p_x    Ga1_3d_xy      2.48990       0   0   0           -0.00104
      2       As6_4s    Ga1_3d_yz      2.48990       0   0   0           -0.00099
      2     As6_4p_y    Ga1_3d_yz      2.48990       0   0   0           -0.00104
      2     As6_4p_z    Ga1_3d_yz      2.48990       0   0   0           -0.00105
      2     As6_4p_x    Ga1_3d_yz      2.48990       0   0   0           -0.00283
      2       As6_4s   Ga1_3d_z^2      2.48990       0   0   0           -0.00000
      2     As6_4p_y   Ga1_3d_z^2      2.48990       0   0   0           -0.00043
      2     As6_4p_z   Ga1_3d_z^2      2.48990       0   0   0           -0.00169
      2     As6_4p_x   Ga1_3d_z^2      2.48990       0   0   0           -0.00042
      2       As6_4s    Ga1_3d_xz      2.48990       0   0   0           -0.00099
      2     As6_4p_y    Ga1_3d_xz      2.48990       0   0   0           -0.00284
      2     As6_4p_z    Ga1_3d_xz      2.48990       0   0   0           -0.00104
      2     As6_4p_x    Ga1_3d_xz      2.48990       0   0   0           -0.00104
      2       As6_4s Ga1_3d_x^2-y^2      2.48990       0   0   0           -0.00000
      2     As6_4p_y Ga1_3d_x^2-y^2      2.48990       0   0   0           -0.00126
      2     As6_4p_z Ga1_3d_x^2-y^2      2.48990       0   0   0           -0.00000
      2     As6_4p_x Ga1_3d_x^2-y^2      2.48990       0   0   0           -0.00127
      3          As7          Ga1      2.48990       1   1   0           -2.16491
      3       As7_4s       Ga1_4s      2.48990       1   1   0           -0.06001
      3     As7_4p_y       Ga1_4s      2.48990       1   1   0           -0.18137
      3     As7_4p_z       Ga1_4s      2.48990       1   1   0           -0.18108
      3     As7_4p_x       Ga1_4s      2.48990       1   1   0           -0.18124
      3       As7_4s     Ga1_4p_y      2.48990       1   1   0           -0.22140
      3     As7_4p_y     Ga1_4p_y      2.48990       1   1   0           -0.00750
      3     As7_4p_z     Ga1_4p_y      2.48990       1   1   0           -0.14226
      3     As7_4p_x     Ga1_4p_y      2.48990       1   1   0           -0.14205
      3       As7_4s     Ga1_4p_z      2.48990       1   1   0           -0.22103
      3     As7_4p_y     Ga1_4p_z      2.48990       1   1   0           -0.14210
      3     As7_4p_z     Ga1_4p_z      2.48990       1   1   0           -0.00748
      3     As7_4p_x     Ga1_4p_z      2.48990       1   1   0           -0.14209
      3       As7_4s     Ga1_4p_x      2.48990       1   1   0           -0.22095
      3     As7_4p_y     Ga1_4p_x      2.48990       1   1   0           -0.14203
      3     As7_4p_z     Ga1_4p_x      2.48990       1   1   0           -0.14209
      3     As7_4p_x     Ga1_4p_x      2.48990       1   1   0           -0.00747
      3       As7_4s    Ga1_3d_xy      2.48990       1   1   0           -0.00098
      3     As7_4p_y    Ga1_3d_xy      2.48990       1   1   0           -0.00105
      3     As7_4p_z    Ga1_3d_xy      2.48990       1   1   0           -0.00284
      3     As7_4p_x    Ga1_3d_xy      2.48990       1   1   0           -0.00105
      3       As7_4s    Ga1_3d_yz      2.48990       1   1   0           -0.00099
      3     As7_4p_y    Ga1_3d_yz      2.48990       1   1   0           -0.00104
      3     As7_4p_z    Ga1_3d_yz      2.48990       1   1   0           -0.00105
      3     As7_4p_x    Ga1_3d_yz      2.48990       1   1   0           -0.00284
      3       As7_4s   Ga1_3d_z^2      2.48990       1   1   0           -0.00000
      3     As7_4p_y   Ga1_3d_z^2      2.48990       1   1   0           -0.00043
      3     As7_4p_z   Ga1_3d_z^2      2.48990       1   1   0           -0.00169
      3     As7_4p_x   Ga1_3d_z^2      2.48990       1   1   0           -0.00041
      3       As7_4s    Ga1_3d_xz      2.48990       1   1   0           -0.00099
      3     As7_4p_y    Ga1_3d_xz      2.48990       1   1   0           -0.00283
      3     As7_4p_z    Ga1_3d_xz      2.48990       1   1   0           -0.00104
      3     As7_4p_x    Ga1_3d_xz      2.48990       1   1   0           -0.00104
      3       As7_4s Ga1_3d_x^2-y^2      2.48990       1   1   0           -0.00000
      3     As7_4p_y Ga1_3d_x^2-y^2      2.48990       1   1   0           -0.00125
      3     As7_4p_z Ga1_3d_x^2-y^2      2.48990       1   1   0           -0.00000
      3     As7_4p_x Ga1_3d_x^2-y^2      2.48990       1   1   0           -0.00127
      4          As8          Ga1      2.48990       1   0   1           -2.16421
      4       As8_4s       Ga1_4s      2.48990       1   0   1           -0.06014
      4     As8_4p_y       Ga1_4s      2.48990       1   0   1           -0.18100
      4     As8_4p_z       Ga1_4s      2.48990       1   0   1           -0.18119
      4     As8_4p_x       Ga1_4s      2.48990       1   0   1           -0.18136
      4       As8_4s     Ga1_4p_y      2.48990       1   0   1           -0.22091
      4     As8_4p_y     Ga1_4p_y      2.48990       1   0   1           -0.00743
      4     As8_4p_z     Ga1_4p_y      2.48990       1   0   1           -0.14216
      4     As8_4p_x     Ga1_4p_y      2.48990       1   0   1           -0.14217
      4       As8_4s     Ga1_4p_z      2.48990       1   0   1           -0.22087
      4     As8_4p_y     Ga1_4p_z      2.48990       1   0   1           -0.14208
      4     As8_4p_z     Ga1_4p_z      2.48990       1   0   1           -0.00749
      4     As8_4p_x     Ga1_4p_z      2.48990       1   0   1           -0.14208
      4       As8_4s     Ga1_4p_x      2.48990       1   0   1           -0.22093
      4     As8_4p_y     Ga1_4p_x      2.48990       1   0   1           -0.14209
      4     As8_4p_z     Ga1_4p_x      2.48990       1   0   1           -0.14203
      4     As8_4p_x     Ga1_4p_x      2.48990       1   0   1           -0.00750
      4       As8_4s    Ga1_3d_xy      2.48990       1   0   1           -0.00099
      4     As8_4p_y    Ga1_3d_xy      2.48990       1   0   1           -0.00105
      4     As8_4p_z    Ga1_3d_xy      2.48990       1   0   1           -0.00284
      4     As8_4p_x    Ga1_3d_xy      2.48990       1   0   1           -0.00104
      4       As8_4s    Ga1_3d_yz      2.48990       1   0   1           -0.00098
      4     As8_4p_y    Ga1_3d_yz      2.48990       1   0   1           -0.00104
      4     As8_4p_z    Ga1_3d_yz      2.48990       1   0   1           -0.00104
      4     As8_4p_x    Ga1_3d_yz      2.48990       1   0   1           -0.00283
      4       As8_4s   Ga1_3d_z^2      2.48990       1   0   1           -0.00000
      4     As8_4p_y   Ga1_3d_z^2      2.48990       1   0   1           -0.00042
      4     As8_4p_z   Ga1_3d_z^2      2.48990       1   0   1           -0.00168
      4     As8_4p_x   Ga1_3d_z^2      2.48990       1   0   1           -0.00043
      4       As8_4s    Ga1_3d_xz      2.48990       1   0   1           -0.00099
      4     As8_4p_y    Ga1_3d_xz      2.48990       1   0   1           -0.00283
      4     As8_4p_z    Ga1_3d_xz      2.48990       1   0   1           -0.00103
      4     As8_4p_x    Ga1_3d_xz      2.48990       1   0   1           -0.00105
      4       As8_4s Ga1_3d_x^2-y^2      2.48990       1   0   1           -0.00000
      4     As8_4p_y Ga1_3d_x^2-y^2      2.48990       1   0   1           -0.00126
      4     As8_4p_z Ga1_3d_x^2-y^2      2.48990       1   0   1           -0.00000
      4     As8_4p_x Ga1_3d_x^2-y^2      2.48990       1   0   1           -0.00127
      5          As5          Ga2      2.48990       0   0   0           -2.16425
      5       As5_4s       Ga2_4s      2.48990       0   0   0           -0.06011
      5     As5_4p_y       Ga2_4s      2.48990       0   0   0           -0.18146
      5     As5_4p_z       Ga2_4s      2.48990       0   0   0           -0.18099
      5     As5_4p_x       Ga2_4s      2.48990       0   0   0           -0.18127
      5       As5_4s     Ga2_4p_y      2.48990       0   0   0           -0.22099
      5     As5_4p_y     Ga2_4p_y      2.48990       0   0   0           -0.00748
      5     As5_4p_z     Ga2_4p_y      2.48990       0   0   0           -0.14201
      5     As5_4p_x     Ga2_4p_y      2.48990       0   0   0           -0.14199
      5       As5_4s     Ga2_4p_z      2.48990       0   0   0           -0.22095
      5     As5_4p_y     Ga2_4p_z      2.48990       0   0   0           -0.14205
      5     As5_4p_z     Ga2_4p_z      2.48990       0   0   0           -0.00753
      5     As5_4p_x     Ga2_4p_z      2.48990       0   0   0           -0.14217
      5       As5_4s     Ga2_4p_x      2.48990       0   0   0           -0.22081
      5     As5_4p_y     Ga2_4p_x      2.48990       0   0   0           -0.14201
      5     As5_4p_z     Ga2_4p_x      2.48990       0   0   0           -0.14216
      5     As5_4p_x     Ga2_4p_x      2.48990       0   0   0           -0.00749
      5       As5_4s    Ga2_3d_xy      2.48990       0   0   0           -0.00099
      5     As5_4p_y    Ga2_3d_xy      2.48990       0   0   0           -0.00105
      5     As5_4p_z    Ga2_3d_xy      2.48990       0   0   0           -0.00284
      5     As5_4p_x    Ga2_3d_xy      2.48990       0   0   0           -0.00105
      5       As5_4s    Ga2_3d_yz      2.48990       0   0   0           -0.00099
      5     As5_4p_y    Ga2_3d_yz      2.48990       0   0   0           -0.00104
      5     As5_4p_z    Ga2_3d_yz      2.48990       0   0   0           -0.00104
      5     As5_4p_x    Ga2_3d_yz      2.48990       0   0   0           -0.00284
      5       As5_4s   Ga2_3d_z^2      2.48990       0   0   0           -0.00000
      5     As5_4p_y   Ga2_3d_z^2      2.48990       0   0   0           -0.00042
      5     As5_4p_z   Ga2_3d_z^2      2.48990       0   0   0           -0.00167
      5     As5_4p_x   Ga2_3d_z^2      2.48990       0   0   0           -0.00042
      5       As5_4s    Ga2_3d_xz      2.48990       0   0   0           -0.00099
      5     As5_4p_y    Ga2_3d_xz      2.48990       0   0   0           -0.00283
      5     As5_4p_z    Ga2_3d_xz      2.48990       0   0   0           -0.00103
      5     As5_4p_x    Ga2_3d_xz      2.48990       0   0   0           -0.00104
      5       As5_4s Ga2_3d_x^2-y^2      2.48990       0   0   0           -0.00000
      5     As5_4p_y Ga2_3d_x^2-y^2      2.48990       0   0   0           -0.00126
      5     As5_4p_z Ga2_3d_x^2-y^2      2.48990       0   0   0           -0.00000
      5     As5_4p_x Ga2_3d_x^2-y^2      2.48990       0   0   0           -0.00127
      6          As6          Ga2      2.48990       0   0   0           -2.16457
      6       As6_4s       Ga2_4s      2.48990       0   0   0           -0.06004
      6     As6_4p_y       Ga2_4s      2.48990       0   0   0           -0.18129
      6     As6_4p_z       Ga2_4s      2.48990       0   0   0           -0.18089
      6     As6_4p_x       Ga2_4s      2.48990       0   0   0           -0.18148
      6       As6_4s     Ga2_4p_y      2.48990       0   0   0           -0.22116
      6     As6_4p_y     Ga2_4p_y      2.48990       0   0   0           -0.00746
      6     As6_4p_z     Ga2_4p_y      2.48990       0   0   0           -0.14215
      6     As6_4p_x     Ga2_4p_y      2.48990       0   0   0           -0.14201
      6       As6_4s     Ga2_4p_z      2.48990       0   0   0           -0.22132
      6     As6_4p_y     Ga2_4p_z      2.48990       0   0   0           -0.14211
      6     As6_4p_z     Ga2_4p_z      2.48990       0   0   0           -0.00748
      6     As6_4p_x     Ga2_4p_z      2.48990       0   0   0           -0.14202
      6       As6_4s     Ga2_4p_x      2.48990       0   0   0           -0.22088
      6     As6_4p_y     Ga2_4p_x      2.48990       0   0   0           -0.14195
      6     As6_4p_z     Ga2_4p_x      2.48990       0   0   0           -0.14209
      6     As6_4p_x     Ga2_4p_x      2.48990       0   0   0           -0.00749
      6       As6_4s    Ga2_3d_xy      2.48990       0   0   0           -0.00098
      6     As6_4p_y    Ga2_3d_xy      2.48990       0   0   0           -0.00105
      6     As6_4p_z    Ga2_3d_xy      2.48990       0   0   0           -0.00284
      6     As6_4p_x    Ga2_3d_xy      2.48990       0   0   0           -0.00105
      6       As6_4s    Ga2_3d_yz      2.48990       0   0   0           -0.00099
      6     As6_4p_y    Ga2_3d_yz      2.48990       0   0   0           -0.00105
      6     As6_4p_z    Ga2_3d_yz      2.48990       0   0   0           -0.00103
      6     As6_4p_x    Ga2_3d_yz      2.48990       0   0   0           -0.00283
      6       As6_4s   Ga2_3d_z^2      2.48990       0   0   0           -0.00000
      6     As6_4p_y   Ga2_3d_z^2      2.48990       0   0   0           -0.00041
      6     As6_4p_z   Ga2_3d_z^2      2.48990       0   0   0           -0.00168
      6     As6_4p_x   Ga2_3d_z^2      2.48990       0   0   0           -0.00042
      6       As6_4s    Ga2_3d_xz      2.48990       0   0   0           -0.00099
      6     As6_4p_y    Ga2_3d_xz      2.48990       0   0   0           -0.00283
      6     As6_4p_z    Ga2_3d_xz      2.48990       0   0   0           -0.00103
      6     As6_4p_x    Ga2_3d_xz      2.48990       0   0   0           -0.00105
      6       As6_4s Ga2_3d_x^2-y^2      2.48990       0   0   0           -0.00000
      6     As6_4p_y Ga2_3d_x^2-y^2      2.48990       0   0   0           -0.00126
      6     As6_4p_z Ga2_3d_x^2-y^2      2.48990       0   0   0           -0.00000
      6     As6_4p_x Ga2_3d_x^2-y^2      2.48990       0   0   0           -0.00127
      7          As7          Ga2      2.48990       1   0   0           -2.16481
      7       As7_4s       Ga2_4s      2.48990       1   0   0           -0.06004
      7     As7_4p_y       Ga2_4s      2.48990       1   0   0           -0.18109
      7     As7_4p_z       Ga2_4s      2.48990       1   0   0           -0.18114
      7     As7_4p_x       Ga2_4s      2.48990       1   0   0           -0.18115
      7       As7_4s     Ga2_4p_y      2.48990       1   0   0           -0.22091
      7     As7_4p_y     Ga2_4p_y      2.48990       1   0   0           -0.00746
      7     As7_4p_z     Ga2_4p_y      2.48990       1   0   0           -0.14226
      7     As7_4p_x     Ga2_4p_y      2.48990       1   0   0           -0.14220
      7       As7_4s     Ga2_4p_z      2.48990       1   0   0           -0.22113
      7     As7_4p_y     Ga2_4p_z      2.48990       1   0   0           -0.14218
      7     As7_4p_z     Ga2_4p_z      2.48990       1   0   0           -0.00752
      7     As7_4p_x     Ga2_4p_z      2.48990       1   0   0           -0.14218
      7       As7_4s     Ga2_4p_x      2.48990       1   0   0           -0.22117
      7     As7_4p_y     Ga2_4p_x      2.48990       1   0   0           -0.14209
      7     As7_4p_z     Ga2_4p_x      2.48990       1   0   0           -0.14210
      7     As7_4p_x     Ga2_4p_x      2.48990       1   0   0           -0.00744
      7       As7_4s    Ga2_3d_xy      2.48990       1   0   0           -0.00100
      7     As7_4p_y    Ga2_3d_xy      2.48990       1   0   0           -0.00105
      7     As7_4p_z    Ga2_3d_xy      2.48990       1   0   0           -0.00283
      7     As7_4p_x    Ga2_3d_xy      2.48990       1   0   0           -0.00105
      7       As7_4s    Ga2_3d_yz      2.48990       1   0   0           -0.00099
      7     As7_4p_y    Ga2_3d_yz      2.48990       1   0   0           -0.00104
      7     As7_4p_z    Ga2_3d_yz      2.48990       1   0   0           -0.00104
      7     As7_4p_x    Ga2_3d_yz      2.48990       1   0   0           -0.00283
      7       As7_4s   Ga2_3d_z^2      2.48990       1   0   0           -0.00000
      7     As7_4p_y   Ga2_3d_z^2      2.48990       1   0   0           -0.00042
      7     As7_4p_z   Ga2_3d_z^2      2.48990       1   0   0           -0.00167
      7     As7_4p_x   Ga2_3d_z^2      2.48990       1   0   0           -0.00040
      7       As7_4s    Ga2_3d_xz      2.48990       1   0   0           -0.00099
      7     As7_4p_y    Ga2_3d_xz      2.48990       1   0   0           -0.00283
      7     As7_4p_z    Ga2_3d_xz      2.48990       1   0   0           -0.00104
      7     As7_4p_x    Ga2_3d_xz      2.48990       1   0   0           -0.00104
      7       As7_4s Ga2_3d_x^2-y^2      2.48990       1   0   0           -0.00000
      7     As7_4p_y Ga2_3d_x^2-y^2      2.48990       1   0   0           -0.00127
      7     As7_4p_z Ga2_3d_x^2-y^2      2.48990       1   0   0           -0.00000
      7     As7_4p_x Ga2_3d_x^2-y^2      2.48990       1   0   0           -0.00127
      8          As8          Ga2      2.48990       1   0   0           -2.16416
      8       As8_4s       Ga2_4s      2.48990       1   0   0           -0.06011
      8     As8_4p_y       Ga2_4s      2.48990       1   0   0           -0.18118
      8     As8_4p_z       Ga2_4s      2.48990       1   0   0           -0.18105
      8     As8_4p_x       Ga2_4s      2.48990       1   0   0           -0.18128
      8       As8_4s     Ga2_4p_y      2.48990       1   0   0           -0.22109
      8     As8_4p_y     Ga2_4p_y      2.48990       1   0   0           -0.00747
      8     As8_4p_z     Ga2_4p_y      2.48990       1   0   0           -0.14207
      8     As8_4p_x     Ga2_4p_y      2.48990       1   0   0           -0.14203
      8       As8_4s     Ga2_4p_z      2.48990       1   0   0           -0.22075
      8     As8_4p_y     Ga2_4p_z      2.48990       1   0   0           -0.14211
      8     As8_4p_z     Ga2_4p_z      2.48990       1   0   0           -0.00747
      8     As8_4p_x     Ga2_4p_z      2.48990       1   0   0           -0.14200
      8       As8_4s     Ga2_4p_x      2.48990       1   0   0           -0.22125
      8     As8_4p_y     Ga2_4p_x      2.48990       1   0   0           -0.14200
      8     As8_4p_z     Ga2_4p_x      2.48990       1   0   0           -0.14204
      8     As8_4p_x     Ga2_4p_x      2.48990       1   0   0           -0.00745
      8       As8_4s    Ga2_3d_xy      2.48990       1   0   0           -0.00099
      8     As8_4p_y    Ga2_3d_xy      2.48990       1   0   0           -0.00105
      8     As8_4p_z    Ga2_3d_xy      2.48990       1   0   0           -0.00283
      8     As8_4p_x    Ga2_3d_xy      2.48990       1   0   0           -0.00104
      8       As8_4s    Ga2_3d_yz      2.48990       1   0   0           -0.00099
      8     As8_4p_y    Ga2_3d_yz      2.48990       1   0   0           -0.00105
      8     As8_4p_z    Ga2_3d_yz      2.48990       1   0   0           -0.00104
      8     As8_4p_x    Ga2_3d_yz      2.48990       1   0   0           -0.00283
      8       As8_4s   Ga2_3d_z^2      2.48990       1   0   0           -0.00000
      8     As8_4p_y   Ga2_3d_z^2      2.48990       1   0   0           -0.00043
      8     As8_4p_z   Ga2_3d_z^2      2.48990       1   0   0           -0.00167
      8     As8_4p_x   Ga2_3d_z^2      2.48990       1   0   0           -0.00043
      8       As8_4s    Ga2_3d_xz      2.48990       1   0   0           -0.00099
      8     As8_4p_y    Ga2_3d_xz      2.48990       1   0   0           -0.00283
      8     As8_4p_z    Ga2_3d_xz      2.48990       1   0   0           -0.00103
      8     As8_4p_x    Ga2_3d_xz      2.48990       1   0   0           -0.00104
      8       As8_4s Ga2_3d_x^2-y^2      2.48990       1   0   0           -0.00000
      8     As8_4p_y Ga2_3d_x^2-y^2      2.48990       1   0   0           -0.00127
      8     As8_4p_z Ga2_3d_x^2-y^2      2.48990       1   0   0           -0.00000
      8     As8_4p_x Ga2_3d_x^2-y^2      2.48990       1   0   0           -0.00126
      9          As5          Ga3      2.48990       0   1   0           -2.16447
      9       As5_4s       Ga3_4s      2.48990       0   1   0           -0.06007
      9     As5_4p_y       Ga3_4s      2.48990       0   1   0           -0.18090
      9     As5_4p_z       Ga3_4s      2.48990       0   1   0           -0.18123
      9     As5_4p_x       Ga3_4s      2.48990       0   1   0           -0.18141
      9       As5_4s     Ga3_4p_y      2.48990       0   1   0           -0.22074
      9     As5_4p_y     Ga3_4p_y      2.48990       0   1   0           -0.00752
      9     As5_4p_z     Ga3_4p_y      2.48990       0   1   0           -0.14210
      9     As5_4p_x     Ga3_4p_y      2.48990       0   1   0           -0.14216
      9       As5_4s     Ga3_4p_z      2.48990       0   1   0           -0.22127
      9     As5_4p_y     Ga3_4p_z      2.48990       0   1   0           -0.14209
      9     As5_4p_z     Ga3_4p_z      2.48990       0   1   0           -0.00749
      9     As5_4p_x     Ga3_4p_z      2.48990       0   1   0           -0.14216
      9       As5_4s     Ga3_4p_x      2.48990       0   1   0           -0.22092
      9     As5_4p_y     Ga3_4p_x      2.48990       0   1   0           -0.14207
      9     As5_4p_z     Ga3_4p_x      2.48990       0   1   0           -0.14210
      9     As5_4p_x     Ga3_4p_x      2.48990       0   1   0           -0.00745
      9       As5_4s    Ga3_3d_xy      2.48990       0   1   0           -0.00099
      9     As5_4p_y    Ga3_3d_xy      2.48990       0   1   0           -0.00104
      9     As5_4p_z    Ga3_3d_xy      2.48990       0   1   0           -0.00283
      9     As5_4p_x    Ga3_3d_xy      2.48990       0   1   0           -0.00104
      9       As5_4s    Ga3_3d_yz      2.48990       0   1   0           -0.00099
      9     As5_4p_y    Ga3_3d_yz      2.48990       0   1   0           -0.00104
      9     As5_4p_z    Ga3_3d_yz      2.48990       0   1   0           -0.00105
      9     As5_4p_x    Ga3_3d_yz      2.48990       0   1   0           -0.00283
      9       As5_4s   Ga3_3d_z^2      2.48990       0   1   0           -0.00000
      9     As5_4p_y   Ga3_3d_z^2      2.48990       0   1   0           -0.00042
      9     As5_4p_z   Ga3_3d_z^2      2.48990       0   1   0           -0.00169
      9     As5_4p_x   Ga3_3d_z^2      2.48990       0   1   0           -0.00042
      9       As5_4s    Ga3_3d_xz      2.48990       0   1   0           -0.00099
      9     As5_4p_y    Ga3_3d_xz      2.48990       0   1   0           -0.00284
      9     As5_4p_z    Ga3_3d_xz      2.48990       0   1   0           -0.00105
      9     As5_4p_x    Ga3_3d_xz      2.48990       0   1   0           -0.00105
      9       As5_4s Ga3_3d_x^2-y^2      2.48990       0   1   0           -0.00000
      9     As5_4p_y Ga3_3d_x^2-y^2      2.48990       0   1   0           -0.00127
      9     As5_4p_z Ga3_3d_x^2-y^2      2.48990       0   1   0           -0.00000
      9     As5_4p_x Ga3_3d_x^2-y^2      2.48990       0   1   0           -0.00127
     10          As6          Ga3      2.48990       0   0   0           -2.16437
     10       As6_4s       Ga3_4s      2.48990       0   0   0           -0.06000
     10     As6_4p_y       Ga3_4s      2.48990       0   0   0           -0.18133
     10     As6_4p_z       Ga3_4s      2.48990       0   0   0           -0.18120
     10     As6_4p_x       Ga3_4s      2.48990       0   0   0           -0.18101
     10       As6_4s     Ga3_4p_y      2.48990       0   0   0           -0.22122
     10     As6_4p_y     Ga3_4p_y      2.48990       0   0   0           -0.00751
     10     As6_4p_z     Ga3_4p_y      2.48990       0   0   0           -0.14196
     10     As6_4p_x     Ga3_4p_y      2.48990       0   0   0           -0.14204
     10       As6_4s     Ga3_4p_z      2.48990       0   0   0           -0.22085
     10     As6_4p_y     Ga3_4p_z      2.48990       0   0   0           -0.14198
     10     As6_4p_z     Ga3_4p_z      2.48990       0   0   0           -0.00748
     10     As6_4p_x     Ga3_4p_z      2.48990       0   0   0           -0.14207
     10       As6_4s     Ga3_4p_x      2.48990       0   0   0           -0.22129
     10     As6_4p_y     Ga3_4p_x      2.48990       0   0   0           -0.14203
     10     As6_4p_z     Ga3_4p_x      2.48990       0   0   0           -0.14205
     10     As6_4p_x     Ga3_4p_x      2.48990       0   0   0           -0.00752
     10       As6_4s    Ga3_3d_xy      2.48990       0   0   0           -0.00098
     10     As6_4p_y    Ga3_3d_xy      2.48990       0   0   0           -0.00104
     10     As6_4p_z    Ga3_3d_xy      2.48990       0   0   0           -0.00284
     10     As6_4p_x    Ga3_3d_xy      2.48990       0   0   0           -0.00104
     10       As6_4s    Ga3_3d_yz      2.48990       0   0   0           -0.00099
     10     As6_4p_y    Ga3_3d_yz      2.48990       0   0   0           -0.00105
     10     As6_4p_z    Ga3_3d_yz      2.48990       0   0   0           -0.00105
     10     As6_4p_x    Ga3_3d_yz      2.48990       0   0   0           -0.00284
     10       As6_4s   Ga3_3d_z^2      2.48990       0   0   0           -0.00000
     10     As6_4p_y   Ga3_3d_z^2      2.48990       0   0   0           -0.00042
     10     As6_4p_z   Ga3_3d_z^2      2.48990       0   0   0           -0.00169
     10     As6_4p_x   Ga3_3d_z^2      2.48990       0   0   0           -0.00042
     10       As6_4s    Ga3_3d_xz      2.48990       0   0   0           -0.00099