       N       E                     dE             d eps       ncg     rms          rms(c)
DAV:   1     0.688683847718E+03    0.68868E+03   -0.36297E+04 86116   0.224E+03
DAV:   2     0.904886623135E+02   -0.59820E+03   -0.56338E+03 76712   0.616E+02
DAV:   3    -0.281227412563E+02   -0.11861E+03   -0.11441E+03 90420   0.181E+02
DAV:   4    -0.362009368578E+02   -0.80782E+01   -0.80004E+01 90980   0.450E+01
DAV:   5    -0.364654116447E+02   -0.26447E+00   -0.26410E+00 95504   0.833E+00    0.989E+00
DAV:   6    -0.363101459658E+02    0.15527E+00   -0.11066E+00103760   0.109E+01    0.428E+00
DAV:   7    -0.363199864365E+02   -0.98405E-02   -0.32261E-01 96196   0.296E+00    0.220E+00
DAV:   8    -0.362926750281E+02    0.27311E-01   -0.76942E-02 85944   0.133E+00    0.793E-01
DAV:   9    -0.362937457280E+02   -0.10707E-02   -0.13380E-02100796   0.503E-01    0.335E-01
DAV:  10    -0.362943119331E+02   -0.56621E-03   -0.15374E-03 94204   0.198E-01    0.886E-02
DAV:  11    -0.362945416670E+02   -0.22973E-03   -0.33577E-04 94864   0.885E-02    0.507E-02
DAV:  12    -0.362946555927E+02   -0.11393E-03   -0.85352E-05 88052   0.557E-02    0.227E-02
DAV:  13    -0.362946877772E+02   -0.32184E-04   -0.32915E-05 88664   0.479E-02    0.655E-03
DAV:  14    -0.362946898873E+02   -0.21102E-05   -0.32456E-06 91228   0.189E-02    0.203E-03
DAV:  15    -0.362946901219E+02   -0.23460E-06   -0.83209E-07 85108   0.687E-03    0.104E-03
DAV:  16    -0.362946901811E+02   -0.59139E-07   -0.14624E-07 62844   0.844E-03
   1 F= -.36294690E+02 E0= -.36294690E+02  d E =0.000000E+00  mag=    -0.0000
