 vasp.6.3.1 04May22 (build May  6 2022 16:02:18) complex
 executed on             LinuxGNU date 2023.03.17  22:18:30
 running   80 mpi-ranks, with    1 threads/rank
 distrk:  each k-point on   80 cores,    1 groups
 distr:  one band on NCORE=  20 cores,    4 groups


--------------------------------------------------------------------------------------------------------


 INCAR:
   ALGO = Normal
   EDIFF = 1e-07
   ENAUG = 1360
   ENCUT = 680
   GGA = Ps
   IBRION = 2
   ISIF = 2
   ISMEAR = -5
   ISPIN = 2
   ISYM = 0
   LAECHG = False
   LASPH = True
   LCHARG = False
   LELF = False
   LMAXMIX = 4
   LMIXTAU = True
   LORBIT = 11
   LREAL = False
   LVTOT = True
   LWAVE = True
   MAGMOM = 8*0.6
   NBANDS = 52
   NELM = 200
   NPAR = 4
   NSW = 0
   PREC = Accurate
   SIGMA = 0.05

 POTCAR:    PAW_PBE Ga_d 06Jul2010
 POTCAR:    PAW_PBE As 22Sep2009
 WARNING: For LVTOT=.TRUE., VASP.5.x writes the TOTAL local potential to the
     file LOCPOT. If you want only the Hartree contributions, use LVHAR=.TRUE.
     instead.

 POTCAR:    PAW_PBE Ga_d 06Jul2010
   VRHFIN =Ga: s2p1
   LEXCH  = PE
   EATOM  =  2148.8298 eV,  157.9345 Ry

   TITEL  = PAW_PBE Ga_d 06Jul2010
   LULTRA =        F    use ultrasoft PP ?
   IUNSCR =        1    unscreen: 0-lin 1-nonlin 2-no
   RPACOR =    1.700    partial core radius
   POMASS =   69.723; ZVAL   =   13.000    mass and valenz
   RCORE  =    2.300    outmost cutoff radius
   RWIGS  =    2.300; RWIGS  =    1.217    wigner-seitz radius (au A)
   ENMAX  =  282.691; ENMIN  =  212.018 eV
   ICORE  =        3    local potential
   LCOR   =        T    correct aug charges
   LPAW   =        T    paw PP
   EAUG   =  490.690
   DEXC   =    0.000
   RMAX   =    2.341    core radius for proj-oper
   RAUG   =    1.300    factor for augmentation sphere
   RDEP   =    2.413    radius for radial grids
   RDEPT  =    1.856    core radius for aug-charge

   Atomic configuration
    9 entries
     n  l   j            E        occ.
     1  0  0.50    -10228.7831   2.0000
     2  0  0.50     -1262.1604   2.0000
     2  1  1.50     -1098.6333   6.0000
     3  0  0.50      -148.1110   2.0000
     3  1  1.50       -98.8436   6.0000
     3  2  2.50       -19.1549  10.0000
     4  0  0.50        -8.9483   2.0000
     4  1  0.50        -2.5791   1.0000
     4  3  2.50        -2.7416   0.0000
   Description
     l       E           TYP  RCUT    TYP  RCUT
     2    -19.1549037     23  2.300
     2     -5.4423304     23  2.300
     0     -8.9483111     23  2.300
     0     68.0291300     23  2.300
     1     -2.5790802     23  2.100
     1     81.6349560     23  2.300
     3      6.8029130     23  2.300
  local pseudopotential read in
  partial core-charges read in
  partial kinetic energy density read in
  atomic valenz-charges read in
  non local Contribution for L=           2  read in
    real space projection operators read in
  non local Contribution for L=           2  read in
    real space projection operators read in
  non local Contribution for L=           0  read in
    real space projection operators read in
  non local Contribution for L=           0  read in
    real space projection operators read in
  non local Contribution for L=           1  read in
    real space projection operators read in
  non local Contribution for L=           1  read in
    real space projection operators read in
    PAW grid and wavefunctions read in

   number of l-projection  operators is LMAX  =           6
   number of lm-projection operators is LMMAX =          18

 POTCAR:    PAW_PBE As 22Sep2009
   VRHFIN =As: s2p3
   LEXCH  = PE
   EATOM  =   170.1867 eV,   12.5084 Ry

   TITEL  = PAW_PBE As 22Sep2009
   LULTRA =        F    use ultrasoft PP ?
   IUNSCR =        1    unscreen: 0-lin 1-nonlin 2-no
   RPACOR =    1.900    partial core radius
   POMASS =   74.922; ZVAL   =    5.000    mass and valenz
   RCORE  =    2.100    outmost cutoff radius
   RWIGS  =    2.300; RWIGS  =    1.217    wigner-seitz radius (au A)
   ENMAX  =  208.702; ENMIN  =  156.526 eV
   ICORE  =        3    local potential
   LCOR   =        T    correct aug charges
   LPAW   =        T    paw PP
   EAUG   =  462.758
   DEXC   =    0.000
   RMAX   =    2.144    core radius for proj-oper
   RAUG   =    1.300    factor for augmentation sphere
   RDEP   =    2.140    radius for radial grids
   RDEPT  =    1.956    core radius for aug-charge

   Atomic configuration
   10 entries
     n  l   j            E        occ.
     1  0  0.50    -11718.0418   2.0000
     2  0  0.50     -1486.5454   2.0000
     2  1  1.50     -1303.3889   6.0000
     3  0  0.50      -190.2849   2.0000
     3  1  1.50      -133.6555   6.0000
     3  2  2.50       -40.6443  10.0000
     4  0  0.50       -14.4936   2.0000
     4  1  0.50        -5.1947   3.0000
     4  2  1.50        -5.4423   0.0000
     4  3  2.50        -5.4423   0.0000
   Description
     l       E           TYP  RCUT    TYP  RCUT
     0    -14.4935570     23  2.100
     0    -11.9212055     23  2.100
     1     -5.1947127     23  2.100
     1     27.2116520     23  2.100
     2     -5.4423304     23  2.100
     3     -1.3605826      7  2.100
  local pseudopotential read in
  partial core-charges read in
  partial kinetic energy density read in
  atomic valenz-charges read in
  non local Contribution for L=           0  read in
    real space projection operators read in
  non local Contribution for L=           0  read in
    real space projection operators read in
  non local Contribution for L=           1  read in
    real space projection operators read in
  non local Contribution for L=           1  read in
    real space projection operators read in
  non local Contribution for L=           2  read in
    real space projection operators read in
    PAW grid and wavefunctions read in

   number of l-projection  operators is LMAX  =           5
   number of lm-projection operators is LMMAX =          13

 -----------------------------------------------------------------------------
|                                                                             |
|               ----> ADVICE to this user running VASP <----                  |
|                                                                             |
|     You enforced a specific xc type in the INCAR file but a different       |
|     type was found in the POTCAR file.                                      |
|     I HOPE YOU KNOW WHAT YOU ARE DOING!                                     |
|                                                                             |
 -----------------------------------------------------------------------------

  PAW_PBE Ga_d 06Jul2010                :
 energy of atom  1       EATOM=-2148.8298
 kinetic energy error for atom=    0.0008 (will be added to EATOM!!)
  PAW_PBE As 22Sep2009                  :
 energy of atom  2       EATOM= -170.1867
 kinetic energy error for atom=    0.0003 (will be added to EATOM!!)


 POSCAR: Ga4 As4
  positions in direct lattice
  No initial velocities read in
 exchange correlation table for  LEXCH =       14
   RHO(1)=    0.500       N(1)  =     2000
   RHO(2)=  100.500       N(2)  =     4000



--------------------------------------------------------------------------------------------------------


 ion  position               nearest neighbor table
   1  0.000  0.000  0.000-   5 2.49   8 2.49   7 2.49   6 2.49
   2  0.000  0.500  0.500-   6 2.49   7 2.49   5 2.49   8 2.49
   3  0.500  0.000  0.500-   6 2.49   7 2.49   5 2.49   8 2.49
   4  0.500  0.500  0.000-   5 2.49   8 2.49   7 2.49   6 2.49
   5  0.250  0.750  0.750-   1 2.49   4 2.49   3 2.49   2 2.49
   6  0.250  0.250  0.250-   2 2.49   3 2.49   1 2.49   4 2.49
   7  0.750  0.750  0.250-   2 2.49   3 2.49   1 2.49   4 2.49
   8  0.750  0.250  0.750-   1 2.49   4 2.49   3 2.49   2 2.49


IMPORTANT INFORMATION: All symmetrisations will be switched off!
NOSYMM: (Re-)initialisation of all symmetry stuff for point group C_1.


----------------------------------------------------------------------------------------

                                     Primitive cell

  volume of cell :     190.1274

  direct lattice vectors                    reciprocal lattice vectors
     5.750182099  0.000000000  0.000000000     0.173907536 -0.000000000  0.000000000
     0.000000000  5.750182099  0.000000000     0.000000000  0.173907536  0.000000000
     0.000000000  0.000000000  5.750182099    -0.000000000 -0.000000000  0.173907536

  length of vectors
     5.750182099  5.750182099  5.750182099     0.173907536  0.173907536  0.173907536

  position of ions in fractional coordinates (direct lattice)
     0.000000000  0.000000000  0.000000000
     0.000000000  0.500000000  0.500000000
     0.500000000  0.000000000  0.500000000
     0.500000000  0.500000000  0.000000000
     0.250000000  0.750000000  0.750000000
     0.250000000  0.250000000  0.250000000
     0.750000000  0.750000000  0.250000000
     0.750000000  0.250000000  0.750000000

  ion indices of the primitive-cell ions
   primitive index   ion index
                 1           1
                 2           2
                 3           3
                 4           4
                 5           5
                 6           6
                 7           7
                 8           8

----------------------------------------------------------------------------------------



 KPOINTS: pymatgen with grid density = 6000 / numb

Automatic generation of k-mesh.
 Grid dimensions read from file:
 generate k-points for:    9    9    9

 Generating k-lattice:

  Cartesian coordinates                     Fractional coordinates (reciprocal lattice)
     0.019323060 -0.000000000  0.000000000     0.111111111  0.000000000  0.000000000
     0.000000000  0.019323060  0.000000000     0.000000000  0.111111111  0.000000000
    -0.000000000 -0.000000000  0.019323060     0.000000000 -0.000000000  0.111111111

  Length of vectors
     0.019323060  0.019323060  0.019323060

  Shift w.r.t. Gamma in fractional coordinates (k-lattice)
     0.000000000  0.000000000  0.000000000

 TETIRR: Found   2184 inequivalent tetrahedra from     4374

 Subroutine IBZKPT returns following result:
 ===========================================

 Found    365 irreducible k-points:

 Following reciprocal coordinates:
            Coordinates               Weight
  0.000000  0.000000  0.000000      1.000000
  0.111111  0.000000  0.000000      2.000000
  0.000000  0.111111  0.000000      2.000000
  0.000000  0.000000  0.111111      2.000000
  0.222222  0.000000  0.000000      2.000000
  0.000000  0.222222  0.000000      2.000000
  0.000000  0.000000  0.222222      2.000000
  0.333333  0.000000  0.000000      2.000000
  0.000000  0.333333  0.000000      2.000000
  0.000000  0.000000  0.333333      2.000000
  0.444444  0.000000  0.000000      2.000000
  0.000000  0.444444  0.000000      2.000000
  0.000000  0.000000  0.444444      2.000000
  0.111111  0.111111  0.000000      2.000000
  0.000000  0.111111  0.111111      2.000000
  0.111111  0.000000  0.111111      2.000000
 -0.111111  0.111111  0.000000      2.000000
 -0.111111  0.000000  0.111111      2.000000
  0.000000 -0.111111  0.111111      2.000000
  0.222222  0.111111  0.000000      2.000000
  0.000000  0.222222  0.111111      2.000000
  0.111111  0.000000  0.222222      2.000000
 -0.111111  0.222222  0.000000      2.000000
 -0.222222  0.000000  0.111111      2.000000
  0.000000  0.111111  0.222222      2.000000
  0.000000 -0.222222  0.111111      2.000000
 -0.111111  0.000000  0.222222      2.000000
  0.222222  0.000000  0.111111      2.000000
  0.000000 -0.111111  0.222222      2.000000
  0.222222 -0.111111  0.000000      2.000000
  0.111111  0.222222  0.000000      2.000000
  0.333333  0.111111  0.000000      2.000000
  0.000000  0.333333  0.111111      2.000000
  0.111111  0.000000  0.333333      2.000000
 -0.111111  0.333333  0.000000      2.000000
 -0.333333  0.000000  0.111111      2.000000
  0.000000  0.111111  0.333333      2.000000
  0.000000 -0.333333  0.111111      2.000000
 -0.111111  0.000000  0.333333      2.000000
  0.333333  0.000000  0.111111      2.000000
  0.000000 -0.111111  0.333333      2.000000
  0.333333 -0.111111  0.000000      2.000000
  0.111111  0.333333  0.000000      2.000000
  0.444444  0.111111  0.000000      2.000000
  0.000000  0.444444  0.111111      2.000000
  0.111111  0.000000  0.444444      2.000000
 -0.111111  0.444444  0.000000      2.000000
 -0.444444  0.000000  0.111111      2.000000
  0.000000  0.111111  0.444444      2.000000
  0.000000 -0.444444  0.111111      2.000000
 -0.111111  0.000000  0.444444      2.000000
  0.444444  0.000000  0.111111      2.000000
  0.000000 -0.111111  0.444444      2.000000
  0.444444 -0.111111  0.000000      2.000000
  0.111111  0.444444  0.000000      2.000000
  0.222222  0.222222  0.000000      2.000000
  0.000000  0.222222  0.222222      2.000000
  0.222222  0.000000  0.222222      2.000000
 -0.222222  0.222222  0.000000      2.000000
 -0.222222  0.000000  0.222222      2.000000
  0.000000 -0.222222  0.222222      2.000000
  0.333333  0.222222  0.000000      2.000000
  0.000000  0.333333  0.222222      2.000000
  0.222222  0.000000  0.333333      2.000000
 -0.222222  0.333333  0.000000      2.000000
 -0.333333  0.000000  0.222222      2.000000
  0.000000  0.222222  0.333333      2.000000
  0.000000 -0.333333  0.222222      2.000000
 -0.222222  0.000000  0.333333      2.000000
  0.333333  0.000000  0.222222      2.000000
  0.000000 -0.222222  0.333333      2.000000
  0.333333 -0.222222  0.000000      2.000000
  0.222222  0.333333  0.000000      2.000000
  0.444444  0.222222  0.000000      2.000000
  0.000000  0.444444  0.222222      2.000000
  0.222222  0.000000  0.444444      2.000000
 -0.222222  0.444444  0.000000      2.000000
 -0.444444  0.000000  0.222222      2.000000
  0.000000  0.222222  0.444444      2.000000
  0.000000 -0.444444  0.222222      2.000000
 -0.222222  0.000000  0.444444      2.000000
  0.444444  0.000000  0.222222      2.000000
  0.000000 -0.222222  0.444444      2.000000
  0.444444 -0.222222  0.000000      2.000000
  0.222222  0.444444  0.000000      2.000000
  0.333333  0.333333  0.000000      2.000000
  0.000000  0.333333  0.333333      2.000000
  0.333333  0.000000  0.333333      2.000000
 -0.333333  0.333333  0.000000      2.000000
 -0.333333  0.000000  0.333333      2.000000
  0.000000 -0.333333  0.333333      2.000000
  0.444444  0.333333  0.000000      2.000000
  0.000000  0.444444  0.333333      2.000000
  0.333333  0.000000  0.444444      2.000000
 -0.333333  0.444444  0.000000      2.000000
 -0.444444  0.000000  0.333333      2.000000
  0.000000  0.333333  0.444444      2.000000
  0.000000 -0.444444  0.333333      2.000000
 -0.333333  0.000000  0.444444      2.000000
  0.444444  0.000000  0.333333      2.000000
  0.000000 -0.333333  0.444444      2.000000
  0.444444 -0.333333  0.000000      2.000000
  0.333333  0.444444  0.000000      2.000000
  0.444444  0.444444  0.000000      2.000000
  0.000000  0.444444  0.444444      2.000000
  0.444444  0.000000  0.444444      2.000000
 -0.444444  0.444444  0.000000      2.000000
 -0.444444  0.000000  0.444444      2.000000
  0.000000 -0.444444  0.444444      2.000000
  0.111111  0.111111  0.111111      2.000000
 -0.111111  0.111111  0.111111      2.000000
 -0.111111 -0.111111  0.111111      2.000000
  0.111111 -0.111111  0.111111      2.000000
  0.222222  0.111111  0.111111      2.000000
  0.111111  0.222222  0.111111      2.000000
  0.111111  0.111111  0.222222      2.000000
 -0.111111  0.222222  0.111111      2.000000
 -0.222222  0.111111  0.111111      2.000000
 -0.111111  0.111111  0.222222      2.000000
 -0.222222 -0.111111  0.111111      2.000000
 -0.111111 -0.222222  0.111111      2.000000
 -0.111111 -0.111111  0.222222      2.000000
  0.111111 -0.222222  0.111111      2.000000
  0.222222 -0.111111  0.111111      2.000000
  0.111111 -0.111111  0.222222      2.000000
  0.333333  0.111111  0.111111      2.000000
  0.111111  0.333333  0.111111      2.000000
  0.111111  0.111111  0.333333      2.000000
 -0.111111  0.333333  0.111111      2.000000
 -0.333333  0.111111  0.111111      2.000000
 -0.111111  0.111111  0.333333      2.000000
 -0.333333 -0.111111  0.111111      2.000000
 -0.111111 -0.333333  0.111111      2.000000
 -0.111111 -0.111111  0.333333      2.000000
  0.111111 -0.333333  0.111111      2.000000
  0.333333 -0.111111  0.111111      2.000000
  0.111111 -0.111111  0.333333      2.000000
  0.444444  0.111111  0.111111      2.000000
  0.111111  0.444444  0.111111      2.000000
  0.111111  0.111111  0.444444      2.000000
 -0.111111  0.444444  0.111111      2.000000
 -0.444444  0.111111  0.111111      2.000000
 -0.111111  0.111111  0.444444      2.000000
 -0.444444 -0.111111  0.111111      2.000000
 -0.111111 -0.444444  0.111111      2.000000
 -0.111111 -0.111111  0.444444      2.000000
  0.111111 -0.444444  0.111111      2.000000
  0.444444 -0.111111  0.111111      2.000000
  0.111111 -0.111111  0.444444      2.000000
  0.222222  0.222222  0.111111      2.000000
  0.111111  0.222222  0.222222      2.000000
  0.222222  0.111111  0.222222      2.000000
 -0.222222  0.222222  0.111111      2.000000
 -0.222222  0.111111  0.222222      2.000000
 -0.111111  0.222222  0.222222      2.000000
 -0.222222 -0.222222  0.111111      2.000000
 -0.111111 -0.222222  0.222222      2.000000
 -0.222222 -0.111111  0.222222      2.000000
  0.222222 -0.222222  0.111111      2.000000
  0.222222 -0.111111  0.222222      2.000000
  0.111111 -0.222222  0.222222      2.000000
  0.333333  0.222222  0.111111      2.000000
  0.111111  0.333333  0.222222      2.000000
  0.222222  0.111111  0.333333      2.000000
 -0.222222  0.333333  0.111111      2.000000
 -0.333333  0.111111  0.222222      2.000000
 -0.111111  0.222222  0.333333      2.000000
 -0.333333 -0.222222  0.111111      2.000000
 -0.111111 -0.333333  0.222222      2.000000
 -0.222222 -0.111111  0.333333      2.000000
  0.222222 -0.333333  0.111111      2.000000
  0.333333 -0.111111  0.222222      2.000000
  0.111111 -0.222222  0.333333      2.000000
  0.111111 -0.333333 -0.222222      2.000000
  0.222222 -0.111111 -0.333333      2.000000
  0.333333 -0.222222 -0.111111      2.000000
  0.111111  0.222222 -0.333333      2.000000
  0.222222  0.333333 -0.111111      2.000000
  0.333333  0.111111 -0.222222      2.000000
 -0.222222  0.111111 -0.333333      2.000000
 -0.333333  0.222222 -0.111111      2.000000
 -0.111111  0.333333 -0.222222      2.000000
 -0.333333 -0.111111 -0.222222      2.000000
 -0.222222 -0.333333 -0.111111      2.000000
 -0.111111 -0.222222 -0.333333      2.000000
  0.444444  0.222222  0.111111      2.000000
  0.111111  0.444444  0.222222      2.000000
  0.222222  0.111111  0.444444      2.000000
 -0.222222  0.444444  0.111111      2.000000
 -0.444444  0.111111  0.222222      2.000000
 -0.111111  0.222222  0.444444      2.000000
 -0.444444 -0.222222  0.111111      2.000000
 -0.111111 -0.444444  0.222222      2.000000
 -0.222222 -0.111111  0.444444      2.000000
  0.222222 -0.444444  0.111111      2.000000
  0.444444 -0.111111  0.222222      2.000000
  0.111111 -0.222222  0.444444      2.000000
  0.111111 -0.444444 -0.222222      2.000000
  0.222222 -0.111111 -0.444444      2.000000
  0.444444 -0.222222 -0.111111      2.000000
  0.111111  0.222222 -0.444444      2.000000
  0.222222  0.444444 -0.111111      2.000000
  0.444444  0.111111 -0.222222      2.000000
 -0.222222  0.111111 -0.444444      2.000000
 -0.444444  0.222222 -0.111111      2.000000
 -0.111111  0.444444 -0.222222      2.000000
 -0.444444 -0.111111 -0.222222      2.000000
 -0.222222 -0.444444 -0.111111      2.000000
 -0.111111 -0.222222 -0.444444      2.000000
  0.333333  0.333333  0.111111      2.000000
  0.111111  0.333333  0.333333      2.000000
  0.333333  0.111111  0.333333      2.000000
 -0.333333  0.333333  0.111111      2.000000
 -0.333333  0.111111  0.333333      2.000000
 -0.111111  0.333333  0.333333      2.000000
 -0.333333 -0.333333  0.111111      2.000000
 -0.111111 -0.333333  0.333333      2.000000
 -0.333333 -0.111111  0.333333      2.000000
  0.333333 -0.333333  0.111111      2.000000
  0.333333 -0.111111  0.333333      2.000000
  0.111111 -0.333333  0.333333      2.000000
  0.444444  0.333333  0.111111      2.000000
  0.111111  0.444444  0.333333      2.000000
  0.333333  0.111111  0.444444      2.000000
 -0.333333  0.444444  0.111111      2.000000
 -0.444444  0.111111  0.333333      2.000000
 -0.111111  0.333333  0.444444      2.000000
 -0.444444 -0.333333  0.111111      2.000000
 -0.111111 -0.444444  0.333333      2.000000
 -0.333333 -0.111111  0.444444      2.000000
  0.333333 -0.444444  0.111111      2.000000
  0.444444 -0.111111  0.333333      2.000000
  0.111111 -0.333333  0.444444      2.000000
  0.111111 -0.444444 -0.333333      2.000000
  0.333333 -0.111111 -0.444444      2.000000
  0.444444 -0.333333 -0.111111      2.000000
  0.111111  0.333333 -0.444444      2.000000
  0.333333  0.444444 -0.111111      2.000000
  0.444444  0.111111 -0.333333      2.000000
 -0.333333  0.111111 -0.444444      2.000000
 -0.444444  0.333333 -0.111111      2.000000
 -0.111111  0.444444 -0.333333      2.000000
 -0.444444 -0.111111 -0.333333      2.000000
 -0.333333 -0.444444 -0.111111      2.000000
 -0.111111 -0.333333 -0.444444      2.000000
  0.444444  0.444444  0.111111      2.000000
  0.111111  0.444444  0.444444      2.000000
  0.444444  0.111111  0.444444      2.000000
 -0.444444  0.444444  0.111111      2.000000
 -0.444444  0.111111  0.444444      2.000000
 -0.111111  0.444444  0.444444      2.000000
 -0.444444 -0.444444  0.111111      2.000000
 -0.111111 -0.444444  0.444444      2.000000
 -0.444444 -0.111111  0.444444      2.000000
  0.444444 -0.444444  0.111111      2.000000
  0.444444 -0.111111  0.444444      2.000000
  0.111111 -0.444444  0.444444      2.000000
  0.222222  0.222222  0.222222      2.000000
 -0.222222  0.222222  0.222222      2.000000
 -0.222222 -0.222222  0.222222      2.000000
  0.222222 -0.222222  0.222222      2.000000
  0.333333  0.222222  0.222222      2.000000
  0.222222  0.333333  0.222222      2.000000
  0.222222  0.222222  0.333333      2.000000
 -0.222222  0.333333  0.222222      2.000000
 -0.333333  0.222222  0.222222      2.000000
 -0.222222  0.222222  0.333333      2.000000
 -0.333333 -0.222222  0.222222      2.000000
 -0.222222 -0.333333  0.222222      2.000000
 -0.222222 -0.222222  0.333333      2.000000
  0.222222 -0.333333  0.222222      2.000000
  0.333333 -0.222222  0.222222      2.000000
  0.222222 -0.222222  0.333333      2.000000
  0.444444  0.222222  0.222222      2.000000
  0.222222  0.444444  0.222222      2.000000
  0.222222  0.222222  0.444444      2.000000
 -0.222222  0.444444  0.222222      2.000000
 -0.444444  0.222222  0.222222      2.000000
 -0.222222  0.222222  0.444444      2.000000
 -0.444444 -0.222222  0.222222      2.000000
 -0.222222 -0.444444  0.222222      2.000000
 -0.222222 -0.222222  0.444444      2.000000
  0.222222 -0.444444  0.222222      2.000000
  0.444444 -0.222222  0.222222      2.000000
  0.222222 -0.222222  0.444444      2.000000
  0.333333  0.333333  0.222222      2.000000
  0.222222  0.333333  0.333333      2.000000
  0.333333  0.222222  0.333333      2.000000
 -0.333333  0.333333  0.222222      2.000000
 -0.333333  0.222222  0.333333      2.000000
 -0.222222  0.333333  0.333333      2.000000
 -0.333333 -0.333333  0.222222      2.000000
 -0.222222 -0.333333  0.333333      2.000000
 -0.333333 -0.222222  0.333333      2.000000
  0.333333 -0.333333  0.222222      2.000000
  0.333333 -0.222222  0.333333      2.000000
  0.222222 -0.333333  0.333333      2.000000
  0.444444  0.333333  0.222222      2.000000
  0.222222  0.444444  0.333333      2.000000
  0.333333  0.222222  0.444444      2.000000
 -0.333333  0.444444  0.222222      2.000000
 -0.444444  0.222222  0.333333      2.000000
 -0.222222  0.333333  0.444444      2.000000
 -0.444444 -0.333333  0.222222      2.000000
 -0.222222 -0.444444  0.333333      2.000000
 -0.333333 -0.222222  0.444444      2.000000
  0.333333 -0.444444  0.222222      2.000000
  0.444444 -0.222222  0.333333      2.000000
  0.222222 -0.333333  0.444444      2.000000
  0.222222 -0.444444 -0.333333      2.000000
  0.333333 -0.222222 -0.444444      2.000000
  0.444444 -0.333333 -0.222222      2.000000
  0.222222  0.333333 -0.444444      2.000000
  0.333333  0.444444 -0.222222      2.000000
  0.444444  0.222222 -0.333333      2.000000
 -0.333333  0.222222 -0.444444      2.000000
 -0.444444  0.333333 -0.222222      2.000000
 -0.222222  0.444444 -0.333333      2.000000
 -0.444444 -0.222222 -0.333333      2.000000
 -0.333333 -0.444444 -0.222222      2.000000
 -0.222222 -0.333333 -0.444444      2.000000
  0.444444  0.444444  0.222222      2.000000
  0.222222  0.444444  0.444444      2.000000
  0.444444  0.222222  0.444444      2.000000
 -0.444444  0.444444  0.222222      2.000000
 -0.444444  0.222222  0.444444      2.000000
 -0.222222  0.444444  0.444444      2.000000
 -0.444444 -0.444444  0.222222      2.000000
 -0.222222 -0.444444  0.444444      2.000000
 -0.444444 -0.222222  0.444444      2.000000
  0.444444 -0.444444  0.222222      2.000000
  0.444444 -0.222222  0.444444      2.000000
  0.222222 -0.444444  0.444444      2.000000
  0.333333  0.333333  0.333333      2.000000
 -0.333333  0.333333  0.333333      2.000000
 -0.333333 -0.333333  0.333333      2.000000
  0.333333 -0.333333  0.333333      2.000000
  0.444444  0.333333  0.333333      2.000000
  0.333333  0.444444  0.333333      2.000000
  0.333333  0.333333  0.444444      2.000000
 -0.333333  0.444444  0.333333      2.000000
 -0.444444  0.333333  0.333333      2.000000
 -0.333333  0.333333  0.444444      2.000000
 -0.444444 -0.333333  0.333333      2.000000
 -0.333333 -0.444444  0.333333      2.000000
 -0.333333 -0.333333  0.444444      2.000000
  0.333333 -0.444444  0.333333      2.000000
  0.444444 -0.333333  0.333333      2.000000
  0.333333 -0.333333  0.444444      2.000000
  0.444444  0.444444  0.333333      2.000000
  0.333333  0.444444  0.444444      2.000000
  0.444444  0.333333  0.444444      2.000000
 -0.444444  0.444444  0.333333      2.000000
 -0.444444  0.333333  0.444444      2.000000
 -0.333333  0.444444  0.444444      2.000000
 -0.444444 -0.444444  0.333333      2.000000
 -0.333333 -0.444444  0.444444      2.000000
 -0.444444 -0.333333  0.444444      2.000000
  0.444444 -0.444444  0.333333      2.000000
  0.444444 -0.333333  0.444444      2.000000
  0.333333 -0.444444  0.444444      2.000000
  0.444444  0.444444  0.444444      2.000000
 -0.444444  0.444444  0.444444      2.000000
 -0.444444 -0.444444  0.444444      2.000000
  0.444444 -0.444444  0.444444      2.000000

 Following cartesian coordinates:
            Coordinates               Weight
  0.000000  0.000000  0.000000      1.000000
  0.019323  0.000000  0.000000      2.000000
  0.000000  0.019323  0.000000      2.000000
  0.000000  0.000000  0.019323      2.000000
  0.038646  0.000000  0.000000      2.000000
  0.000000  0.038646  0.000000      2.000000
  0.000000  0.000000  0.038646      2.000000
  0.057969  0.000000  0.000000      2.000000
  0.000000  0.057969  0.000000      2.000000
  0.000000  0.000000  0.057969      2.000000
  0.077292  0.000000  0.000000      2.000000
  0.000000  0.077292  0.000000      2.000000
  0.000000  0.000000  0.077292      2.000000
  0.019323  0.019323  0.000000      2.000000
  0.000000  0.019323  0.019323      2.000000
  0.019323  0.000000  0.019323      2.000000
 -0.019323  0.019323  0.000000      2.000000
 -0.019323  0.000000  0.019323      2.000000
  0.000000 -0.019323  0.019323      2.000000
  0.038646  0.019323  0.000000      2.000000
  0.000000  0.038646  0.019323      2.000000
  0.019323  0.000000  0.038646      2.000000
 -0.019323  0.038646  0.000000      2.000000
 -0.038646  0.000000  0.019323      2.000000
  0.000000  0.019323  0.038646      2.000000
  0.000000 -0.038646  0.019323      2.000000
 -0.019323  0.000000  0.038646      2.000000
  0.038646  0.000000  0.019323      2.000000
  0.000000 -0.019323  0.038646      2.000000
  0.038646 -0.019323  0.000000      2.000000
  0.019323  0.038646  0.000000      2.000000
  0.057969  0.019323  0.000000      2.000000
  0.000000  0.057969  0.019323      2.000000
  0.019323  0.000000  0.057969      2.000000
 -0.019323  0.057969  0.000000      2.000000
 -0.057969  0.000000  0.019323      2.000000
  0.000000  0.019323  0.057969      2.000000
  0.000000 -0.057969  0.019323      2.000000
 -0.019323  0.000000  0.057969      2.000000
  0.057969  0.000000  0.019323      2.000000
  0.000000 -0.019323  0.057969      2.000000
  0.057969 -0.019323  0.000000      2.000000
  0.019323  0.057969  0.000000      2.000000
  0.077292  0.019323  0.000000      2.000000
  0.000000  0.077292  0.019323      2.000000
  0.019323  0.000000  0.077292      2.000000
 -0.019323  0.077292  0.000000      2.000000
 -0.077292  0.000000  0.019323      2.000000
  0.000000  0.019323  0.077292      2.000000
  0.000000 -0.077292  0.019323      2.000000
 -0.019323  0.000000  0.077292      2.000000
  0.077292  0.000000  0.019323      2.000000
  0.000000 -0.019323  0.077292      2.000000
  0.077292 -0.019323  0.000000      2.000000
  0.019323  0.077292  0.000000      2.000000
  0.038646  0.038646  0.000000      2.000000
  0.000000  0.038646  0.038646      2.000000
  0.038646  0.000000  0.038646      2.000000
 -0.038646  0.038646  0.000000      2.000000
 -0.038646  0.000000  0.038646      2.000000
  0.000000 -0.038646  0.038646      2.000000
  0.057969  0.038646  0.000000      2.000000
  0.000000  0.057969  0.038646      2.000000
  0.038646  0.000000  0.057969      2.000000
 -0.038646  0.057969  0.000000      2.000000
 -0.057969  0.000000  0.038646      2.000000
  0.000000  0.038646  0.057969      2.000000
  0.000000 -0.057969  0.038646      2.000000
 -0.038646  0.000000  0.057969      2.000000
  0.057969  0.000000  0.038646      2.000000
  0.000000 -0.038646  0.057969      2.000000
  0.057969 -0.038646  0.000000      2.000000
  0.038646  0.057969  0.000000      2.000000
  0.077292  0.038646  0.000000      2.000000
  0.000000  0.077292  0.038646      2.000000
  0.038646  0.000000  0.077292      2.000000
 -0.038646  0.077292  0.000000      2.000000
 -0.077292  0.000000  0.038646      2.000000
  0.000000  0.038646  0.077292      2.000000
  0.000000 -0.077292  0.038646      2.000000
 -0.038646  0.000000  0.077292      2.000000
  0.077292  0.000000  0.038646      2.000000
  0.000000 -0.038646  0.077292      2.000000
  0.077292 -0.038646  0.000000      2.000000
  0.038646  0.077292  0.000000      2.000000
  0.057969  0.057969  0.000000      2.000000
  0.000000  0.057969  0.057969      2.000000
  0.057969  0.000000  0.057969      2.000000
 -0.057969  0.057969  0.000000      2.000000
 -0.057969  0.000000  0.057969      2.000000
  0.000000 -0.057969  0.057969      2.000000
  0.077292  0.057969  0.000000      2.000000
  0.000000  0.077292  0.057969      2.000000
  0.057969  0.000000  0.077292      2.000000
 -0.057969  0.077292  0.000000      2.000000
 -0.077292  0.000000  0.057969      2.000000
  0.000000  0.057969  0.077292      2.000000
  0.000000 -0.077292  0.057969      2.000000
 -0.057969  0.000000  0.077292      2.000000
  0.077292  0.000000  0.057969      2.000000
  0.000000 -0.057969  0.077292      2.000000
  0.077292 -0.057969  0.000000      2.000000
  0.057969  0.077292  0.000000      2.000000
  0.077292  0.077292  0.000000      2.000000
  0.000000  0.077292  0.077292      2.000000
  0.077292  0.000000  0.077292      2.000000
 -0.077292  0.077292  0.000000      2.000000
 -0.077292  0.000000  0.077292      2.000000
  0.000000 -0.077292  0.077292      2.000000
  0.019323  0.019323  0.019323      2.000000
 -0.019323  0.019323  0.019323      2.000000
 -0.019323 -0.019323  0.019323      2.000000
  0.019323 -0.019323  0.019323      2.000000
  0.038646  0.019323  0.019323      2.000000
  0.019323  0.038646  0.019323      2.000000
  0.019323  0.019323  0.038646      2.000000
 -0.019323  0.038646  0.019323      2.000000
 -0.038646  0.019323  0.019323      2.000000
 -0.019323  0.019323  0.038646      2.000000
 -0.038646 -0.019323  0.019323      2.000000
 -0.019323 -0.038646  0.019323      2.000000
 -0.019323 -0.019323  0.038646      2.000000
  0.019323 -0.038646  0.019323      2.000000
  0.038646 -0.019323  0.019323      2.000000
  0.019323 -0.019323  0.038646      2.000000
  0.057969  0.019323  0.019323      2.000000
  0.019323  0.057969  0.019323      2.000000
  0.019323  0.019323  0.057969      2.000000
 -0.019323  0.057969  0.019323      2.000000
 -0.057969  0.019323  0.019323      2.000000
 -0.019323  0.019323  0.057969      2.000000
 -0.057969 -0.019323  0.019323      2.000000
 -0.019323 -0.057969  0.019323      2.000000
 -0.019323 -0.019323  0.057969      2.000000
  0.019323 -0.057969  0.019323      2.000000
  0.057969 -0.019323  0.019323      2.000000
  0.019323 -0.019323  0.057969      2.000000
  0.077292  0.019323  0.019323      2.000000
  0.019323  0.077292  0.019323      2.000000
  0.019323  0.019323  0.077292      2.000000
 -0.019323  0.077292  0.019323      2.000000
 -0.077292  0.019323  0.019323      2.000000
 -0.019323  0.019323  0.077292      2.000000
 -0.077292 -0.019323  0.019323      2.000000
 -0.019323 -0.077292  0.019323      2.000000
 -0.019323 -0.019323  0.077292      2.000000
  0.019323 -0.077292  0.019323      2.000000
  0.077292 -0.019323  0.019323      2.000000
  0.019323 -0.019323  0.077292      2.000000
  0.038646  0.038646  0.019323      2.000000
  0.019323  0.038646  0.038646      2.000000
  0.038646  0.019323  0.038646      2.000000
 -0.038646  0.038646  0.019323      2.000000
 -0.038646  0.019323  0.038646      2.000000
 -0.019323  0.038646  0.038646      2.000000
 -0.038646 -0.038646  0.019323      2.000000
 -0.019323 -0.038646  0.038646      2.000000
 -0.038646 -0.019323  0.038646      2.000000
  0.038646 -0.038646  0.019323      2.000000
  0.038646 -0.019323  0.038646      2.000000
  0.019323 -0.038646  0.038646      2.000000
  0.057969  0.038646  0.019323      2.000000
  0.019323  0.057969  0.038646      2.000000
  0.038646  0.019323  0.057969      2.000000
 -0.038646  0.057969  0.019323      2.000000
 -0.057969  0.019323  0.038646      2.000000
 -0.019323  0.038646  0.057969      2.000000
 -0.057969 -0.038646  0.019323      2.000000
 -0.019323 -0.057969  0.038646      2.000000
 -0.038646 -0.019323  0.057969      2.000000
  0.038646 -0.057969  0.019323      2.000000
  0.057969 -0.019323  0.038646      2.000000
  0.019323 -0.038646  0.057969      2.000000
  0.019323 -0.057969 -0.038646      2.000000
  0.038646 -0.019323 -0.057969      2.000000
  0.057969 -0.038646 -0.019323      2.000000
  0.019323  0.038646 -0.057969      2.000000
  0.038646  0.057969 -0.019323      2.000000
  0.057969  0.019323 -0.038646      2.000000
 -0.038646  0.019323 -0.057969      2.000000
 -0.057969  0.038646 -0.019323      2.000000
 -0.019323  0.057969 -0.038646      2.000000
 -0.057969 -0.019323 -0.038646      2.000000
 -0.038646 -0.057969 -0.019323      2.000000
 -0.019323 -0.038646 -0.057969      2.000000
  0.077292  0.038646  0.019323      2.000000
  0.019323  0.077292  0.038646      2.000000
  0.038646  0.019323  0.077292      2.000000
 -0.038646  0.077292  0.019323      2.000000
 -0.077292  0.019323  0.038646      2.000000
 -0.019323  0.038646  0.077292      2.000000
 -0.077292 -0.038646  0.019323      2.000000
 -0.019323 -0.077292  0.038646      2.000000
 -0.038646 -0.019323  0.077292      2.000000
  0.038646 -0.077292  0.019323      2.000000
  0.077292 -0.019323  0.038646      2.000000
  0.019323 -0.038646  0.077292      2.000000
  0.019323 -0.077292 -0.038646      2.000000
  0.038646 -0.019323 -0.077292      2.000000
  0.077292 -0.038646 -0.019323      2.000000
  0.019323  0.038646 -0.077292      2.000000
  0.038646  0.077292 -0.019323      2.000000
  0.077292  0.019323 -0.038646      2.000000
 -0.038646  0.019323 -0.077292      2.000000
 -0.077292  0.038646 -0.019323      2.000000
 -0.019323  0.077292 -0.038646      2.000000
 -0.077292 -0.019323 -0.038646      2.000000
 -0.038646 -0.077292 -0.019323      2.000000
 -0.019323 -0.038646 -0.077292      2.000000
  0.057969  0.057969  0.019323      2.000000
  0.019323  0.057969  0.057969      2.000000
  0.057969  0.019323  0.057969      2.000000
 -0.057969  0.057969  0.019323      2.000000
 -0.057969  0.019323  0.057969      2.000000
 -0.019323  0.057969  0.057969      2.000000
 -0.057969 -0.057969  0.019323      2.000000
 -0.019323 -0.057969  0.057969      2.000000
 -0.057969 -0.019323  0.057969      2.000000
  0.057969 -0.057969  0.019323      2.000000
  0.057969 -0.019323  0.057969      2.000000
  0.019323 -0.057969  0.057969      2.000000
  0.077292  0.057969  0.019323      2.000000
  0.019323  0.077292  0.057969      2.000000
  0.057969  0.019323  0.077292      2.000000
 -0.057969  0.077292  0.019323      2.000000
 -0.077292  0.019323  0.057969      2.000000
 -0.019323  0.057969  0.077292      2.000000
 -0.077292 -0.057969  0.019323      2.000000
 -0.019323 -0.077292  0.057969      2.000000
 -0.057969 -0.019323  0.077292      2.000000
  0.057969 -0.077292  0.019323      2.000000
  0.077292 -0.019323  0.057969      2.000000
  0.019323 -0.057969  0.077292      2.000000
  0.019323 -0.077292 -0.057969      2.000000
  0.057969 -0.019323 -0.077292      2.000000
  0.077292 -0.057969 -0.019323      2.000000
  0.019323  0.057969 -0.077292      2.000000
  0.057969  0.077292 -0.019323      2.000000
  0.077292  0.019323 -0.057969      2.000000
 -0.057969  0.019323 -0.077292      2.000000
 -0.077292  0.057969 -0.019323      2.000000
 -0.019323  0.077292 -0.057969      2.000000
 -0.077292 -0.019323 -0.057969      2.000000
 -0.057969 -0.077292 -0.019323      2.000000
 -0.019323 -0.057969 -0.077292      2.000000
  0.077292  0.077292  0.019323      2.000000
  0.019323  0.077292  0.077292      2.000000
  0.077292  0.019323  0.077292      2.000000
 -0.077292  0.077292  0.019323      2.000000
 -0.077292  0.019323  0.077292      2.000000
 -0.019323  0.077292  0.077292      2.000000
 -0.077292 -0.077292  0.019323      2.000000
 -0.019323 -0.077292  0.077292      2.000000
 -0.077292 -0.019323  0.077292      2.000000
  0.077292 -0.077292  0.019323      2.000000
  0.077292 -0.019323  0.077292      2.000000
  0.019323 -0.077292  0.077292      2.000000
  0.038646  0.038646  0.038646      2.000000
 -0.038646  0.038646  0.038646      2.000000
 -0.038646 -0.038646  0.038646      2.000000
  0.038646 -0.038646  0.038646      2.000000
  0.057969  0.038646  0.038646      2.000000
  0.038646  0.057969  0.038646      2.000000
  0.038646  0.038646  0.057969      2.000000
 -0.038646  0.057969  0.038646      2.000000
 -0.057969  0.038646  0.038646      2.000000
 -0.038646  0.038646  0.057969      2.000000
 -0.057969 -0.038646  0.038646      2.000000
 -0.038646 -0.057969  0.038646      2.000000
 -0.038646 -0.038646  0.057969      2.000000
  0.038646 -0.057969  0.038646      2.000000
  0.057969 -0.038646  0.038646      2.000000
  0.038646 -0.038646  0.057969      2.000000
  0.077292  0.038646  0.038646      2.000000
  0.038646  0.077292  0.038646      2.000000
  0.038646  0.038646  0.077292      2.000000
 -0.038646  0.077292  0.038646      2.000000
 -0.077292  0.038646  0.038646      2.000000
 -0.038646  0.038646  0.077292      2.000000
 -0.077292 -0.038646  0.038646      2.000000
 -0.038646 -0.077292  0.038646      2.000000
 -0.038646 -0.038646  0.077292      2.000000
  0.038646 -0.077292  0.038646      2.000000
  0.077292 -0.038646  0.038646      2.000000
  0.038646 -0.038646  0.077292      2.000000
  0.057969  0.057969  0.038646      2.000000
  0.038646  0.057969  0.057969      2.000000
  0.057969  0.038646  0.057969      2.000000
 -0.057969  0.057969  0.038646      2.000000
 -0.057969  0.038646  0.057969      2.000000
 -0.038646  0.057969  0.057969      2.000000
 -0.057969 -0.057969  0.038646      2.000000
 -0.038646 -0.057969  0.057969      2.000000
 -0.057969 -0.038646  0.057969      2.000000
  0.057969 -0.057969  0.038646      2.000000
  0.057969 -0.038646  0.057969      2.000000
  0.038646 -0.057969  0.057969      2.000000
  0.077292  0.057969  0.038646      2.000000
  0.038646  0.077292  0.057969      2.000000
  0.057969  0.038646  0.077292      2.000000
 -0.057969  0.077292  0.038646      2.000000
 -0.077292  0.038646  0.057969      2.000000
 -0.038646  0.057969  0.077292      2.000000
 -0.077292 -0.057969  0.038646      2.000000
 -0.038646 -0.077292  0.057969      2.000000
 -0.057969 -0.038646  0.077292      2.000000
  0.057969 -0.077292  0.038646      2.000000
  0.077292 -0.038646  0.057969      2.000000
  0.038646 -0.057969  0.077292      2.000000
  0.038646 -0.077292 -0.057969      2.000000
  0.057969 -0.038646 -0.077292      2.000000
  0.077292 -0.057969 -0.038646      2.000000
  0.038646  0.057969 -0.077292      2.000000
  0.057969  0.077292 -0.038646      2.000000
  0.077292  0.038646 -0.057969      2.000000
 -0.057969  0.038646 -0.077292      2.000000
 -0.077292  0.057969 -0.038646      2.000000
 -0.038646  0.077292 -0.057969      2.000000
 -0.077292 -0.038646 -0.057969      2.000000
 -0.057969 -0.077292 -0.038646      2.000000
 -0.038646 -0.057969 -0.077292      2.000000
  0.077292  0.077292  0.038646      2.000000
  0.038646  0.077292  0.077292      2.000000
  0.077292  0.038646  0.077292      2.000000
 -0.077292  0.077292  0.038646      2.000000
 -0.077292  0.038646  0.077292      2.000000
 -0.038646  0.077292  0.077292      2.000000
 -0.077292 -0.077292  0.038646      2.000000
 -0.038646 -0.077292  0.077292      2.000000
 -0.077292 -0.038646  0.077292      2.000000
  0.077292 -0.077292  0.038646      2.000000
  0.077292 -0.038646  0.077292      2.000000
  0.038646 -0.077292  0.077292      2.000000
  0.057969  0.057969  0.057969      2.000000
 -0.057969  0.057969  0.057969      2.000000
 -0.057969 -0.057969  0.057969      2.000000
  0.057969 -0.057969  0.057969      2.000000
  0.077292  0.057969  0.057969      2.000000
  0.057969  0.077292  0.057969      2.000000
  0.057969  0.057969  0.077292      2.000000
 -0.057969  0.077292  0.057969      2.000000
 -0.077292  0.057969  0.057969      2.000000
 -0.057969  0.057969  0.077292      2.000000
 -0.077292 -0.057969  0.057969      2.000000
 -0.057969 -0.077292  0.057969      2.000000
 -0.057969 -0.057969  0.077292      2.000000
  0.057969 -0.077292  0.057969      2.000000
  0.077292 -0.057969  0.057969      2.000000
  0.057969 -0.057969  0.077292      2.000000
  0.077292  0.077292  0.057969      2.000000
  0.057969  0.077292  0.077292      2.000000
  0.077292  0.057969  0.077292      2.000000
 -0.077292  0.077292  0.057969      2.000000
 -0.077292  0.057969  0.077292      2.000000
 -0.057969  0.077292  0.077292      2.000000
 -0.077292 -0.077292  0.057969      2.000000
 -0.057969 -0.077292  0.077292      2.000000
 -0.077292 -0.057969  0.077292      2.000000
  0.077292 -0.077292  0.057969      2.000000
  0.077292 -0.057969  0.077292      2.000000
  0.057969 -0.077292  0.077292      2.000000
  0.077292  0.077292  0.077292      2.000000
 -0.077292  0.077292  0.077292      2.000000
 -0.077292 -0.077292  0.077292      2.000000
  0.077292 -0.077292  0.077292      2.000000



--------------------------------------------------------------------------------------------------------




 Dimension of arrays:
   k-points           NKPTS =    365   k-points in BZ     NKDIM =    365   number of bands    NBANDS=     52
   number of dos      NEDOS =    301   number of ions     NIONS =      8
   non local maximal  LDIM  =      6   non local SUM 2l+1 LMDIM =     18
   total plane-waves  NPLWV = 125000
   max r-space proj   IRMAX =      1   max aug-charges    IRDMAX=  27402
   dimension x,y,z NGX =    50 NGY =   50 NGZ =   50
   dimension x,y,z NGXF=   100 NGYF=  100 NGZF=  100
   support grid    NGXF=   100 NGYF=  100 NGZF=  100
   ions per type =               4   4
   NGX,Y,Z   is equivalent  to a cutoff of  14.46, 14.46, 14.46 a.u.
   NGXF,Y,Z  is equivalent  to a cutoff of  28.91, 28.91, 28.91 a.u.

 SYSTEM =  unknown system
 POSCAR =  Ga4 As4

 Startparameter for this run:
   NWRITE =      2    write-flag & timer
   PREC   = accura    normal or accurate (medium, high low for compatibility)
   ISTART =      0    job   : 0-new  1-cont  2-samecut
   ICHARG =      2    charge: 1-file 2-atom 10-const
   ISPIN  =      2    spin polarized calculation?
   LNONCOLLINEAR =      F non collinear calculations
   LSORBIT =      F    spin-orbit coupling
   INIWAV =      1    electr: 0-lowe 1-rand  2-diag
   LASPH  =      T    aspherical Exc in radial PAW
 Electronic Relaxation 1
   ENCUT  =  680.0 eV  49.98 Ry    7.07 a.u.  12.23 12.23 12.23*2*pi/ulx,y,z
   ENINI  =  680.0     initial cutoff
   ENAUG  = 1360.0 eV  augmentation charge cutoff
   NELM   =    200;   NELMIN=  2; NELMDL= -5     # of ELM steps
   EDIFF  = 0.1E-06   stopping-criterion for ELM
   LREAL  =      F    real-space projection
   NLSPLINE    = F    spline interpolate recip. space projectors
   LCOMPAT=      F    compatible to vasp.4.4
   GGA_COMPAT  = T    GGA compatible to vasp.4.4-vasp.4.6
   LMAXPAW     = -100 max onsite density
   LMAXMIX     =    4 max onsite mixed and CHGCAR
   VOSKOWN=      0    Vosko Wilk Nusair interpolation
   ROPT   =    0.00000   0.00000
 Ionic relaxation
   EDIFFG = 0.1E-05   stopping-criterion for IOM
   NSW    =      0    number of steps for IOM
   NBLOCK =      1;   KBLOCK =      1    inner block; outer block
   IBRION =     -1    ionic relax: 0-MD 1-quasi-New 2-CG
   NFREE  =      1    steps in history (QN), initial steepest desc. (CG)
   ISIF   =      2    stress and relaxation
   IWAVPR =     10    prediction:  0-non 1-charg 2-wave 3-comb
   ISYM   =      0    0-nonsym 1-usesym 2-fastsym
   LCORR  =      T    Harris-Foulkes like correction to forces

   POTIM  = 0.5000    time-step for ionic-motion
   TEIN   =    0.0    initial temperature
   TEBEG  =    0.0;   TEEND  =   0.0 temperature during run
   SMASS  =  -3.00    Nose mass-parameter (am)
   estimated Nose-frequenzy (Omega)   =  0.10E-29 period in steps = 0.13E+47 mass=  -0.756E-27a.u.
   SCALEE = 1.0000    scale energy and forces
   NPACO  =    256;   APACO  = 10.0  distance and # of slots for P.C.
   PSTRESS=    0.0 pullay stress

  Mass of Ions in am
   POMASS =  69.72 74.92
  Ionic Valenz
   ZVAL   =  13.00  5.00
  Atomic Wigner-Seitz radii
   RWIGS  =  -1.00 -1.00
  virtual crystal weights
   VCA    =   1.00  1.00
   NELECT =      72.0000    total number of electrons
   NUPDOWN=      -1.0000    fix difference up-down

 DOS related values:
   EMIN   =  10.00;   EMAX   =-10.00  energy-range for DOS
   EFERMI =   0.00
   ISMEAR =    -5;   SIGMA  =   0.05  broadening in eV -4-tet -1-fermi 0-gaus

 Electronic relaxation 2 (details)
   IALGO  =     38    algorithm
   LDIAG  =      T    sub-space diagonalisation (order eigenvalues)
   LSUBROT=      F    optimize rotation matrix (better conditioning)
   TURBO    =      0    0=normal 1=particle mesh
   IRESTART =      0    0=no restart 2=restart with 2 vectors
   NREBOOT  =      0    no. of reboots
   NMIN     =      0    reboot dimension
   EREF     =   0.00    reference energy to select bands
   IMIX   =      4    mixing-type and parameters
     AMIX     =   0.40;   BMIX     =  1.00
     AMIX_MAG =   1.60;   BMIX_MAG =  1.00
     AMIN     =   0.10
     WC   =   100.;   INIMIX=   1;  MIXPRE=   1;  MAXMIX= -45

 Intra band minimization:
   WEIMIN = 0.0000     energy-eigenvalue tresh-hold
   EBREAK =  0.48E-09  absolut break condition
   DEPER  =   0.30     relativ break condition

   TIME   =   0.40     timestep for ELM

  volume/ion in A,a.u.               =      23.77       160.38
  Fermi-wavevector in a.u.,A,eV,Ry     =   1.184415  2.238221 19.086796  1.402840
  Thomas-Fermi vector in A             =   2.320630

 Write flags
   LWAVE        =      T    write WAVECAR
   LDOWNSAMPLE  =      F    k-point downsampling of WAVECAR
   LCHARG       =      F    write CHGCAR
   LVTOT        =      T    write LOCPOT, total local potential
   LVHAR        =      F    write LOCPOT, Hartree potential only
   LELF         =      F    write electronic localiz. function (ELF)
   LORBIT       =     11    0 simple, 1 ext, 2 COOP (PROOUT), +10 PAW based schemes


 Dipole corrections
   LMONO  =      F    monopole corrections only (constant potential shift)
   LDIPOL =      F    correct potential (dipole corrections)
   IDIPOL =      0    1-x, 2-y, 3-z, 4-all directions
   EPSILON=  1.0000000 bulk dielectric constant

 Exchange correlation treatment:
   GGA     =    PS    GGA type
   LEXCH   =    14    internal setting for exchange type
   LIBXC   =     F    Libxc
   VOSKOWN =     0    Vosko Wilk Nusair interpolation
   LHFCALC =     F    Hartree Fock is set to
   LHFONE  =     F    Hartree Fock one center treatment
   AEXX    =    0.0000 exact exchange contribution

 Linear response parameters
   LEPSILON=     F    determine dielectric tensor
   LRPA    =     F    only Hartree local field effects (RPA)
   LNABLA  =     F    use nabla operator in PAW spheres
   LVEL    =     F    velocity operator in full k-point grid
   CSHIFT  =0.1000    complex shift for real part using Kramers Kronig
   OMEGAMAX=  -1.0    maximum frequency
   DEG_THRESHOLD= 0.2000000E-02 threshold for treating states as degnerate
   RTIME   =   -0.100 relaxation time in fs
  (WPLASMAI=    0.000 imaginary part of plasma frequency in eV, 0.658/RTIME)
   DFIELD  = 0.0000000 0.0000000 0.0000000 field for delta impulse in time

  Optional k-point grid parameters
   LKPOINTS_OPT  =     F    use optional k-point grid
   KPOINTS_OPT_MODE=     1    mode for optional k-point grid

 Orbital magnetization related:
   ORBITALMAG=     F  switch on orbital magnetization
   LCHIMAG   =     F  perturbation theory with respect to B field
   DQ        =  0.001000  dq finite difference perturbation B field
   LLRAUG    =     F  two centre corrections for induced B field



--------------------------------------------------------------------------------------------------------


 Static calculation
 charge density and potential will be updated during run
 spin polarized calculation
 Variant of blocked Davidson
 Davidson routine will perform the subspace rotation
 perform sub-space diagonalisation
    after iterative eigenvector-optimisation
 modified Broyden-mixing scheme, WC =      100.0
 initial mixing is a Kerker type mixing with AMIX =  0.4000 and BMIX =      1.0000
 Hartree-type preconditioning will be used
 using additional bands           16
 reciprocal scheme for non local part
 use partial core corrections
 calculate Harris-corrections to forces   (improved forces if not selfconsistent)
 use gradient corrections
 use of overlap-Matrix (Vanderbilt PP)
 Fermi weights with tetrahedron method with Bloechl corrections


--------------------------------------------------------------------------------------------------------


  energy-cutoff  :      680.00
  volume of cell :      190.13
      direct lattice vectors                 reciprocal lattice vectors
     5.750182099  0.000000000  0.000000000     0.173907536 -0.000000000  0.000000000
     0.000000000  5.750182099  0.000000000     0.000000000  0.173907536  0.000000000
     0.000000000  0.000000000  5.750182099    -0.000000000 -0.000000000  0.173907536

  length of vectors
     5.750182099  5.750182099  5.750182099     0.173907536  0.173907536  0.173907536



 k-points in units of 2pi/SCALE and weight: pymatgen with grid density = 6000 / numb
   0.00000000  0.00000000  0.00000000       0.001
   0.01932306  0.00000000  0.00000000       0.003
   0.00000000  0.01932306  0.00000000       0.003
   0.00000000  0.00000000  0.01932306       0.003
   0.03864612  0.00000000  0.00000000       0.003
   0.00000000  0.03864612  0.00000000       0.003
   0.00000000  0.00000000  0.03864612       0.003
   0.05796918  0.00000000  0.00000000       0.003
   0.00000000  0.05796918  0.00000000       0.003
   0.00000000  0.00000000  0.05796918       0.003
   0.07729224  0.00000000  0.00000000       0.003
   0.00000000  0.07729224  0.00000000       0.003
   0.00000000  0.00000000  0.07729224       0.003
   0.01932306  0.01932306  0.00000000       0.003
   0.00000000  0.01932306  0.01932306       0.003
   0.01932306  0.00000000  0.01932306       0.003
  -0.01932306  0.01932306  0.00000000       0.003
  -0.01932306  0.00000000  0.01932306       0.003
   0.00000000 -0.01932306  0.01932306       0.003
   0.03864612  0.01932306  0.00000000       0.003
   0.00000000  0.03864612  0.01932306       0.003
   0.01932306  0.00000000  0.03864612       0.003
  -0.01932306  0.03864612  0.00000000       0.003
  -0.03864612  0.00000000  0.01932306       0.003
   0.00000000  0.01932306  0.03864612       0.003
   0.00000000 -0.03864612  0.01932306       0.003
  -0.01932306  0.00000000  0.03864612       0.003
   0.03864612  0.00000000  0.01932306       0.003
   0.00000000 -0.01932306  0.03864612       0.003
   0.03864612 -0.01932306  0.00000000       0.003
   0.01932306  0.03864612  0.00000000       0.003
   0.05796918  0.01932306  0.00000000       0.003
   0.00000000  0.05796918  0.01932306       0.003
   0.01932306  0.00000000  0.05796918       0.003
  -0.01932306  0.05796918  0.00000000       0.003
  -0.05796918  0.00000000  0.01932306       0.003
   0.00000000  0.01932306  0.05796918       0.003
   0.00000000 -0.05796918  0.01932306       0.003
  -0.01932306  0.00000000  0.05796918       0.003
   0.05796918  0.00000000  0.01932306       0.003
   0.00000000 -0.01932306  0.05796918       0.003
   0.05796918 -0.01932306  0.00000000       0.003
   0.01932306  0.05796918  0.00000000       0.003
   0.07729224  0.01932306  0.00000000       0.003
   0.00000000  0.07729224  0.01932306       0.003
   0.01932306  0.00000000  0.07729224       0.003
  -0.01932306  0.07729224  0.00000000       0.003
  -0.07729224  0.00000000  0.01932306       0.003
   0.00000000  0.01932306  0.07729224       0.003
   0.00000000 -0.07729224  0.01932306       0.003
  -0.01932306  0.00000000  0.07729224       0.003
   0.07729224  0.00000000  0.01932306       0.003
   0.00000000 -0.01932306  0.07729224       0.003
   0.07729224 -0.01932306  0.00000000       0.003
   0.01932306  0.07729224  0.00000000       0.003
   0.03864612  0.03864612  0.00000000       0.003
   0.00000000  0.03864612  0.03864612       0.003
   0.03864612  0.00000000  0.03864612       0.003
  -0.03864612  0.03864612  0.00000000       0.003
  -0.03864612  0.00000000  0.03864612       0.003
   0.00000000 -0.03864612  0.03864612       0.003
   0.05796918  0.03864612  0.00000000       0.003
   0.00000000  0.05796918  0.03864612       0.003
   0.03864612  0.00000000  0.05796918       0.003
  -0.03864612  0.05796918  0.00000000       0.003
  -0.05796918  0.00000000  0.03864612       0.003
   0.00000000  0.03864612  0.05796918       0.003
   0.00000000 -0.05796918  0.03864612       0.003
  -0.03864612  0.00000000  0.05796918       0.003
   0.05796918  0.00000000  0.03864612       0.003
   0.00000000 -0.03864612  0.05796918       0.003
   0.05796918 -0.03864612  0.00000000       0.003
   0.03864612  0.05796918  0.00000000       0.003
   0.07729224  0.03864612  0.00000000       0.003
   0.00000000  0.07729224  0.03864612       0.003
   0.03864612  0.00000000  0.07729224       0.003
  -0.03864612  0.07729224  0.00000000       0.003
  -0.07729224  0.00000000  0.03864612       0.003
   0.00000000  0.03864612  0.07729224       0.003
   0.00000000 -0.07729224  0.03864612       0.003
  -0.03864612  0.00000000  0.07729224       0.003
   0.07729224  0.00000000  0.03864612       0.003
   0.00000000 -0.03864612  0.07729224       0.003
   0.07729224 -0.03864612  0.00000000       0.003
   0.03864612  0.07729224  0.00000000       0.003
   0.05796918  0.05796918  0.00000000       0.003
   0.00000000  0.05796918  0.05796918       0.003
   0.05796918  0.00000000  0.05796918       0.003
  -0.05796918  0.05796918  0.00000000       0.003
  -0.05796918  0.00000000  0.05796918       0.003
   0.00000000 -0.05796918  0.05796918       0.003
   0.07729224  0.05796918  0.00000000       0.003
   0.00000000  0.07729224  0.05796918       0.003
   0.05796918  0.00000000  0.07729224       0.003
  -0.05796918  0.07729224  0.00000000       0.003
  -0.07729224  0.00000000  0.05796918       0.003
   0.00000000  0.05796918  0.07729224       0.003
   0.00000000 -0.07729224  0.05796918       0.003
  -0.05796918  0.00000000  0.07729224       0.003
   0.07729224  0.00000000  0.05796918       0.003
   0.00000000 -0.05796918  0.07729224       0.003
   0.07729224 -0.05796918  0.00000000       0.003
   0.05796918  0.07729224  0.00000000       0.003
   0.07729224  0.07729224  0.00000000       0.003
   0.00000000  0.07729224  0.07729224       0.003
   0.07729224  0.00000000  0.07729224       0.003
  -0.07729224  0.07729224  0.00000000       0.003
  -0.07729224  0.00000000  0.07729224       0.003
   0.00000000 -0.07729224  0.07729224       0.003
   0.01932306  0.01932306  0.01932306       0.003
  -0.01932306  0.01932306  0.01932306       0.003
  -0.01932306 -0.01932306  0.01932306       0.003
   0.01932306 -0.01932306  0.01932306       0.003
   0.03864612  0.01932306  0.01932306       0.003
   0.01932306  0.03864612  0.01932306       0.003
   0.01932306  0.01932306  0.03864612       0.003
  -0.01932306  0.03864612  0.01932306       0.003
  -0.03864612  0.01932306  0.01932306       0.003
  -0.01932306  0.01932306  0.03864612       0.003
  -0.03864612 -0.01932306  0.01932306       0.003
  -0.01932306 -0.03864612  0.01932306       0.003
  -0.01932306 -0.01932306  0.03864612       0.003
   0.01932306 -0.03864612  0.01932306       0.003
   0.03864612 -0.01932306  0.01932306       0.003
   0.01932306 -0.01932306  0.03864612       0.003
   0.05796918  0.01932306  0.01932306       0.003
   0.01932306  0.05796918  0.01932306       0.003
   0.01932306  0.01932306  0.05796918       0.003
  -0.01932306  0.05796918  0.01932306       0.003
  -0.05796918  0.01932306  0.01932306       0.003
  -0.01932306  0.01932306  0.05796918       0.003
  -0.05796918 -0.01932306  0.01932306       0.003
  -0.01932306 -0.05796918  0.01932306       0.003
  -0.01932306 -0.01932306  0.05796918       0.003
   0.01932306 -0.05796918  0.01932306       0.003
   0.05796918 -0.01932306  0.01932306       0.003
   0.01932306 -0.01932306  0.05796918       0.003
   0.07729224  0.01932306  0.01932306       0.003
   0.01932306  0.07729224  0.01932306       0.003
   0.01932306  0.01932306  0.07729224       0.003
  -0.01932306  0.07729224  0.01932306       0.003
  -0.07729224  0.01932306  0.01932306       0.003
  -0.01932306  0.01932306  0.07729224       0.003
  -0.07729224 -0.01932306  0.01932306       0.003
  -0.01932306 -0.07729224  0.01932306       0.003
  -0.01932306 -0.01932306  0.07729224       0.003
   0.01932306 -0.07729224  0.01932306       0.003
   0.07729224 -0.01932306  0.01932306       0.003
   0.01932306 -0.01932306  0.07729224       0.003
   0.03864612  0.03864612  0.01932306       0.003
   0.01932306  0.03864612  0.03864612       0.003
   0.03864612  0.01932306  0.03864612       0.003
  -0.03864612  0.03864612  0.01932306       0.003
  -0.03864612  0.01932306  0.03864612       0.003
  -0.01932306  0.03864612  0.03864612       0.003
  -0.03864612 -0.03864612  0.01932306       0.003
  -0.01932306 -0.03864612  0.03864612       0.003
  -0.03864612 -0.01932306  0.03864612       0.003
   0.03864612 -0.03864612  0.01932306       0.003
   0.03864612 -0.01932306  0.03864612       0.003
   0.01932306 -0.03864612  0.03864612       0.003
   0.05796918  0.03864612  0.01932306       0.003
   0.01932306  0.05796918  0.03864612       0.003
   0.03864612  0.01932306  0.05796918       0.003
  -0.03864612  0.05796918  0.01932306       0.003
  -0.05796918  0.01932306  0.03864612       0.003
  -0.01932306  0.03864612  0.05796918       0.003
  -0.05796918 -0.03864612  0.01932306       0.003
  -0.01932306 -0.05796918  0.03864612       0.003
  -0.03864612 -0.01932306  0.05796918       0.003
   0.03864612 -0.05796918  0.01932306       0.003
   0.05796918 -0.01932306  0.03864612       0.003
   0.01932306 -0.03864612  0.05796918       0.003
   0.01932306 -0.05796918 -0.03864612       0.003
   0.03864612 -0.01932306 -0.05796918       0.003
   0.05796918 -0.03864612 -0.01932306       0.003
   0.01932306  0.03864612 -0.05796918       0.003
   0.03864612  0.05796918 -0.01932306       0.003
   0.05796918  0.01932306 -0.03864612       0.003
  -0.03864612  0.01932306 -0.05796918       0.003
  -0.05796918  0.03864612 -0.01932306       0.003
  -0.01932306  0.05796918 -0.03864612       0.003
  -0.05796918 -0.01932306 -0.03864612       0.003
  -0.03864612 -0.05796918 -0.01932306       0.003
  -0.01932306 -0.03864612 -0.05796918       0.003
   0.07729224  0.03864612  0.01932306       0.003
   0.01932306  0.07729224  0.03864612       0.003
   0.03864612  0.01932306  0.07729224       0.003
  -0.03864612  0.07729224  0.01932306       0.003
  -0.07729224  0.01932306  0.03864612       0.003
  -0.01932306  0.03864612  0.07729224       0.003
  -0.07729224 -0.03864612  0.01932306       0.003
  -0.01932306 -0.07729224  0.03864612       0.003
  -0.03864612 -0.01932306  0.07729224       0.003
   0.03864612 -0.07729224  0.01932306       0.003
   0.07729224 -0.01932306  0.03864612       0.003
   0.01932306 -0.03864612  0.07729224       0.003
   0.01932306 -0.07729224 -0.03864612       0.003
   0.03864612 -0.01932306 -0.07729224       0.003
   0.07729224 -0.03864612 -0.01932306       0.003
   0.01932306  0.03864612 -0.07729224       0.003
   0.03864612  0.07729224 -0.01932306       0.003
   0.07729224  0.01932306 -0.03864612       0.003
  -0.03864612  0.01932306 -0.07729224       0.003
  -0.07729224  0.03864612 -0.01932306       0.003
  -0.01932306  0.07729224 -0.03864612       0.003
  -0.07729224 -0.01932306 -0.03864612       0.003
  -0.03864612 -0.07729224 -0.01932306       0.003
  -0.01932306 -0.03864612 -0.07729224       0.003
   0.05796918  0.05796918  0.01932306       0.003
   0.01932306  0.05796918  0.05796918       0.003
   0.05796918  0.01932306  0.05796918       0.003
  -0.05796918  0.05796918  0.01932306       0.003
  -0.05796918  0.01932306  0.05796918       0.003
  -0.01932306  0.05796918  0.05796918       0.003
  -0.05796918 -0.05796918  0.01932306       0.003
  -0.01932306 -0.05796918  0.05796918       0.003
  -0.05796918 -0.01932306  0.05796918       0.003
   0.05796918 -0.05796918  0.01932306       0.003
   0.05796918 -0.01932306  0.05796918       0.003
   0.01932306 -0.05796918  0.05796918       0.003
   0.07729224  0.05796918  0.01932306       0.003
   0.01932306  0.07729224  0.05796918       0.003
   0.05796918  0.01932306  0.07729224       0.003
  -0.05796918  0.07729224  0.01932306       0.003
  -0.07729224  0.01932306  0.05796918       0.003
  -0.01932306  0.05796918  0.07729224       0.003
  -0.07729224 -0.05796918  0.01932306       0.003
  -0.01932306 -0.07729224  0.05796918       0.003
  -0.05796918 -0.01932306  0.07729224       0.003
   0.05796918 -0.07729224  0.01932306       0.003
   0.07729224 -0.01932306  0.05796918       0.003
   0.01932306 -0.05796918  0.07729224       0.003
   0.01932306 -0.07729224 -0.05796918       0.003
   0.05796918 -0.01932306 -0.07729224       0.003
   0.07729224 -0.05796918 -0.01932306       0.003
   0.01932306  0.05796918 -0.07729224       0.003
   0.05796918  0.07729224 -0.01932306       0.003
   0.07729224  0.01932306 -0.05796918       0.003
  -0.05796918  0.01932306 -0.07729224       0.003
  -0.07729224  0.05796918 -0.01932306       0.003
  -0.01932306  0.07729224 -0.05796918       0.003
  -0.07729224 -0.01932306 -0.05796918       0.003
  -0.05796918 -0.07729224 -0.01932306       0.003
  -0.01932306 -0.05796918 -0.07729224       0.003
   0.07729224  0.07729224  0.01932306       0.003
   0.01932306  0.07729224  0.07729224       0.003
   0.07729224  0.01932306  0.07729224       0.003
  -0.07729224  0.07729224  0.01932306       0.003
  -0.07729224  0.01932306  0.07729224       0.003
  -0.01932306  0.07729224  0.07729224       0.003
  -0.07729224 -0.07729224  0.01932306       0.003
  -0.01932306 -0.07729224  0.07729224       0.003
  -0.07729224 -0.01932306  0.07729224       0.003
   0.07729224 -0.07729224  0.01932306       0.003
   0.07729224 -0.01932306  0.07729224       0.003
   0.01932306 -0.07729224  0.07729224       0.003
   0.03864612  0.03864612  0.03864612       0.003
  -0.03864612  0.03864612  0.03864612       0.003
  -0.03864612 -0.03864612  0.03864612       0.003
   0.03864612 -0.03864612  0.03864612       0.003
   0.05796918  0.03864612  0.03864612       0.003
   0.03864612  0.05796918  0.03864612       0.003
   0.03864612  0.03864612  0.05796918       0.003
  -0.03864612  0.05796918  0.03864612       0.003
  -0.05796918  0.03864612  0.03864612       0.003
  -0.03864612  0.03864612  0.05796918       0.003
  -0.05796918 -0.03864612  0.03864612       0.003
  -0.03864612 -0.05796918  0.03864612       0.003
  -0.03864612 -0.03864612  0.05796918       0.003
   0.03864612 -0.05796918  0.03864612       0.003
   0.05796918 -0.03864612  0.03864612       0.003
   0.03864612 -0.03864612  0.05796918       0.003
   0.07729224  0.03864612  0.03864612       0.003
   0.03864612  0.07729224  0.03864612       0.003
   0.03864612  0.03864612  0.07729224       0.003
  -0.03864612  0.07729224  0.03864612       0.003
  -0.07729224  0.03864612  0.03864612       0.003
  -0.03864612  0.03864612  0.07729224       0.003
  -0.07729224 -0.03864612  0.03864612       0.003
  -0.03864612 -0.07729224  0.03864612       0.003
  -0.03864612 -0.03864612  0.07729224       0.003
   0.03864612 -0.07729224  0.03864612       0.003
   0.07729224 -0.03864612  0.03864612       0.003
   0.03864612 -0.03864612  0.07729224       0.003
   0.05796918  0.05796918  0.03864612       0.003
   0.03864612  0.05796918  0.05796918       0.003
   0.05796918  0.03864612  0.05796918       0.003
  -0.05796918  0.05796918  0.03864612       0.003
  -0.05796918  0.03864612  0.05796918       0.003
  -0.03864612  0.05796918  0.05796918       0.003
  -0.05796918 -0.05796918  0.03864612       0.003
  -0.03864612 -0.05796918  0.05796918       0.003
  -0.05796918 -0.03864612  0.05796918       0.003
   0.05796918 -0.05796918  0.03864612       0.003
   0.05796918 -0.03864612  0.05796918       0.003
   0.03864612 -0.05796918  0.05796918       0.003
   0.07729224  0.05796918  0.03864612       0.003
   0.03864612  0.07729224  0.05796918       0.003
   0.05796918  0.03864612  0.07729224       0.003
  -0.05796918  0.07729224  0.03864612       0.003
  -0.07729224  0.03864612  0.05796918       0.003
  -0.03864612  0.05796918  0.07729224       0.003
  -0.07729224 -0.05796918  0.03864612       0.003
  -0.03864612 -0.07729224  0.05796918       0.003
  -0.05796918 -0.03864612  0.07729224       0.003
   0.05796918 -0.07729224  0.03864612       0.003
   0.07729224 -0.03864612  0.05796918       0.003
   0.03864612 -0.05796918  0.07729224       0.003
   0.03864612 -0.07729224 -0.05796918       0.003
   0.05796918 -0.03864612 -0.07729224       0.003
   0.07729224 -0.05796918 -0.03864612       0.003
   0.03864612  0.05796918 -0.07729224       0.003
   0.05796918  0.07729224 -0.03864612       0.003
   0.07729224  0.03864612 -0.05796918       0.003
  -0.05796918  0.03864612 -0.07729224       0.003
  -0.07729224  0.05796918 -0.03864612       0.003
  -0.03864612  0.07729224 -0.05796918       0.003
  -0.07729224 -0.03864612 -0.05796918       0.003
  -0.05796918 -0.07729224 -0.03864612       0.003
  -0.03864612 -0.05796918 -0.07729224       0.003
   0.07729224  0.07729224  0.03864612       0.003
   0.03864612  0.07729224  0.07729224       0.003
   0.07729224  0.03864612  0.07729224       0.003
  -0.07729224  0.07729224  0.03864612       0.003
  -0.07729224  0.03864612  0.07729224       0.003
  -0.03864612  0.07729224  0.07729224       0.003
  -0.07729224 -0.07729224  0.03864612       0.003
  -0.03864612 -0.07729224  0.07729224       0.003
  -0.07729224 -0.03864612  0.07729224       0.003
   0.07729224 -0.07729224  0.03864612       0.003
   0.07729224 -0.03864612  0.07729224       0.003
   0.03864612 -0.07729224  0.07729224       0.003
   0.05796918  0.05796918  0.05796918       0.003
  -0.05796918  0.05796918  0.05796918       0.003
  -0.05796918 -0.05796918  0.05796918       0.003
   0.05796918 -0.05796918  0.05796918       0.003
   0.07729224  0.05796918  0.05796918       0.003
   0.05796918  0.07729224  0.05796918       0.003
   0.05796918  0.05796918  0.07729224       0.003
  -0.05796918  0.07729224  0.05796918       0.003
  -0.07729224  0.05796918  0.05796918       0.003
  -0.05796918  0.05796918  0.07729224       0.003
  -0.07729224 -0.05796918  0.05796918       0.003
  -0.05796918 -0.07729224  0.05796918       0.003
  -0.05796918 -0.05796918  0.07729224       0.003
   0.05796918 -0.07729224  0.05796918       0.003
   0.07729224 -0.05796918  0.05796918       0.003
   0.05796918 -0.05796918  0.07729224       0.003
   0.07729224  0.07729224  0.05796918       0.003
   0.05796918  0.07729224  0.07729224       0.003
   0.07729224  0.05796918  0.07729224       0.003
  -0.07729224  0.07729224  0.05796918       0.003
  -0.07729224  0.05796918  0.07729224       0.003
  -0.05796918  0.07729224  0.07729224       0.003
  -0.07729224 -0.07729224  0.05796918       0.003
  -0.05796918 -0.07729224  0.07729224       0.003
  -0.07729224 -0.05796918  0.07729224       0.003
   0.07729224 -0.07729224  0.05796918       0.003
   0.07729224 -0.05796918  0.07729224       0.003
   0.05796918 -0.07729224  0.07729224       0.003
   0.07729224  0.07729224  0.07729224       0.003
  -0.07729224  0.07729224  0.07729224       0.003
  -0.07729224 -0.07729224  0.07729224       0.003
   0.07729224 -0.07729224  0.07729224       0.003

 k-points in reciprocal lattice and weights: pymatgen with grid density = 6000 / numb
   0.00000000  0.00000000  0.00000000       0.001
   0.11111111  0.00000000  0.00000000       0.003
   0.00000000  0.11111111  0.00000000       0.003
   0.00000000  0.00000000  0.11111111       0.003
   0.22222222  0.00000000  0.00000000       0.003
   0.00000000  0.22222222  0.00000000       0.003
   0.00000000  0.00000000  0.22222222       0.003
   0.33333333  0.00000000  0.00000000       0.003
   0.00000000  0.33333333  0.00000000       0.003
   0.00000000  0.00000000  0.33333333       0.003
   0.44444444  0.00000000  0.00000000       0.003
   0.00000000  0.44444444  0.00000000       0.003
   0.00000000  0.00000000  0.44444444       0.003
   0.11111111  0.11111111  0.00000000       0.003
   0.00000000  0.11111111  0.11111111       0.003
   0.11111111  0.00000000  0.11111111       0.003
  -0.11111111  0.11111111  0.00000000       0.003
  -0.11111111  0.00000000  0.11111111       0.003
   0.00000000 -0.11111111  0.11111111       0.003
   0.22222222  0.11111111  0.00000000       0.003
   0.00000000  0.22222222  0.11111111       0.003
   0.11111111  0.00000000  0.22222222       0.003
  -0.11111111  0.22222222  0.00000000       0.003
  -0.22222222  0.00000000  0.11111111       0.003
   0.00000000  0.11111111  0.22222222       0.003
   0.00000000 -0.22222222  0.11111111       0.003
  -0.11111111  0.00000000  0.22222222       0.003
   0.22222222  0.00000000  0.11111111       0.003
   0.00000000 -0.11111111  0.22222222       0.003
   0.22222222 -0.11111111  0.00000000       0.003
   0.11111111  0.22222222  0.00000000       0.003
   0.33333333  0.11111111  0.00000000       0.003
   0.00000000  0.33333333  0.11111111       0.003
   0.11111111  0.00000000  0.33333333       0.003
  -0.11111111  0.33333333  0.00000000       0.003
  -0.33333333  0.00000000  0.11111111       0.003
   0.00000000  0.11111111  0.33333333       0.003
   0.00000000 -0.33333333  0.11111111       0.003
  -0.11111111  0.00000000  0.33333333       0.003
   0.33333333  0.00000000  0.11111111       0.003
   0.00000000 -0.11111111  0.33333333       0.003
   0.33333333 -0.11111111  0.00000000       0.003
   0.11111111  0.33333333  0.00000000       0.003
   0.44444444  0.11111111  0.00000000       0.003
   0.00000000  0.44444444  0.11111111       0.003
   0.11111111  0.00000000  0.44444444       0.003
  -0.11111111  0.44444444  0.00000000       0.003
  -0.44444444  0.00000000  0.11111111       0.003
   0.00000000  0.11111111  0.44444444       0.003
   0.00000000 -0.44444444  0.11111111       0.003
  -0.11111111  0.00000000  0.44444444       0.003
   0.44444444  0.00000000  0.11111111       0.003
   0.00000000 -0.11111111  0.44444444       0.003
   0.44444444 -0.11111111  0.00000000       0.003
   0.11111111  0.44444444  0.00000000       0.003
   0.22222222  0.22222222  0.00000000       0.003
   0.00000000  0.22222222  0.22222222       0.003
   0.22222222  0.00000000  0.22222222       0.003
  -0.22222222  0.22222222  0.00000000       0.003
  -0.22222222  0.00000000  0.22222222       0.003
   0.00000000 -0.22222222  0.22222222       0.003
   0.33333333  0.22222222  0.00000000       0.003
   0.00000000  0.33333333  0.22222222       0.003
   0.22222222  0.00000000  0.33333333       0.003
  -0.22222222  0.33333333  0.00000000       0.003
  -0.33333333  0.00000000  0.22222222       0.003
   0.00000000  0.22222222  0.33333333       0.003
   0.00000000 -0.33333333  0.22222222       0.003
  -0.22222222  0.00000000  0.33333333       0.003
   0.33333333  0.00000000  0.22222222       0.003
   0.00000000 -0.22222222  0.33333333       0.003
   0.33333333 -0.22222222  0.00000000       0.003
   0.22222222  0.33333333  0.00000000       0.003
   0.44444444  0.22222222  0.00000000       0.003
   0.00000000  0.44444444  0.22222222       0.003
   0.22222222  0.00000000  0.44444444       0.003
  -0.22222222  0.44444444  0.00000000       0.003
  -0.44444444  0.00000000  0.22222222       0.003
   0.00000000  0.22222222  0.44444444       0.003
   0.00000000 -0.44444444  0.22222222       0.003
  -0.22222222  0.00000000  0.44444444       0.003
   0.44444444  0.00000000  0.22222222       0.003
   0.00000000 -0.22222222  0.44444444       0.003
   0.44444444 -0.22222222  0.00000000       0.003
   0.22222222  0.44444444  0.00000000       0.003
   0.33333333  0.33333333  0.00000000       0.003
   0.00000000  0.33333333  0.33333333       0.003
   0.33333333  0.00000000  0.33333333       0.003
  -0.33333333  0.33333333  0.00000000       0.003
  -0.33333333  0.00000000  0.33333333       0.003
   0.00000000 -0.33333333  0.33333333       0.003
   0.44444444  0.33333333  0.00000000       0.003
   0.00000000  0.44444444  0.33333333       0.003
   0.33333333  0.00000000  0.44444444       0.003
  -0.33333333  0.44444444  0.00000000       0.003
  -0.44444444  0.00000000  0.33333333       0.003
   0.00000000  0.33333333  0.44444444       0.003
   0.00000000 -0.44444444  0.33333333       0.003
  -0.33333333  0.00000000  0.44444444       0.003
   0.44444444  0.00000000  0.33333333       0.003
   0.00000000 -0.33333333  0.44444444       0.003
   0.44444444 -0.33333333  0.00000000       0.003
   0.33333333  0.44444444  0.00000000       0.003
   0.44444444  0.44444444  0.00000000       0.003
   0.00000000  0.44444444  0.44444444       0.003
   0.44444444  0.00000000  0.44444444       0.003
  -0.44444444  0.44444444  0.00000000       0.003
  -0.44444444  0.00000000  0.44444444       0.003
   0.00000000 -0.44444444  0.44444444       0.003
   0.11111111  0.11111111  0.11111111       0.003
  -0.11111111  0.11111111  0.11111111       0.003
  -0.11111111 -0.11111111  0.11111111       0.003
   0.11111111 -0.11111111  0.11111111       0.003
   0.22222222  0.11111111  0.11111111       0.003
   0.11111111  0.22222222  0.11111111       0.003
   0.11111111  0.11111111  0.22222222       0.003
  -0.11111111  0.22222222  0.11111111       0.003
  -0.22222222  0.11111111  0.11111111       0.003
  -0.11111111  0.11111111  0.22222222       0.003
  -0.22222222 -0.11111111  0.11111111       0.003
  -0.11111111 -0.22222222  0.11111111       0.003
  -0.11111111 -0.11111111  0.22222222       0.003
   0.11111111 -0.22222222  0.11111111       0.003
   0.22222222 -0.11111111  0.11111111       0.003
   0.11111111 -0.11111111  0.22222222       0.003
   0.33333333  0.11111111  0.11111111       0.003
   0.11111111  0.33333333  0.11111111       0.003
   0.11111111  0.11111111  0.33333333       0.003
  -0.11111111  0.33333333  0.11111111       0.003
  -0.33333333  0.11111111  0.11111111       0.003
  -0.11111111  0.11111111  0.33333333       0.003
  -0.33333333 -0.11111111  0.11111111       0.003
  -0.11111111 -0.33333333  0.11111111       0.003
  -0.11111111 -0.11111111  0.33333333       0.003
   0.11111111 -0.33333333  0.11111111       0.003
   0.33333333 -0.11111111  0.11111111       0.003
   0.11111111 -0.11111111  0.33333333       0.003
   0.44444444  0.11111111  0.11111111       0.003
   0.11111111  0.44444444  0.11111111       0.003
   0.11111111  0.11111111  0.44444444       0.003
  -0.11111111  0.44444444  0.11111111       0.003
  -0.44444444  0.11111111  0.11111111       0.003
  -0.11111111  0.11111111  0.44444444       0.003
  -0.44444444 -0.11111111  0.11111111       0.003
  -0.11111111 -0.44444444  0.11111111       0.003
  -0.11111111 -0.11111111  0.44444444       0.003
   0.11111111 -0.44444444  0.11111111       0.003
   0.44444444 -0.11111111  0.11111111       0.003
   0.11111111 -0.11111111  0.44444444       0.003
   0.22222222  0.22222222  0.11111111       0.003
   0.11111111  0.22222222  0.22222222       0.003
   0.22222222  0.11111111  0.22222222       0.003
  -0.22222222  0.22222222  0.11111111       0.003
  -0.22222222  0.11111111  0.22222222       0.003
  -0.11111111  0.22222222  0.22222222       0.003
  -0.22222222 -0.22222222  0.11111111       0.003
  -0.11111111 -0.22222222  0.22222222       0.003
  -0.22222222 -0.11111111  0.22222222       0.003
   0.22222222 -0.22222222  0.11111111       0.003
   0.22222222 -0.11111111  0.22222222       0.003
   0.11111111 -0.22222222  0.22222222       0.003
   0.33333333  0.22222222  0.11111111       0.003
   0.11111111  0.33333333  0.22222222       0.003
   0.22222222  0.11111111  0.33333333       0.003
  -0.22222222  0.33333333  0.11111111       0.003
  -0.33333333  0.11111111  0.22222222       0.003
  -0.11111111  0.22222222  0.33333333       0.003
  -0.33333333 -0.22222222  0.11111111       0.003
  -0.11111111 -0.33333333  0.22222222       0.003
  -0.22222222 -0.11111111  0.33333333       0.003
   0.22222222 -0.33333333  0.11111111       0.003
   0.33333333 -0.11111111  0.22222222       0.003
   0.11111111 -0.22222222  0.33333333       0.003
   0.11111111 -0.33333333 -0.22222222       0.003
   0.22222222 -0.11111111 -0.33333333       0.003
   0.33333333 -0.22222222 -0.11111111       0.003
   0.11111111  0.22222222 -0.33333333       0.003
   0.22222222  0.33333333 -0.11111111       0.003
   0.33333333  0.11111111 -0.22222222       0.003
  -0.22222222  0.11111111 -0.33333333       0.003
  -0.33333333  0.22222222 -0.11111111       0.003
  -0.11111111  0.33333333 -0.22222222       0.003
  -0.33333333 -0.11111111 -0.22222222       0.003
  -0.22222222 -0.33333333 -0.11111111       0.003
  -0.11111111 -0.22222222 -0.33333333       0.003
   0.44444444  0.22222222  0.11111111       0.003
   0.11111111  0.44444444  0.22222222       0.003
   0.22222222  0.11111111  0.44444444       0.003
  -0.22222222  0.44444444  0.11111111       0.003
  -0.44444444  0.11111111  0.22222222       0.003
  -0.11111111  0.22222222  0.44444444       0.003
  -0.44444444 -0.22222222  0.11111111       0.003
  -0.11111111 -0.44444444  0.22222222       0.003
  -0.22222222 -0.11111111  0.44444444       0.003
   0.22222222 -0.44444444  0.11111111       0.003
   0.44444444 -0.11111111  0.22222222       0.003
   0.11111111 -0.22222222  0.44444444       0.003
   0.11111111 -0.44444444 -0.22222222       0.003
   0.22222222 -0.11111111 -0.44444444       0.003
   0.44444444 -0.22222222 -0.11111111       0.003
   0.11111111  0.22222222 -0.44444444       0.003
[...]
     11     -11.3310      1.00000
     12     -11.3310      1.00000
     13     -11.2776      1.00000
     14     -11.2776      1.00000
     15     -11.2776      1.00000
     16     -11.2771      1.00000
     17     -11.2771      1.00000
     18     -11.2767      1.00000
     19     -11.2767      1.00000
     20     -11.2766      1.00000
     21      -7.5132      1.00000
     22      -7.4199      1.00000
     23      -7.4199      1.00000
     24      -7.4199      1.00000
     25      -3.0417      1.00000
     26      -3.0417      1.00000
     27      -3.0417      1.00000
     28      -2.9236      1.00000
     29       1.9611      1.00000
     30       1.9611      1.00000
     31       1.9611      1.00000
     32       2.2037      1.00000
     33       2.2037      1.00000
     34       2.2037      1.00000
     35       2.2901      1.00000
     36       2.2901      1.00000
     37       4.1575      0.00000
     38       4.4630      0.00000
     39       4.4630      0.00000
     40       4.4630      0.00000
     41       7.7946      0.00000
     42       7.7946      0.00000
     43       7.7946      0.00000
     44       7.9167      0.00000
     45       7.9167      0.00000
     46       8.0376      0.00000
     47       8.0376      0.00000
     48       8.0376      0.00000
     49      10.8673      0.00000
     50      10.9914      0.00000
     51      10.9914      0.00000
     52      10.9914      0.00000

 k-point   365 :       0.4444   -0.4444    0.4444
  band No.  band energies     occupation
      1     -11.4146      1.00000
      2     -11.4146      1.00000
      3     -11.4146      1.00000
      4     -11.4125      1.00000
      5     -11.3322      1.00000
      6     -11.3322      1.00000
      7     -11.3316      1.00000
      8     -11.3316      1.00000
      9     -11.3315      1.00000
     10     -11.3310      1.00000
     11     -11.3310      1.00000
     12     -11.3310      1.00000
     13     -11.2776      1.00000
     14     -11.2776      1.00000
     15     -11.2776      1.00000
     16     -11.2771      1.00000
     17     -11.2771      1.00000
     18     -11.2767      1.00000
     19     -11.2767      1.00000
     20     -11.2766      1.00000
     21      -7.5132      1.00000
     22      -7.4199      1.00000
     23      -7.4199      1.00000
     24      -7.4199      1.00000
     25      -3.0417      1.00000
     26      -3.0417      1.00000
     27      -3.0417      1.00000
     28      -2.9236      1.00000
     29       1.9611      1.00000
     30       1.9611      1.00000
     31       1.9611      1.00000
     32       2.2037      1.00000
     33       2.2037      1.00000
     34       2.2037      1.00000
     35       2.2901      1.00000
     36       2.2901      1.00000
     37       4.1575      0.00000
     38       4.4630      0.00000
     39       4.4630      0.00000
     40       4.4630      0.00000
     41       7.7946      0.00000
     42       7.7946      0.00000
     43       7.7946      0.00000
     44       7.9167      0.00000
     45       7.9167      0.00000
     46       8.0376      0.00000
     47       8.0376      0.00000
     48       8.0376      0.00000
     49      10.8673      0.00000
     50      10.9914      0.00000
     51      10.9914      0.00000
     52      10.9914      0.00000


--------------------------------------------------------------------------------------------------------


 soft charge-density along one line, spin component           1
         0         1         2         3         4         5         6         7         8         9
 total charge-density along one line

 soft charge-density along one line, spin component           2
         0         1         2         3         4         5         6         7         8         9
 total charge-density along one line

 pseudopotential strength for first ion, spin component:           1
-14.440   0.000   0.000  -0.000   0.000   2.274  -0.000  -0.000
  0.000 -14.440  -0.000  -0.000  -0.000  -0.000   2.274   0.000
  0.000  -0.000 -14.439  -0.000  -0.000  -0.000   0.000   2.273
 -0.000  -0.000  -0.000 -14.440  -0.000   0.000   0.000   0.000
  0.000  -0.000  -0.000  -0.000 -14.439  -0.000   0.000   0.000
  2.274  -0.000  -0.000   0.000  -0.000   3.876  -0.000   0.000
 -0.000   2.274   0.000   0.000   0.000  -0.000   3.876   0.000
 -0.000   0.000   2.273   0.000   0.000   0.000   0.000   3.874
  0.000   0.000   0.000   2.274   0.000   0.000  -0.000  -0.000
 -0.000   0.000   0.000   0.000   2.273   0.000  -0.000  -0.000
  0.000  -0.000   0.000   0.000   0.000  -0.000   0.000  -0.000
 -0.000   0.000  -0.000  -0.000  -0.000   0.000  -0.000   0.000
 -0.000   0.000   0.000  -0.000   0.000   0.000  -0.000   0.000
 -0.000  -0.000   0.000  -0.000   0.000   0.002  -0.000  -0.000
 -0.000  -0.000   0.000   0.000  -0.000  -0.000   0.002  -0.000
  0.000  -0.000   0.000  -0.002  -0.000  -0.000   0.000  -0.000
 -0.002  -0.000  -0.000   0.000  -0.000   0.000   0.000   0.000
 -0.000  -0.002  -0.000  -0.000   0.000   0.000   0.000   0.000
 pseudopotential strength for first ion, spin component:           2
-14.440  -0.000  -0.000  -0.000  -0.000   2.274   0.000   0.000
 -0.000 -14.440   0.000   0.000   0.000   0.000   2.274  -0.000
 -0.000   0.000 -14.439   0.000  -0.000   0.000  -0.000   2.273
 -0.000   0.000   0.000 -14.440   0.000   0.000  -0.000  -0.000
 -0.000   0.000  -0.000   0.000 -14.439   0.000  -0.000   0.000
  2.274   0.000   0.000   0.000   0.000   3.876  -0.000  -0.000
  0.000   2.274  -0.000  -0.000  -0.000  -0.000   3.876   0.000
  0.000  -0.000   2.273  -0.000   0.000  -0.000   0.000   3.874
  0.000  -0.000  -0.000   2.274  -0.000   0.000   0.000   0.000
  0.000  -0.000   0.000  -0.000   2.273  -0.000   0.000  -0.000
 -0.000  -0.000   0.000  -0.000  -0.000   0.000   0.000  -0.000
  0.000   0.000  -0.000   0.000   0.000  -0.000  -0.000   0.000
 -0.000  -0.000   0.000  -0.000   0.000   0.000  -0.000   0.000
 -0.000  -0.000  -0.000  -0.000  -0.000   0.002  -0.000   0.000
 -0.000  -0.000   0.000  -0.000  -0.000  -0.000   0.002  -0.000
  0.000   0.000  -0.000  -0.002   0.000  -0.000   0.000  -0.000
 -0.002   0.000   0.000   0.000   0.000   0.000   0.000  -0.000
  0.000  -0.002   0.000   0.000  -0.000   0.000   0.000   0.000
 total augmentation occupancy for first ion, spin component:           1
  2.006   0.000  -0.000  -0.000   0.000   0.018   0.000  -0.000  -0.000   0.000  -0.000  -0.000  -0.000   0.017  -0.000  -0.000
  0.000   2.006   0.000   0.000   0.000   0.000   0.018   0.000   0.000   0.000  -0.000  -0.000  -0.000  -0.000   0.017  -0.000
 -0.000   0.000   2.003  -0.000  -0.000  -0.000   0.000   0.009  -0.000   0.000  -0.000   0.000   0.000  -0.000  -0.000   0.000
 -0.000   0.000  -0.000   2.006  -0.000  -0.000   0.000  -0.000   0.018  -0.000  -0.000  -0.000   0.017   0.000   0.000   0.001
  0.000   0.000  -0.000  -0.000   2.003   0.000  -0.000  -0.000  -0.000   0.009  -0.000  -0.000   0.000   0.000   0.000   0.000
  0.018   0.000  -0.000  -0.000   0.000   0.038  -0.000  -0.000   0.000   0.000  -0.000  -0.000   0.000   0.138  -0.000   0.000
  0.000   0.018   0.000   0.000  -0.000  -0.000   0.038   0.000  -0.000   0.000   0.000  -0.000  -0.000  -0.000   0.138  -0.000
 -0.000   0.000   0.009  -0.000  -0.000  -0.000   0.000   0.011   0.000  -0.000   0.000   0.000  -0.000  -0.000   0.000  -0.000
 -0.000   0.000  -0.000   0.018  -0.000   0.000  -0.000   0.000   0.038   0.000  -0.000   0.000   0.138   0.000  -0.000   0.002
  0.000   0.000   0.000  -0.000   0.009   0.000   0.000  -0.000   0.000   0.011   0.000   0.000   0.000   0.000   0.000   0.000
 -0.000  -0.000  -0.000  -0.000  -0.000  -0.000   0.000   0.000  -0.000   0.000   1.488   0.023  -0.000  -0.000   0.000  -0.000
 -0.000  -0.000   0.000  -0.000  -0.000  -0.000  -0.000   0.000   0.000   0.000   0.023   0.001   0.000  -0.000  -0.000   0.000
 -0.000  -0.000   0.000   0.017   0.000   0.000  -0.000  -0.000   0.138   0.000  -0.000   0.000   0.888   0.000  -0.000   0.013
  0.017  -0.000  -0.000   0.000   0.000   0.138  -0.000  -0.000   0.000   0.000  -0.000  -0.000   0.000   0.888  -0.000   0.000
 -0.000   0.017  -0.000   0.000   0.000  -0.000   0.138   0.000  -0.000   0.000   0.000  -0.000  -0.000  -0.000   0.888  -0.000
 -0.000  -0.000   0.000   0.001   0.000   0.000  -0.000  -0.000   0.002   0.000  -0.000   0.000   0.013   0.000  -0.000   0.000
  0.001  -0.000  -0.000   0.000   0.000   0.002  -0.000  -0.000   0.000   0.000   0.000  -0.000   0.000   0.013  -0.000   0.000
 -0.000   0.001  -0.000   0.000   0.000   0.000   0.002   0.000   0.000   0.000  -0.000  -0.000   0.000   0.000   0.013   0.000
 total augmentation occupancy for first ion, spin component:           2
 -0.000   0.000   0.000   0.000  -0.000  -0.000   0.000   0.000   0.000  -0.000   0.000   0.000   0.000   0.000   0.000   0.000
  0.000  -0.000   0.000  -0.000  -0.000   0.000  -0.000   0.000  -0.000  -0.000  -0.000   0.000   0.000   0.000   0.000   0.000
  0.000   0.000  -0.000   0.000  -0.000   0.000   0.000  -0.000  -0.000  -0.000  -0.000   0.000  -0.000   0.000   0.000   0.000
  0.000  -0.000   0.000  -0.000  -0.000   0.000   0.000   0.000  -0.000  -0.000   0.000   0.000   0.000  -0.000  -0.000   0.000
 -0.000  -0.000  -0.000  -0.000  -0.000  -0.000  -0.000  -0.000  -0.000  -0.000  -0.000  -0.000   0.000   0.000   0.000   0.000
 -0.000   0.000   0.000   0.000  -0.000   0.000   0.000   0.000  -0.000  -0.000   0.000  -0.000  -0.000  -0.000   0.000   0.000
  0.000  -0.000   0.000   0.000  -0.000   0.000   0.000  -0.000  -0.000   0.000  -0.000  -0.000   0.000   0.000  -0.000   0.000
  0.000   0.000  -0.000   0.000  -0.000   0.000  -0.000   0.000  -0.000   0.000  -0.000   0.000  -0.000   0.000   0.000  -0.000
  0.000  -0.000  -0.000  -0.000  -0.000  -0.000  -0.000  -0.000   0.000  -0.000  -0.000   0.000  -0.000  -0.000  -0.000   0.000
 -0.000  -0.000  -0.000  -0.000  -0.000  -0.000   0.000   0.000  -0.000   0.000  -0.000  -0.000  -0.000  -0.000   0.000  -0.000
  0.000  -0.000  -0.000   0.000  -0.000   0.000  -0.000  -0.000  -0.000  -0.000  -0.000  -0.000   0.000   0.000  -0.000  -0.000
  0.000   0.000   0.000   0.000  -0.000  -0.000  -0.000   0.000   0.000  -0.000  -0.000  -0.000   0.000  -0.000  -0.000   0.000
  0.000   0.000  -0.000   0.000   0.000  -0.000   0.000  -0.000  -0.000  -0.000   0.000   0.000  -0.000   0.000   0.000  -0.000
  0.000   0.000   0.000  -0.000   0.000  -0.000   0.000   0.000  -0.000  -0.000   0.000  -0.000   0.000  -0.000   0.000   0.000
  0.000   0.000   0.000  -0.000   0.000   0.000  -0.000   0.000  -0.000   0.000  -0.000  -0.000   0.000   0.000  -0.000   0.000
  0.000   0.000   0.000   0.000   0.000   0.000   0.000  -0.000   0.000  -0.000  -0.000   0.000  -0.000   0.000   0.000   0.000
  0.000   0.000   0.000  -0.000   0.000   0.000   0.000   0.000  -0.000   0.000   0.000  -0.000   0.000  -0.000   0.000   0.000
 -0.000   0.000   0.000  -0.000   0.000   0.000   0.000   0.000   0.000   0.000   0.000   0.000   0.000   0.000  -0.000   0.000


------------------------ aborting loop because EDIFF is reached ----------------------------------------





 total charge

# of ion       s       p       d       tot
------------------------------------------
    1        0.885   0.753   9.985  11.624
    2        0.885   0.753   9.985  11.624
    3        0.885   0.753   9.985  11.624
    4        0.885   0.753   9.985  11.624
    5        1.218   1.552   0.028   2.797
    6        1.218   1.552   0.028   2.797
    7        1.218   1.552   0.028   2.797
    8        1.218   1.552   0.028   2.797
--------------------------------------------------
tot          8.413   9.218  40.053  57.684



 magnetization (x)

# of ion       s       p       d       tot
------------------------------------------
    1        0.000  -0.000  -0.000   0.000
    2        0.000  -0.000  -0.000   0.000
    3        0.000   0.000  -0.000   0.000
    4        0.000  -0.000   0.000   0.000
    5       -0.000   0.000   0.000   0.000
    6       -0.000   0.000   0.000   0.000
    7       -0.000   0.000   0.000   0.000
    8       -0.000   0.000   0.000   0.000
--------------------------------------------------
tot         -0.000   0.000  -0.000   0.000

    CHARGE:  cpu time      1.9115: real time      1.9118
    FORLOC:  cpu time      0.0013: real time      0.0013
    FORNL :  cpu time      5.2070: real time      5.2087
    STRESS:  cpu time      9.3341: real time      9.3365
    FORCOR:  cpu time      0.0452: real time      0.0452
    FORHAR:  cpu time      0.0055: real time      0.0056
    MIXING:  cpu time      0.0010: real time      0.0010
    OFIELD:  cpu time      0.0002: real time      0.0002

  FORCE on cell =-STRESS in cart. coord.  units (eV):
  Direction    XX          YY          ZZ          XY          YZ          ZX
  --------------------------------------------------------------------------------------
  Alpha Z   229.21542   229.21542   229.21542
  Ewald   -1658.99707 -1658.99707 -1658.99707    -0.00000     0.00000     0.00000
  Hartree   977.73402   977.73402   977.73403    -0.00000     0.00000     0.00000
  E(xc)    -383.98549  -383.98549  -383.98549    -0.00000    -0.00000    -0.00000
  Local    -273.12245  -273.12245  -273.12247     0.00000    -0.00000    -0.00000
  n-local   183.97449   183.97449   183.97446    -0.00000    -0.00000     0.00000
  augment   480.28503   480.28503   480.28503     0.00000    -0.00000    -0.00000
  Kinetic   441.52710   441.52710   441.52712     0.00000    -0.00000    -0.00000
  Fock        0.00000     0.00000     0.00000     0.00000     0.00000     0.00000
  -------------------------------------------------------------------------------------
  Total      -3.36895    -3.36895    -3.36897     0.00000    -0.00000    -0.00000
  in kB     -28.38963   -28.38965   -28.38986     0.00000    -0.00001    -0.00000
  external pressure =      -28.39 kB  Pullay stress =        0.00 kB


 VOLUME and BASIS-vectors are now :
 -----------------------------------------------------------------------------
  energy-cutoff  :      680.00
  volume of cell :      190.13
      direct lattice vectors                 reciprocal lattice vectors
     5.750182099  0.000000000  0.000000000     0.173907536 -0.000000000  0.000000000
     0.000000000  5.750182099  0.000000000     0.000000000  0.173907536  0.000000000
     0.000000000  0.000000000  5.750182099    -0.000000000 -0.000000000  0.173907536

  length of vectors
     5.750182099  5.750182099  5.750182099     0.173907536  0.173907536  0.173907536


 FORCES acting on ions
    electron-ion (+dipol)            ewald-force                    non-local-force                 convergence-correction
 -----------------------------------------------------------------------------------------------
   0.311E-06 0.609E-06 0.685E-06   0.142E-13 0.142E-13 0.284E-13   0.121E-05 -.306E-05 -.101E-05   -.140E-05 0.171E-05 -.236E-06
   0.489E-06 0.150E-06 -.183E-07   0.142E-13 0.142E-13 0.284E-13   0.102E-06 -.726E-07 -.229E-07   -.217E-06 -.122E-06 -.368E-06
   -.708E-06 0.321E-06 -.600E-06   0.142E-13 0.142E-13 0.284E-13   -.760E-06 -.921E-06 -.396E-06   0.121E-05 0.597E-07 0.130E-05
   -.421E-06 0.164E-06 0.565E-06   0.142E-13 0.142E-13 0.284E-13   0.937E-06 0.174E-05 -.787E-06   -.460E-06 -.971E-06 0.248E-06
   -.500E-05 0.106E-05 0.842E-04   -.141E-13 -.134E-13 -.279E-13   -.125E-05 -.735E-06 0.141E-04   0.588E-05 -.523E-06 -.905E-04
   -.536E-05 -.101E-05 -.844E-04   -.139E-13 -.148E-13 -.289E-13   -.107E-05 0.805E-06 -.139E-04   0.606E-05 0.382E-06 0.904E-04
   0.539E-05 0.118E-05 -.844E-04   -.144E-13 -.135E-13 -.289E-13   0.949E-06 -.986E-06 -.140E-04   -.599E-05 -.371E-06 0.905E-04
   0.515E-05 -.127E-05 0.843E-04   -.142E-13 -.149E-13 -.280E-13   0.109E-05 0.887E-06 0.141E-04   -.590E-05 0.555E-06 -.906E-04
 -----------------------------------------------------------------------------------------------
   -.147E-06 0.121E-05 0.276E-06   0.299E-15 0.316E-15 -.857E-16   0.121E-05 -.234E-05 -.187E-05   -.808E-06 0.717E-06 0.802E-06


 POSITION                                       TOTAL-FORCE (eV/Angst)
 -----------------------------------------------------------------------------------
      0.00000      0.00000      0.00000         0.000000     -0.000001     -0.000000
      0.00000      2.87509      2.87509         0.000000      0.000000     -0.000000
      2.87509      0.00000      2.87509        -0.000000     -0.000000      0.000000
      2.87509      2.87509      0.00000         0.000000      0.000001      0.000000
      1.43755      4.31264      4.31264        -0.000000     -0.000000      0.000008
      1.43755      1.43755      1.43755        -0.000000      0.000000     -0.000008
      4.31264      4.31264      1.43755         0.000000     -0.000000     -0.000008
      4.31264      1.43755      4.31264         0.000000      0.000000      0.000008
 -----------------------------------------------------------------------------------
    total drift:                                0.000000     -0.000000     -0.000001


--------------------------------------------------------------------------------------------------------



  FREE ENERGIE OF THE ION-ELECTRON SYSTEM (eV)
  ---------------------------------------------------
  free  energy   TOTEN  =       -36.29469018 eV

  energy  without entropy=      -36.29469018  energy(sigma->0) =      -36.29469018



--------------------------------------------------------------------------------------------------------


    POTLOK:  cpu time      1.3519: real time      1.3521


--------------------------------------------------------------------------------------------------------


 writing wavefunctions
     LOOP+:  cpu time    620.9099: real time    623.5385
    4ORBIT:  cpu time      0.0000: real time      0.0000



 total charge

# of ion       s       p       d       tot
------------------------------------------
    1        0.885   0.753   9.985  11.624
    2        0.885   0.753   9.985  11.624
    3        0.885   0.753   9.985  11.624
    4        0.885   0.753   9.985  11.624
    5        1.218   1.552   0.028   2.797
    6        1.218   1.552   0.028   2.797
    7        1.218   1.552   0.028   2.797
    8        1.218   1.552   0.028   2.797
--------------------------------------------------
tot          8.413   9.218  40.053  57.684



 magnetization (x)

# of ion       s       p       d       tot
------------------------------------------
    1        0.000  -0.000  -0.000   0.000
    2        0.000  -0.000  -0.000   0.000
    3        0.000   0.000  -0.000   0.000
    4        0.000  -0.000   0.000   0.000
    5       -0.000   0.000   0.000   0.000
    6       -0.000   0.000   0.000   0.000
    7       -0.000   0.000   0.000   0.000
    8       -0.000   0.000   0.000   0.000
--------------------------------------------------
tot         -0.000   0.000  -0.000   0.000

 BZINTS: Fermi energy:    3.426330;   72.000000 electrons
         Band energy:-0.510569E+03;  BLOECHL correction:   -0.000000

 total amount of memory used by VASP MPI-rank0   140021. kBytes
=======================================================================

   base      :      30000. kBytes
   nonl-proj :      42520. kBytes
   fftplans  :        860. kBytes
   grid      :       2230. kBytes
   one-center:         31. kBytes
   wavefun   :      64380. kBytes



 General timing and accounting informations for this job:
 ========================================================

                  Total CPU time used (sec):      680.301
                            User time (sec):      666.345
                          System time (sec):       13.956
                         Elapsed time (sec):      683.998

                   Maximum memory used (kb):      378724.
                   Average memory used (kb):          N/A

                          Minor page faults:       116311
                          Major page faults:            0
                 Voluntary context switches:        19811
