   2   2   1   0
  0.2044415E+02  0.3866975E-09  0.3866975E-09  0.3866975E-09  0.5000000E-15
   1.0000000000000000E-004
  CAR
 unknown system
     17.65939060     -7.33483321  301      5.83009311      1.00000000
     -7.335  0.0000E+00  0.0000E+00  0.0000E+00  0.0000E+00
     -7.252  0.0000E+00  0.0000E+00  0.0000E+00  0.0000E+00
     -7.168  0.0000E+00  0.0000E+00  0.0000E+00  0.0000E+00
     -7.085  0.0000E+00  0.0000E+00  0.0000E+00  0.0000E+00
     -7.002  0.0000E+00  0.0000E+00  0.0000E+00  0.0000E+00
     -6.918  0.0000E+00  0.0000E+00  0.0000E+00  0.0000E+00
     -6.835  0.0000E+00  0.0000E+00  0.0000E+00  0.0000E+00
     -6.752  0.0000E+00  0.0000E+00  0.0000E+00  0.0000E+00
     -6.668  0.0000E+00  0.0000E+00  0.0000E+00  0.0000E+00
     -6.585  0.0000E+00  0.0000E+00  0.0000E+00  0.0000E+00
     -6.502  0.0000E+00  0.0000E+00  0.0000E+00  0.0000E+00
     -6.418  0.2986E-11  0.3129E-11  0.2487E-12  0.2607E-12
     -6.335  0.6710E-06  0.6915E-06  0.5591E-07  0.5762E-07
     -6.252  0.7905E-03  0.8019E-03  0.6591E-04  0.6686E-04
     -6.168  0.9095E-02  0.9114E-02  0.8237E-03  0.8262E-03
     -6.085  0.3767E-01  0.3795E-01  0.3962E-02  0.3988E-02
     -6.002  0.1126E+00  0.1125E+00  0.1334E-01  0.1336E-01
     -5.918  0.2580E-01  0.2569E-01  0.1549E-01  0.1550E-01
     -5.835  0.1001E+00  0.1004E+00  0.2383E-01  0.2387E-01
     -5.752  0.1182E+00  0.1186E+00  0.3368E-01  0.3375E-01
     -5.669  0.2661E+00  0.2658E+00  0.5585E-01  0.5589E-01
     -5.585  0.3936E-01  0.3895E-01  0.5913E-01  0.5914E-01
     -5.502  0.4568E-01  0.4587E-01  0.6294E-01  0.6296E-01
     -5.419  0.1197E+00  0.1205E+00  0.7291E-01  0.7300E-01
     -5.335  0.3835E+00  0.3835E+00  0.1049E+00  0.1050E+00
     -5.252  0.1137E+00  0.1130E+00  0.1143E+00  0.1144E+00
     -5.169  0.2109E+00  0.2114E+00  0.1319E+00  0.1320E+00
     -5.085  0.1745E+00  0.1748E+00  0.1465E+00  0.1465E+00
     -5.002  0.2537E+00  0.2530E+00  0.1676E+00  0.1676E+00
     -4.919  0.3234E-01  0.3228E-01  0.1703E+00  0.1703E+00
     -4.835  0.1164E+00  0.1166E+00  0.1800E+00  0.1800E+00
     -4.752  0.4108E+00  0.4135E+00  0.2142E+00  0.2145E+00
     -4.669  0.4962E+00  0.4936E+00  0.2555E+00  0.2556E+00
     -4.585  0.5934E-01  0.5917E-01  0.2605E+00  0.2605E+00
     -4.502  0.3089E+00  0.3104E+00  0.2862E+00  0.2864E+00
     -4.419  0.3215E+00  0.3208E+00  0.3130E+00  0.3131E+00
     -4.336  0.2739E+00  0.2733E+00  0.3358E+00  0.3359E+00
     -4.252  0.4130E-01  0.4081E-01  0.3393E+00  0.3393E+00
     -4.169  0.1640E+00  0.1654E+00  0.3529E+00  0.3531E+00
     -4.086  0.4784E+00  0.4799E+00  0.3928E+00  0.3930E+00
     -4.002  0.8513E+00  0.8515E+00  0.4637E+00  0.4640E+00
     -3.919  0.2752E+00  0.2728E+00  0.4866E+00  0.4867E+00
     -3.836  0.4556E+00  0.4581E+00  0.5246E+00  0.5249E+00
     -3.752  0.4089E+00  0.4060E+00  0.5587E+00  0.5587E+00
     -3.669  0.1949E+00  0.1957E+00  0.5749E+00  0.5750E+00
     -3.586  0.2449E+00  0.2457E+00  0.5953E+00  0.5955E+00
     -3.502  0.4542E+00  0.4539E+00  0.6331E+00  0.6333E+00
     -3.419  0.4390E+00  0.4410E+00  0.6697E+00  0.6700E+00
     -3.336  0.7386E+00  0.7372E+00  0.7313E+00  0.7315E+00
     -3.252  0.1891E+00  0.1876E+00  0.7470E+00  0.7471E+00
     -3.169  0.4181E+00  0.4200E+00  0.7819E+00  0.7821E+00
     -3.086  0.3471E+00  0.3456E+00  0.8108E+00  0.8109E+00
     -3.003  0.8297E-01  0.8209E-01  0.8177E+00  0.8177E+00
     -2.919  0.1890E+00  0.1901E+00  0.8334E+00  0.8335E+00
     -2.836  0.1865E+00  0.1864E+00  0.8490E+00  0.8491E+00
     -2.753  0.2524E+00  0.2530E+00  0.8700E+00  0.8702E+00
     -2.669  0.6642E+00  0.6656E+00  0.9253E+00  0.9256E+00
     -2.586  0.3572E+00  0.3552E+00  0.9551E+00  0.9552E+00
     -2.503  0.7051E-01  0.6930E-01  0.9610E+00  0.9610E+00
     -2.419  0.7045E-02  0.7223E-02  0.9616E+00  0.9616E+00
     -2.336  0.1015E+00  0.1019E+00  0.9700E+00  0.9701E+00
     -2.253  0.3568E-01  0.3508E-01  0.9730E+00  0.9730E+00
     -2.169  0.1128E-01  0.1152E-01  0.9739E+00  0.9739E+00
     -2.086  0.1774E+00  0.1788E+00  0.9887E+00  0.9888E+00
     -2.003  0.2748E+00  0.2748E+00  0.1012E+01  0.1012E+01
     -1.919  0.1787E+00  0.1773E+00  0.1026E+01  0.1027E+01
     -1.836  0.7834E-02  0.7697E-02  0.1027E+01  0.1027E+01
     -1.753  0.7671E-01  0.7736E-01  0.1034E+01  0.1034E+01
     -1.669  0.6456E-01  0.6389E-01  0.1039E+01  0.1039E+01
     -1.586  0.9742E-03  0.9410E-03  0.1039E+01  0.1039E+01
     -1.503  0.4447E-03  0.4648E-03  0.1039E+01  0.1039E+01
     -1.420  0.1235E+00  0.1260E+00  0.1049E+01  0.1050E+01
     -1.336  0.9426E+00  0.9455E+00  0.1128E+01  0.1128E+01
     -1.253  0.4530E+00  0.4488E+00  0.1166E+01  0.1166E+01
     -1.170  0.2781E+00  0.2778E+00  0.1189E+01  0.1189E+01
     -1.086  0.5491E+00  0.5508E+00  0.1235E+01  0.1235E+01
     -1.003  0.6913E+00  0.6905E+00  0.1292E+01  0.1292E+01
     -0.920  0.2787E+00  0.2786E+00  0.1315E+01  0.1315E+01
     -0.836  0.5666E+00  0.5681E+00  0.1363E+01  0.1363E+01
     -0.753  0.8755E+00  0.8752E+00  0.1435E+01  0.1436E+01
     -0.670  0.2320E+00  0.2301E+00  0.1455E+01  0.1455E+01
     -0.586  0.3316E+00  0.3325E+00  0.1482E+01  0.1483E+01
     -0.503  0.2638E+00  0.2634E+00  0.1504E+01  0.1505E+01
     -0.420  0.4636E+00  0.4632E+00  0.1543E+01  0.1543E+01
     -0.336  0.7151E-01  0.7049E-01  0.1549E+01  0.1549E+01
     -0.253  0.7724E-01  0.7889E-01  0.1555E+01  0.1556E+01
     -0.170  0.4450E+00  0.4448E+00  0.1593E+01  0.1593E+01
     -0.087  0.2732E+00  0.2732E+00  0.1615E+01  0.1615E+01
     -0.003  0.3195E+00  0.3187E+00  0.1642E+01  0.1642E+01
      0.080  0.6332E-01  0.6329E-01  0.1647E+01  0.1647E+01
      0.163  0.2304E+00  0.2311E+00  0.1666E+01  0.1666E+01
      0.247  0.2460E+00  0.2461E+00  0.1687E+01  0.1687E+01
      0.330  0.1662E+00  0.1662E+00  0.1701E+01  0.1701E+01
      0.413  0.4121E+00  0.4117E+00  0.1735E+01  0.1735E+01
      0.497  0.7138E-01  0.7035E-01  0.1741E+01  0.1741E+01
      0.580  0.2188E-03  0.2121E-03  0.1741E+01  0.1741E+01
      0.663  0.6874E-08  0.6857E-08  0.1741E+01  0.1741E+01
      0.747  0.2234E-03  0.2346E-03  0.1741E+01  0.1741E+01
      0.830  0.1191E+00  0.1216E+00  0.1751E+01  0.1751E+01
      0.913  0.7290E+00  0.7288E+00  0.1812E+01  0.1812E+01
      0.997  0.1116E+00  0.1094E+00  0.1821E+01  0.1821E+01
      1.080  0.9914E-03  0.1014E-02  0.1821E+01  0.1821E+01
      1.163  0.6655E-01  0.6745E-01  0.1827E+01  0.1827E+01
      1.247  0.1346E+00  0.1340E+00  0.1838E+01  0.1838E+01
      1.330  0.3588E-01  0.3552E-01  0.1841E+01  0.1841E+01
      1.413  0.3068E+00  0.3077E+00  0.1866E+01  0.1866E+01
      1.496  0.5808E+00  0.5804E+00  0.1915E+01  0.1915E+01
      1.580  0.2658E+00  0.2654E+00  0.1937E+01  0.1937E+01
      1.663  0.2690E+00  0.2692E+00  0.1959E+01  0.1959E+01
      1.746  0.8470E+00  0.8490E+00  0.2030E+01  0.2030E+01
      1.830  0.9230E+00  0.9217E+00  0.2107E+01  0.2107E+01
      1.913  0.5868E+00  0.5864E+00  0.2156E+01  0.2156E+01
      1.996  0.5274E+00  0.5289E+00  0.2200E+01  0.2200E+01
      2.080  0.5471E+00  0.5454E+00  0.2245E+01  0.2245E+01
      2.163  0.3428E-01  0.3423E-01  0.2248E+01  0.2248E+01
      2.246  0.6257E+00  0.6292E+00  0.2300E+01  0.2300E+01
      2.330  0.7823E+00  0.7791E+00  0.2365E+01  0.2365E+01
      2.413  0.3402E+00  0.3415E+00  0.2394E+01  0.2394E+01
      2.496  0.7695E+00  0.7689E+00  0.2458E+01  0.2458E+01
      2.580  0.3219E+00  0.3213E+00  0.2485E+01  0.2485E+01
      2.663  0.3197E+00  0.3215E+00  0.2511E+01  0.2511E+01
      2.746  0.1191E+01  0.1192E+01  0.2610E+01  0.2611E+01
      2.829  0.9615E+00  0.9604E+00  0.2691E+01  0.2691E+01
      2.913  0.5517E+00  0.5515E+00  0.2737E+01  0.2737E+01
      2.996  0.8725E+00  0.8743E+00  0.2809E+01  0.2810E+01
      3.079  0.7004E+00  0.6979E+00  0.2868E+01  0.2868E+01
      3.163  0.3306E+00  0.3323E+00  0.2895E+01  0.2895E+01
      3.246  0.1184E+01  0.1186E+01  0.2994E+01  0.2994E+01
      3.329  0.6270E+00  0.6220E+00  0.3046E+01  0.3046E+01
      3.413  0.2439E+00  0.2467E+00  0.3066E+01  0.3067E+01
      3.496  0.7494E+00  0.7482E+00  0.3129E+01  0.3129E+01
      3.579  0.6817E+00  0.6847E+00  0.3186E+01  0.3186E+01
      3.663  0.1077E+01  0.1077E+01  0.3275E+01  0.3276E+01
      3.746  0.6857E+00  0.6819E+00  0.3332E+01  0.3333E+01
      3.829  0.5025E+00  0.5057E+00  0.3374E+01  0.3375E+01
      3.913  0.9140E+00  0.9143E+00  0.3450E+01  0.3451E+01
      3.996  0.9473E+00  0.9449E+00  0.3529E+01  0.3530E+01
      4.079  0.1190E+00  0.1167E+00  0.3539E+01  0.3539E+01
      4.163  0.2423E+00  0.2455E+00  0.3559E+01  0.3560E+01
      4.246  0.5020E+00  0.5011E+00  0.3601E+01  0.3601E+01
      4.329  0.8690E+00  0.8731E+00  0.3674E+01  0.3674E+01
      4.412  0.7568E+00  0.7531E+00  0.3737E+01  0.3737E+01
      4.496  0.3933E+00  0.3929E+00  0.3769E+01  0.3770E+01
      4.579  0.2323E+00  0.2308E+00  0.3789E+01  0.3789E+01
      4.662  0.4287E+00  0.4319E+00  0.3825E+01  0.3825E+01
      4.746  0.6171E+00  0.6169E+00  0.3876E+01  0.3876E+01
      4.829  0.4437E+00  0.4411E+00  0.3913E+01  0.3913E+01
      4.912  0.4864E-01  0.4736E-01  0.3917E+01  0.3917E+01
      4.996  0.1969E-01  0.2033E-01  0.3919E+01  0.3919E+01
      5.079  0.2794E+00  0.2814E+00  0.3942E+01  0.3942E+01
      5.162  0.2923E+00  0.2906E+00  0.3966E+01  0.3966E+01
      5.246  0.3278E-01  0.3179E-01  0.3969E+01  0.3969E+01
      5.329  0.9401E-03  0.9870E-03  0.3969E+01  0.3969E+01
      5.412  0.1031E+00  0.1052E+00  0.3978E+01  0.3978E+01
      5.496  0.2195E+00  0.2179E+00  0.3996E+01  0.3996E+01
      5.579  0.1775E-01  0.1742E-01  0.3997E+01  0.3997E+01
      5.662  0.2730E-01  0.2726E-01  0.4000E+01  0.4000E+01
      5.745  0.3500E-02  0.3381E-02  0.4000E+01  0.4000E+01
      5.829  0.4659E-05  0.4317E-05  0.4000E+01  0.4000E+01
      5.912  0.3342E-10  0.2963E-10  0.4000E+01  0.4000E+01
      5.995  0.5904E-12  0.5436E-12  0.4000E+01  0.4000E+01
      6.079  0.4303E-06  0.4072E-06  0.4000E+01  0.4000E+01
      6.162  0.1554E-02  0.1510E-02  0.4000E+01  0.4000E+01
      6.245  0.4391E-01  0.4362E-01  0.4004E+01  0.4004E+01
      6.329  0.3621E-01  0.3632E-01  0.4007E+01  0.4007E+01
      6.412  0.7034E-01  0.6999E-01  0.4013E+01  0.4013E+01
      6.495  0.2415E+00  0.2407E+00  0.4033E+01  0.4033E+01
      6.579  0.1095E+00  0.1108E+00  0.4042E+01  0.4042E+01
      6.662  0.1013E+00  0.9995E-01  0.4050E+01  0.4050E+01
      6.745  0.3078E+00  0.3087E+00  0.4076E+01  0.4076E+01
      6.829  0.5293E-01  0.5287E-01  0.4080E+01  0.4080E+01
      6.912  0.2233E+00  0.2230E+00  0.4099E+01  0.4099E+01
      6.995  0.9465E-01  0.9521E-01  0.4107E+01  0.4107E+01
      7.079  0.1706E+00  0.1693E+00  0.4121E+01  0.4121E+01
      7.162  0.6578E+00  0.6573E+00  0.4176E+01  0.4176E+01
      7.245  0.7367E+00  0.7374E+00  0.4237E+01  0.4237E+01
      7.328  0.1161E+00  0.1175E+00  0.4247E+01  0.4247E+01
      7.412  0.4379E+00  0.4359E+00  0.4283E+01  0.4283E+01
      7.495  0.9088E+00  0.9085E+00  0.4359E+01  0.4359E+01
      7.578  0.3069E+00  0.3092E+00  0.4385E+01  0.4385E+01
      7.662  0.1628E+00  0.1619E+00  0.4398E+01  0.4398E+01
      7.745  0.8308E+00  0.8301E+00  0.4468E+01  0.4467E+01
      7.828  0.1368E+01  0.1368E+01  0.4581E+01  0.4581E+01
      7.912  0.7323E+00  0.7325E+00  0.4643E+01  0.4642E+01
      7.995  0.1157E+01  0.1157E+01  0.4739E+01  0.4739E+01
      8.078  0.5235E+00  0.5241E+00  0.4782E+01  0.4782E+01
      8.162  0.1745E+00  0.1753E+00  0.4797E+01  0.4797E+01
      8.245  0.1810E+00  0.1807E+00  0.4812E+01  0.4812E+01
      8.328  0.1345E+01  0.1344E+01  0.4924E+01  0.4924E+01
      8.412  0.8268E+00  0.8280E+00  0.4993E+01  0.4993E+01
      8.495  0.3272E+00  0.3275E+00  0.5020E+01  0.5020E+01
      8.578  0.2756E+00  0.2754E+00  0.5043E+01  0.5043E+01
      8.661  0.1247E+00  0.1236E+00  0.5054E+01  0.5054E+01
      8.745  0.5914E+00  0.5911E+00  0.5103E+01  0.5103E+01
      8.828  0.4813E+00  0.4820E+00  0.5143E+01  0.5143E+01
      8.911  0.1051E+01  0.1050E+01  0.5231E+01  0.5230E+01
      8.995  0.2059E+01  0.2060E+01  0.5402E+01  0.5402E+01
      9.078  0.1290E+01  0.1289E+01  0.5510E+01  0.5509E+01
      9.161  0.5482E+00  0.5502E+00  0.5555E+01  0.5555E+01
      9.245  0.9111E+00  0.9109E+00  0.5631E+01  0.5631E+01
      9.328  0.1388E+01  0.1387E+01  0.5747E+01  0.5747E+01
      9.411  0.9190E+00  0.9187E+00  0.5823E+01  0.5823E+01
      9.495  0.4379E+00  0.4393E+00  0.5860E+01  0.5860E+01
      9.578  0.4144E+00  0.4155E+00  0.5894E+01  0.5895E+01
      9.661  0.5858E+00  0.5845E+00  0.5943E+01  0.5943E+01
      9.745  0.9372E+00  0.9376E+00  0.6021E+01  0.6021E+01
      9.828  0.1842E+00  0.1844E+00  0.6037E+01  0.6037E+01
      9.911  0.3854E+00  0.3855E+00  0.6069E+01  0.6069E+01
      9.994  0.6791E+00  0.6788E+00  0.6125E+01  0.6125E+01
     10.078  0.2335E+00  0.2336E+00  0.6145E+01  0.6145E+01
     10.161  0.4745E+00  0.4746E+00  0.6184E+01  0.6184E+01
     10.244  0.8898E+00  0.8896E+00  0.6258E+01  0.6258E+01
     10.328  0.1000E+01  0.9990E+00  0.6342E+01  0.6342E+01
     10.411  0.8608E+00  0.8628E+00  0.6414E+01  0.6414E+01
     10.494  0.5672E+00  0.5673E+00  0.6461E+01  0.6461E+01
     10.578  0.4761E+00  0.4759E+00  0.6500E+01  0.6501E+01
     10.661  0.8737E+00  0.8746E+00  0.6573E+01  0.6573E+01
     10.744  0.1425E+01  0.1425E+01  0.6692E+01  0.6692E+01
     10.828  0.5732E+00  0.5723E+00  0.6740E+01  0.6740E+01
     10.911  0.1577E+00  0.1571E+00  0.6753E+01  0.6753E+01
     10.994  0.4624E+00  0.4634E+00  0.6791E+01  0.6791E+01
     11.078  0.7784E+00  0.7783E+00  0.6856E+01  0.6856E+01
     11.161  0.3731E+00  0.3728E+00  0.6887E+01  0.6887E+01
     11.244  0.2556E+00  0.2554E+00  0.6909E+01  0.6909E+01
     11.328  0.2661E+00  0.2665E+00  0.6931E+01  0.6931E+01
     11.411  0.2792E+00  0.2792E+00  0.6954E+01  0.6954E+01
     11.494  0.8068E+00  0.8070E+00  0.7021E+01  0.7021E+01
     11.577  0.8156E+00  0.8152E+00  0.7089E+01  0.7089E+01
     11.661  0.5593E+00  0.5591E+00  0.7136E+01  0.7136E+01
     11.744  0.1996E+00  0.1999E+00  0.7152E+01  0.7152E+01
     11.827  0.4127E+00  0.4133E+00  0.7187E+01  0.7187E+01
     11.911  0.6490E+00  0.6487E+00  0.7241E+01  0.7241E+01
     11.994  0.7854E+00  0.7847E+00  0.7306E+01  0.7306E+01
     12.077  0.3943E+00  0.3959E+00  0.7339E+01  0.7339E+01
     12.161  0.4096E+00  0.4092E+00  0.7373E+01  0.7373E+01
     12.244  0.5563E+00  0.5564E+00  0.7420E+01  0.7420E+01
     12.327  0.1342E+01  0.1343E+01  0.7532E+01  0.7532E+01
     12.411  0.1061E+01  0.1062E+01  0.7620E+01  0.7620E+01
     12.494  0.1081E+01  0.1081E+01  0.7710E+01  0.7710E+01
     12.577  0.5497E+00  0.5482E+00  0.7756E+01  0.7756E+01
     12.661  0.4659E+00  0.4656E+00  0.7795E+01  0.7795E+01
     12.744  0.4102E+00  0.4104E+00  0.7829E+01  0.7829E+01
     12.827  0.2365E+00  0.2365E+00  0.7848E+01  0.7848E+01
     12.910  0.2130E-01  0.2120E-01  0.7850E+01  0.7850E+01
     12.994  0.6396E-01  0.6397E-01  0.7856E+01  0.7856E+01
     13.077  0.1089E+00  0.1087E+00  0.7865E+01  0.7865E+01
     13.160  0.6850E+00  0.6850E+00  0.7922E+01  0.7922E+01
     13.244  0.2901E+00  0.2903E+00  0.7946E+01  0.7946E+01
     13.327  0.3625E+00  0.3608E+00  0.7976E+01  0.7976E+01
     13.410  0.9651E+00  0.9650E+00  0.8057E+01  0.8056E+01
     13.494  0.1062E+01  0.1063E+01  0.8145E+01  0.8145E+01
     13.577  0.4467E+00  0.4455E+00  0.8182E+01  0.8182E+01
     13.660  0.6653E+00  0.6664E+00  0.8238E+01  0.8238E+01
     13.744  0.4114E+00  0.4128E+00  0.8272E+01  0.8272E+01
     13.827  0.1466E+00  0.1454E+00  0.8284E+01  0.8284E+01
     13.910  0.3279E+00  0.3284E+00  0.8311E+01  0.8311E+01
     13.994  0.8270E+00  0.8124E+00  0.8380E+01  0.8379E+01
     14.077  0.9433E+00  0.9489E+00  0.8459E+01  0.8458E+01
     14.160  0.2145E+00  0.2234E+00  0.8477E+01  0.8477E+01
     14.244  0.4634E+00  0.4636E+00  0.8515E+01  0.8515E+01
     14.327  0.3200E+00  0.3202E+00  0.8542E+01  0.8542E+01
     14.410  0.5317E+00  0.5329E+00  0.8586E+01  0.8587E+01
     14.493  0.1062E+01  0.1058E+01  0.8675E+01  0.8675E+01
     14.577  0.4595E+00  0.4612E+00  0.8713E+01  0.8713E+01
     14.660  0.6173E-01  0.6303E-01  0.8718E+01  0.8718E+01
     14.743  0.3672E+00  0.3700E+00  0.8749E+01  0.8749E+01
     14.827  0.1922E+00  0.1889E+00  0.8765E+01  0.8765E+01
     14.910  0.1571E-02  0.1494E-02  0.8765E+01  0.8765E+01
     14.993  0.8111E-07  0.7434E-07  0.8765E+01  0.8765E+01
     15.077  0.1588E-10  0.1469E-10  0.8765E+01  0.8765E+01
     15.160  0.6056E-05  0.5757E-05  0.8765E+01  0.8765E+01
     15.243  0.1180E-01  0.1151E-01  0.8766E+01  0.8766E+01
     15.327  0.1989E+00  0.1981E+00  0.8783E+01  0.8782E+01
     15.410  0.7826E-01  0.7845E-01  0.8789E+01  0.8789E+01
     15.493  0.1837E+00  0.1179E+00  0.8804E+01  0.8799E+01
     15.577  0.4293E+00  0.4753E+00  0.8840E+01  0.8838E+01
     15.660  0.1513E+00  0.1438E+00  0.8853E+01  0.8850E+01
     15.743  0.1661E+00  0.1901E+00  0.8867E+01  0.8866E+01
     15.826  0.4965E-02  0.9197E-02  0.8867E+01  0.8867E+01
     15.910  0.5146E-01  0.5224E-01  0.8871E+01  0.8871E+01
     15.993  0.4708E+00  0.4793E+00  0.8911E+01  0.8911E+01
     16.076  0.4706E+00  0.4671E+00  0.8950E+01  0.8950E+01
     16.160  0.2003E+00  0.1946E+00  0.8966E+01  0.8966E+01
     16.243  0.1663E-01  0.1715E-01  0.8968E+01  0.8968E+01
     16.326  0.2000E+00  0.2032E+00  0.8984E+01  0.8985E+01
     16.410  0.1412E+00  0.1383E+00  0.8996E+01  0.8996E+01
     16.493  0.1640E-01  0.1553E-01  0.8998E+01  0.8998E+01
     16.576  0.2657E-01  0.2651E-01  0.9000E+01  0.9000E+01
     16.660  0.2406E-02  0.2361E-02  0.9000E+01  0.9000E+01
     16.743  0.2075E-05  0.1994E-05  0.9000E+01  0.9000E+01
     16.826  0.9387E-11  0.8826E-11  0.9000E+01  0.9000E+01
     16.910  0.0000E+00  0.0000E+00  0.9000E+01  0.9000E+01
     16.993  0.0000E+00  0.0000E+00  0.9000E+01  0.9000E+01
     17.076  0.0000E+00  0.0000E+00  0.9000E+01  0.9000E+01
     17.160  0.0000E+00  0.0000E+00  0.9000E+01  0.9000E+01
     17.243  0.0000E+00  0.0000E+00  0.9000E+01  0.9000E+01
     17.326  0.0000E+00  0.0000E+00  0.9000E+01  0.9000E+01
     17.409  0.0000E+00  0.0000E+00  0.9000E+01  0.9000E+01
     17.493  0.0000E+00  0.0000E+00  0.9000E+01  0.9000E+01
     17.576  0.0000E+00  0.0000E+00  0.9000E+01  0.9000E+01
     17.659  0.0000E+00  0.0000E+00  0.9000E+01  0.9000E+01
     17.65939060     -7.33483321  301      5.83009311      1.00000000
     -7.335  0.0000E+00  0.0000E+00  0.0000E+00  0.0000E+00  0.0000E+00  0.0000E+00  0.0000E+00  0.0000E+00  0.0000E+00  0.0000E+00  0.0000E+00  0.0000E+00  0.0000E+00  0.0000E+00  0.0000E+00  0.0000E+00  0.0000E+00  0.0000E+00
     -7.252  0.0000E+00  0.0000E+00  0.0000E+00  0.0000E+00  0.0000E+00  0.0000E+00  0.0000E+00  0.0000E+00  0.0000E+00  0.0000E+00  0.0000E+00  0.0000E+00  0.0000E+00  0.0000E+00  0.0000E+00  0.0000E+00  0.0000E+00  0.0000E+00
     -7.168  0.0000E+00  0.0000E+00  0.0000E+00  0.0000E+00  0.0000E+00  0.0000E+00  0.0000E+00  0.0000E+00  0.0000E+00  0.0000E+00  0.0000E+00  0.0000E+00  0.0000E+00  0.0000E+00  0.0000E+00  0.0000E+00  0.0000E+00  0.0000E+00
     -7.085  0.0000E+00  0.0000E+00  0.0000E+00  0.0000E+00  0.0000E+00  0.0000E+00  0.0000E+00  0.0000E+00  0.0000E+00  0.0000E+00  0.0000E+00  0.0000E+00  0.0000E+00  0.0000E+00  0.0000E+00  0.0000E+00  0.0000E+00  0.0000E+00
     -7.002  0.0000E+00  0.0000E+00  0.0000E+00  0.0000E+00  0.0000E+00  0.0000E+00  0.0000E+00  0.0000E+00  0.0000E+00  0.0000E+00  0.0000E+00  0.0000E+00  0.0000E+00  0.0000E+00  0.0000E+00  0.0000E+00  0.0000E+00  0.0000E+00
     -6.918  0.0000E+00  0.0000E+00  0.0000E+00  0.0000E+00  0.0000E+00  0.0000E+00  0.0000E+00  0.0000E+00  0.0000E+00  0.0000E+00  0.0000E+00  0.0000E+00  0.0000E+00  0.0000E+00  0.0000E+00  0.0000E+00  0.0000E+00  0.0000E+00
     -6.835  0.0000E+00  0.0000E+00  0.0000E+00  0.0000E+00  0.0000E+00  0.0000E+00  0.0000E+00  0.0000E+00  0.0000E+00  0.0000E+00  0.0000E+00  0.0000E+00  0.0000E+00  0.0000E+00  0.0000E+00  0.0000E+00  0.0000E+00  0.0000E+00
     -6.752  0.0000E+00  0.0000E+00  0.0000E+00  0.0000E+00  0.0000E+00  0.0000E+00  0.0000E+00  0.0000E+00  0.0000E+00  0.0000E+00  0.0000E+00  0.0000E+00  0.0000E+00  0.0000E+00  0.0000E+00  0.0000E+00  0.0000E+00  0.0000E+00
     -6.668  0.0000E+00  0.0000E+00  0.0000E+00  0.0000E+00  0.0000E+00  0.0000E+00  0.0000E+00  0.0000E+00  0.0000E+00  0.0000E+00  0.0000E+00  0.0000E+00  0.0000E+00  0.0000E+00  0.0000E+00  0.0000E+00  0.0000E+00  0.0000E+00
     -6.585  0.0000E+00  0.0000E+00  0.0000E+00  0.0000E+00  0.0000E+00  0.0000E+00  0.0000E+00  0.0000E+00  0.0000E+00  0.0000E+00  0.0000E+00  0.0000E+00  0.0000E+00  0.0000E+00  0.0000E+00  0.0000E+00  0.0000E+00  0.0000E+00
     -6.502  0.0000E+00  0.0000E+00  0.0000E+00  0.0000E+00  0.0000E+00  0.0000E+00  0.0000E+00  0.0000E+00  0.0000E+00  0.0000E+00  0.0000E+00  0.0000E+00  0.0000E+00  0.0000E+00  0.0000E+00  0.0000E+00  0.0000E+00  0.0000E+00
     -6.418  0.6327E-12  0.6631E-12  0.2056E-26  0.9104E-31  0.2056E-26  0.9104E-31  0.2056E-26  0.9104E-31  0.0000E+00  0.0000E+00  0.0000E+00  0.0000E+00  0.0000E+00  0.0000E+00  0.0000E+00  0.0000E+00  0.0000E+00  0.0000E+00
     -6.335  0.1422E-06  0.1466E-06  0.1406E-17  0.1488E-17  0.1406E-17  0.1488E-17  0.1406E-17  0.1488E-17  0.0000E+00  0.0000E+00  0.0000E+00  0.0000E+00  0.0000E+00  0.0000E+00  0.0000E+00  0.0000E+00  0.0000E+00  0.0000E+00
     -6.252  0.1675E-03  0.1699E-03  0.5943E-11  0.6185E-11  0.5943E-11  0.6185E-11  0.5943E-11  0.6185E-11  0.0000E+00  0.0000E+00  0.0000E+00  0.0000E+00  0.0000E+00  0.0000E+00  0.0000E+00  0.0000E+00  0.0000E+00  0.0000E+00
     -6.168  0.1927E-02  0.1931E-02  0.1186E-06  0.1213E-06  0.1186E-06  0.1213E-06  0.1186E-06  0.1213E-06  0.0000E+00  0.0000E+00  0.0000E+00  0.0000E+00  0.0000E+00  0.0000E+00  0.0000E+00  0.0000E+00  0.0000E+00  0.0000E+00
     -6.085  0.7959E-02  0.8021E-02  0.1678E-04  0.1693E-04  0.1678E-04  0.1693E-04  0.1678E-04  0.1693E-04  0.0000E+00  0.0000E+00  0.0000E+00  0.0000E+00  0.0000E+00  0.0000E+00  0.0000E+00  0.0000E+00  0.0000E+00  0.0000E+00
     -6.002  0.2378E-01  0.2375E-01  0.5990E-04  0.5987E-04  0.5990E-04  0.5987E-04  0.5990E-04  0.5987E-04  0.0000E+00  0.0000E+00  0.0000E+00  0.0000E+00  0.0000E+00  0.0000E+00  0.0000E+00  0.0000E+00  0.0000E+00  0.0000E+00
     -5.918  0.5443E-02  0.5419E-02  0.1907E-04  0.1906E-04  0.1907E-04  0.1906E-04  0.1907E-04  0.1906E-04  0.0000E+00  0.0000E+00  0.0000E+00  0.0000E+00  0.0000E+00  0.0000E+00  0.0000E+00  0.0000E+00  0.0000E+00  0.0000E+00
     -5.835  0.2106E-01  0.2112E-01  0.1208E-03  0.1212E-03  0.1208E-03  0.1212E-03  0.1208E-03  0.1212E-03  0.0000E+00  0.0000E+00  0.0000E+00  0.0000E+00  0.0000E+00  0.0000E+00  0.0000E+00  0.0000E+00  0.0000E+00  0.0000E+00
     -5.752  0.2481E-01  0.2490E-01  0.1790E-03  0.1799E-03  0.1790E-03  0.1799E-03  0.1790E-03  0.1799E-03  0.0000E+00  0.0000E+00  0.0000E+00  0.0000E+00  0.0000E+00  0.0000E+00  0.0000E+00  0.0000E+00  0.0000E+00  0.0000E+00
     -5.669  0.5583E-01  0.5576E-01  0.4471E-03  0.4465E-03  0.4471E-03  0.4465E-03  0.4471E-03  0.4465E-03  0.0000E+00  0.0000E+00  0.0000E+00  0.0000E+00  0.0000E+00  0.0000E+00  0.0000E+00  0.0000E+00  0.0000E+00  0.0000E+00
     -5.585  0.8257E-02  0.8170E-02  0.6894E-04  0.6825E-04  0.6894E-04  0.6825E-04  0.6894E-04  0.6825E-04  0.0000E+00  0.0000E+00  0.0000E+00  0.0000E+00  0.0000E+00  0.0000E+00  0.0000E+00  0.0000E+00  0.0000E+00  0.0000E+00
     -5.502  0.9527E-02  0.9569E-02  0.1123E-03  0.1128E-03  0.1123E-03  0.1128E-03  0.1123E-03  0.1128E-03  0.0000E+00  0.0000E+00  0.0000E+00  0.0000E+00  0.0000E+00  0.0000E+00  0.0000E+00  0.0000E+00  0.0000E+00  0.0000E+00
     -5.419  0.2500E-01  0.2516E-01  0.3200E-03  0.3222E-03  0.3200E-03  0.3222E-03  0.3200E-03  0.3222E-03  0.0000E+00  0.0000E+00  0.0000E+00  0.0000E+00  0.0000E+00  0.0000E+00  0.0000E+00  0.0000E+00  0.0000E+00  0.0000E+00
     -5.335  0.8002E-01  0.8002E-01  0.1082E-02  0.1082E-02  0.1082E-02  0.1082E-02  0.1082E-02  0.1082E-02  0.0000E+00  0.0000E+00  0.0000E+00  0.0000E+00  0.0000E+00  0.0000E+00  0.0000E+00  0.0000E+00  0.0000E+00  0.0000E+00
     -5.252  0.2371E-01  0.2356E-01  0.3387E-03  0.3367E-03  0.3387E-03  0.3367E-03  0.3387E-03  0.3367E-03  0.0000E+00  0.0000E+00  0.0000E+00  0.0000E+00  0.0000E+00  0.0000E+00  0.0000E+00  0.0000E+00  0.0000E+00  0.0000E+00
     -5.169  0.4398E-01  0.4407E-01  0.7048E-03  0.7063E-03  0.7048E-03  0.7063E-03  0.7048E-03  0.7063E-03  0.0000E+00  0.0000E+00  0.0000E+00  0.0000E+00  0.0000E+00  0.0000E+00  0.0000E+00  0.0000E+00  0.0000E+00  0.0000E+00
     -5.085  0.3632E-01  0.3639E-01  0.6340E-03  0.6357E-03  0.6340E-03  0.6357E-03  0.6340E-03  0.6357E-03  0.0000E+00  0.0000E+00  0.0000E+00  0.0000E+00  0.0000E+00  0.0000E+00  0.0000E+00  0.0000E+00  0.0000E+00  0.0000E+00
     -5.002  0.5261E-01  0.5244E-01  0.9951E-03  0.9920E-03  0.9951E-03  0.9920E-03  0.9951E-03  0.9920E-03  0.0000E+00  0.0000E+00  0.0000E+00  0.0000E+00  0.0000E+00  0.0000E+00  0.0000E+00  0.0000E+00  0.0000E+00  0.0000E+00
     -4.919  0.6708E-02  0.6697E-02  0.1345E-03  0.1343E-03  0.1345E-03  0.1343E-03  0.1345E-03  0.1343E-03  0.0000E+00  0.0000E+00  0.0000E+00  0.0000E+00  0.0000E+00  0.0000E+00  0.0000E+00  0.0000E+00  0.0000E+00  0.0000E+00
     -4.835  0.2419E-01  0.2424E-01  0.5082E-03  0.5091E-03  0.5082E-03  0.5091E-03  0.5082E-03  0.5091E-03  0.0000E+00  0.0000E+00  0.0000E+00  0.0000E+00  0.0000E+00  0.0000E+00  0.0000E+00  0.0000E+00  0.0000E+00  0.0000E+00
     -4.752  0.8542E-01  0.8599E-01  0.1916E-02  0.1928E-02  0.1916E-02  0.1928E-02  0.1916E-02  0.1928E-02  0.0000E+00  0.0000E+00  0.0000E+00  0.0000E+00  0.0000E+00  0.0000E+00  0.0000E+00  0.0000E+00  0.0000E+00  0.0000E+00
     -4.669  0.1032E+00  0.1026E+00  0.2336E-02  0.2323E-02  0.2336E-02  0.2323E-02  0.2336E-02  0.2323E-02  0.0000E+00  0.0000E+00  0.0000E+00  0.0000E+00  0.0000E+00  0.0000E+00  0.0000E+00  0.0000E+00  0.0000E+00  0.0000E+00
     -4.585  0.1221E-01  0.1217E-01  0.3180E-03  0.3174E-03  0.3180E-03  0.3174E-03  0.3180E-03  0.3174E-03  0.0000E+00  0.0000E+00  0.0000E+00  0.0000E+00  0.0000E+00  0.0000E+00  0.0000E+00  0.0000E+00  0.0000E+00  0.0000E+00
     -4.502  0.6393E-01  0.6425E-01  0.1702E-02  0.1709E-02  0.1702E-02  0.1709E-02  0.1702E-02  0.1709E-02  0.0000E+00  0.0000E+00  0.0000E+00  0.0000E+00  0.0000E+00  0.0000E+00  0.0000E+00  0.0000E+00  0.0000E+00  0.0000E+00
     -4.419  0.6708E-01  0.6694E-01  0.1716E-02  0.1713E-02  0.1716E-02  0.1713E-02  0.1716E-02  0.1713E-02  0.0000E+00  0.0000E+00  0.0000E+00  0.0000E+00  0.0000E+00  0.0000E+00  0.0000E+00  0.0000E+00  0.0000E+00  0.0000E+00
     -4.336  0.5712E-01  0.5700E-01  0.1531E-02  0.1528E-02  0.1531E-02  0.1528E-02  0.1531E-02  0.1528E-02  0.0000E+00  0.0000E+00  0.0000E+00  0.0000E+00  0.0000E+00  0.0000E+00  0.0000E+00  0.0000E+00  0.0000E+00  0.0000E+00
     -4.252  0.8730E-02  0.8628E-02  0.2151E-03  0.2126E-03  0.2151E-03  0.2126E-03  0.2151E-03  0.2126E-03  0.0000E+00  0.0000E+00  0.0000E+00  0.0000E+00  0.0000E+00  0.0000E+00  0.0000E+00  0.0000E+00  0.0000E+00  0.0000E+00
     -4.169  0.3430E-01  0.3460E-01  0.1007E-02  0.1016E-02  0.1007E-02  0.1016E-02  0.1007E-02  0.1016E-02  0.0000E+00  0.0000E+00  0.0000E+00  0.0000E+00  0.0000E+00  0.0000E+00  0.0000E+00  0.0000E+00  0.0000E+00  0.0000E+00
     -4.086  0.9923E-01  0.9956E-01  0.3155E-02  0.3166E-02  0.3155E-02  0.3166E-02  0.3155E-02  0.3166E-02  0.0000E+00  0.0000E+00  0.0000E+00  0.0000E+00  0.0000E+00  0.0000E+00  0.0000E+00  0.0000E+00  0.0000E+00  0.0000E+00
     -4.002  0.1793E+00  0.1794E+00  0.5322E-02  0.5322E-02  0.5322E-02  0.5322E-02  0.5322E-02  0.5322E-02  0.0000E+00  0.0000E+00  0.0000E+00  0.0000E+00  0.0000E+00  0.0000E+00  0.0000E+00  0.0000E+00  0.0000E+00  0.0000E+00
     -3.919  0.5894E-01  0.5843E-01  0.1587E-02  0.1572E-02  0.1587E-02  0.1572E-02  0.1587E-02  0.1572E-02  0.0000E+00  0.0000E+00  0.0000E+00  0.0000E+00  0.0000E+00  0.0000E+00  0.0000E+00  0.0000E+00  0.0000E+00  0.0000E+00
     -3.836  0.9735E-01  0.9789E-01  0.2870E-02  0.2889E-02  0.2870E-02  0.2889E-02  0.2870E-02  0.2889E-02  0.0000E+00  0.0000E+00  0.0000E+00  0.0000E+00  0.0000E+00  0.0000E+00  0.0000E+00  0.0000E+00  0.0000E+00  0.0000E+00
     -3.752  0.8518E-01  0.8458E-01  0.2970E-02  0.2951E-02  0.2970E-02  0.2951E-02  0.2970E-02  0.2951E-02  0.0000E+00  0.0000E+00  0.0000E+00  0.0000E+00  0.0000E+00  0.0000E+00  0.0000E+00  0.0000E+00  0.0000E+00  0.0000E+00
     -3.669  0.4151E-01  0.4168E-01  0.1346E-02  0.1351E-02  0.1346E-02  0.1351E-02  0.1346E-02  0.1351E-02  0.0000E+00  0.0000E+00  0.0000E+00  0.0000E+00  0.0000E+00  0.0000E+00  0.0000E+00  0.0000E+00  0.0000E+00  0.0000E+00
     -3.586  0.5307E-01  0.5325E-01  0.1597E-02  0.1602E-02  0.1597E-02  0.1602E-02  0.1597E-02  0.1602E-02  0.0000E+00  0.0000E+00  0.0000E+00  0.0000E+00  0.0000E+00  0.0000E+00  0.0000E+00  0.0000E+00  0.0000E+00  0.0000E+00
     -3.502  0.9811E-01  0.9802E-01  0.3111E-02  0.3110E-02  0.3111E-02  0.3110E-02  0.3111E-02  0.3110E-02  0.0000E+00  0.0000E+00  0.0000E+00  0.0000E+00  0.0000E+00  0.0000E+00  0.0000E+00  0.0000E+00  0.0000E+00  0.0000E+00
     -3.419  0.9161E-01  0.9201E-01  0.3677E-02  0.3696E-02  0.3677E-02  0.3696E-02  0.3677E-02  0.3696E-02  0.0000E+00  0.0000E+00  0.0000E+00  0.0000E+00  0.0000E+00  0.0000E+00  0.0000E+00  0.0000E+00  0.0000E+00  0.0000E+00
     -3.336  0.1541E+00  0.1538E+00  0.6309E-02  0.6298E-02  0.6309E-02  0.6298E-02  0.6309E-02  0.6298E-02  0.0000E+00  0.0000E+00  0.0000E+00  0.0000E+00  0.0000E+00  0.0000E+00  0.0000E+00  0.0000E+00  0.0000E+00  0.0000E+00
     -3.252  0.3931E-01  0.3900E-01  0.1671E-02  0.1658E-02  0.1671E-02  0.1658E-02  0.1671E-02  0.1658E-02  0.0000E+00  0.0000E+00  0.0000E+00  0.0000E+00  0.0000E+00  0.0000E+00  0.0000E+00  0.0000E+00  0.0000E+00  0.0000E+00
     -3.169  0.8940E-01  0.8981E-01  0.3475E-02  0.3491E-02  0.3475E-02  0.3491E-02  0.3475E-02  0.3491E-02  0.0000E+00  0.0000E+00  0.0000E+00  0.0000E+00  0.0000E+00  0.0000E+00  0.0000E+00  0.0000E+00  0.0000E+00  0.0000E+00