    2    2    1    2
  0.2044415E+02  0.3866975E-09  0.3866975E-09  0.3866975E-09  0.5000000E-15
   1.0000000000000000E-004
  CAR
 unknown system
      8     47      9

  0.1262379E-14  0.1262379E-14  0.1262379E-14  0.1000000E-02
      1         -6.198472       -6.198732   1.000000   1.000000
      2          5.616309        5.615620   1.000000   1.000000
      3          5.616309        5.615620   1.000000   1.000000
      4          5.616309        5.615620   1.000000   1.000000
      5          8.173015        8.172979   0.000000   0.000000
      6          8.173015        8.172979   0.000000   0.000000
      7          8.173015        8.172979   0.000000   0.000000
      8          8.750050        8.749702   0.000000   0.000000
      9         13.326230       13.325254   0.000000   0.000000

  0.1000000E+00  0.1252473E-14  0.1262379E-14  0.8000000E-02
      1         -6.069891       -6.070157   1.000000   1.000000
      2          4.474225        4.473690   1.000000   1.000000
      3          5.422520        5.421878   1.000000   1.000000
      4          5.422520        5.421878   1.000000   1.000000
      5          8.138878        8.138807   0.000000   0.000000
      6          8.458786        8.458705   0.000000   0.000000
      7          8.458786        8.458705   0.000000   0.000000
      8          9.720151        9.719793   0.000000   0.000000
      9         12.975560       12.975551   0.000000   0.000000

  0.2000000E+00  0.1263202E-14  0.1262379E-14  0.8000000E-02
      1         -5.690460       -5.690741   1.000000   1.000000
      2          2.634357        2.633949   1.000000   1.000000
      3          5.048763        5.048174   1.000000   1.000000
      4          5.048763        5.048174   1.000000   1.000000
      5          7.768589        7.768557   0.000000   0.000000
      6          8.960640        8.960541   0.000000   0.000000
      7          8.960640        8.960541   0.000000   0.000000
      8         11.494568       11.494294   0.000000   0.000000
      9         12.664759       12.664842   0.000000   0.000000

  0.3000000E+00  0.1274997E-14  0.1262379E-14  0.8000000E-02
      1         -5.087092       -5.087406   1.000000   1.000000
      2          0.876282        0.875970   1.000000   1.000000
      3          4.718667        4.718101   1.000000   1.000000
      4          4.718667        4.718101   1.000000   1.000000
      5          7.404906        7.404897   0.000000   0.000000
      6          9.141165        9.141153   0.000000   0.000000
      7          9.141165        9.141153   0.000000   0.000000
      8         13.116203       13.116362   0.000000   0.000000
      9         13.190447       13.190475   0.000000   0.000000

  0.4000000E+00  0.1236062E-14  0.1262379E-14  0.8000000E-02
      1         -4.357304       -4.357677   1.000000   1.000000
      2         -0.571978       -0.572196   1.000000   1.000000
      3          4.508810        4.508250   1.000000   1.000000
      4          4.508810        4.508250   1.000000   1.000000
      5          7.164986        7.164982   0.000000   0.000000
      6          9.036709        9.036785   0.000000   0.000000
      7          9.036709        9.036785   0.000000   0.000000
      8         13.420158       13.421230   0.000000   0.000000
      9         14.552736       14.552674   0.000000   0.000000

  0.5000000E+00  0.1219036E-14  0.1262379E-14  0.4000000E-02
      1         -3.919671       -3.920105   1.000000   1.000000
      2         -1.252453       -1.252599   1.000000   1.000000
      3          4.437907        4.437348   1.000000   1.000000
      4          4.437907        4.437348   1.000000   1.000000
      5          7.082663        7.082660   0.000000   0.000000
      6          8.965561        8.965667   0.000000   0.000000
      7          8.965561        8.965667   0.000000   0.000000
      8         13.317125       13.318298   0.000000   0.000000
      9         16.111369       16.111183   0.000000   0.000000

  0.1000000E+00  0.1000000E+00  0.1262379E-14  0.6000000E-02
      1         -6.026737       -6.027004   1.000000   1.000000
      2          4.660682        4.660047   1.000000   1.000000
      3          5.054816        5.054264   1.000000   1.000000
      4          5.054816        5.054264   1.000000   1.000000
      5          7.801179        7.801256   0.000000   0.000000
      6          8.945404        8.945233   0.000000   0.000000
      7          8.945404        8.945233   0.000000   0.000000
      8          9.604690        9.604328   0.000000   0.000000
      9         12.352816       12.352929   0.000000   0.000000

  0.2000000E+00  0.1000000E+00  0.1262379E-14  0.2400000E-01
      1         -5.729694       -5.729973   1.000000   1.000000
      2          3.174788        3.174295   1.000000   1.000000
      3          4.628306        4.627808   1.000000   1.000000
      4          4.786272        4.785742   1.000000   1.000000
      5          7.855367        7.855431   0.000000   0.000000
      6          8.954535        8.954348   0.000000   0.000000
      7          9.589137        9.588930   0.000000   0.000000
      8         10.528806       10.528782   0.000000   0.000000
      9         12.308726       12.308642   0.000000   0.000000

  0.3000000E+00  0.1000000E+00  0.1262379E-14  0.2400000E-01
      1         -5.196410       -5.196715   1.000000   1.000000
      2          1.444066        1.443687   1.000000   1.000000
      3          4.314034        4.313554   1.000000   1.000000
      4          4.358414        4.357942   1.000000   1.000000
      5          7.963378        7.963384   0.000000   0.000000
      6          8.957847        8.957761   0.000000   0.000000
      7          9.876013        9.875880   0.000000   0.000000
      8         10.917826       10.918029   0.000000   0.000000
      9         13.739604       13.739213   0.000000   0.000000

  0.4000000E+00  0.1000000E+00  0.1262379E-14  0.2400000E-01
      1         -4.487887       -4.488241   1.000000   1.000000
      2         -0.100061       -0.100342   1.000000   1.000000
      3          3.953267        3.952833   1.000000   1.000000
      4          4.167592        4.167106   1.000000   1.000000
      5          7.806529        7.806521   0.000000   0.000000
      6          8.945840        8.945896   0.000000   0.000000
      7          9.712345        9.712324   0.000000   0.000000
      8         11.962599       11.962751   0.000000   0.000000
      9         14.522007       14.522846   0.000000   0.000000

  0.5000000E+00  0.1000000E+00  0.1262379E-14  0.2400000E-01
      1         -3.864936       -3.865363   1.000000   1.000000
      2         -1.113086       -1.113271   1.000000   1.000000
      3          3.668742        3.668337   1.000000   1.000000
      4          4.198282        4.197773   1.000000   1.000000
      5          7.713145        7.713123   0.000000   0.000000
      6          8.926532        8.926653   0.000000   0.000000
      7          9.455522        9.455573   0.000000   0.000000
      8         13.355503       13.355951   0.000000   0.000000
      9         14.470418       14.470927   0.000000   0.000000

 -0.4000000E+00  0.1000000E+00  0.1262379E-14  0.2400000E-01
      1         -4.026922       -4.027326   1.000000   1.000000
      2         -0.870844       -0.871057   1.000000   1.000000
      3          3.544786        3.544405   1.000000   1.000000
      4          4.393103        4.392560   1.000000   1.000000
      5          7.767910        7.767863   0.000000   0.000000
      6          9.060751        9.060874   0.000000   0.000000
      7          9.302573        9.302644   0.000000   0.000000
      8         13.606864       13.607506   0.000000   0.000000
      9         14.172876       14.172829   0.000000   0.000000

 -0.3000000E+00  0.1000000E+00  0.1262379E-14  0.2400000E-01
      1         -4.737681       -4.738015   1.000000   1.000000
      2          0.384252        0.383939   1.000000   1.000000
      3          3.607005        3.606641   1.000000   1.000000
      4          4.720955        4.720371   1.000000   1.000000
      5          7.967301        7.967229   0.000000   0.000000
      6          9.225522        9.225555   0.000000   0.000000
      7          9.304224        9.304273   0.000000   0.000000
      8         12.546502       12.546642   0.000000   0.000000
      9         12.668937       12.668989   0.000000   0.000000

 -0.2000000E+00  0.1000000E+00  0.1262379E-14  0.2400000E-01
      1         -5.399872       -5.400167   1.000000   1.000000
      2          2.003737        2.003318   1.000000   1.000000
      3          3.882306        3.881947   1.000000   1.000000
      4          5.119462        5.118827   1.000000   1.000000
      5          8.274838        8.274737   0.000000   0.000000
      6          8.972714        8.972678   0.000000   0.000000
      7          9.299638        9.299546   0.000000   0.000000
      8         11.486345       11.486362   0.000000   0.000000
      9         11.975946       11.976096   0.000000   0.000000

 -0.1000000E+00  0.1000000E+00  0.1262379E-14  0.1200000E-01
      1         -5.857204       -5.857478   1.000000   1.000000
      2          3.589447        3.588922   1.000000   1.000000
      3          4.485190        4.484778   1.000000   1.000000
      4          5.440942        5.440263   1.000000   1.000000
      5          8.526836        8.526796   0.000000   0.000000
      6          8.527699        8.527554   0.000000   0.000000
      7          8.705637        8.705536   0.000000   0.000000
      8         10.665653       10.665366   0.000000   0.000000
      9         12.232635       12.232763   0.000000   0.000000

  0.2000000E+00  0.2000000E+00  0.1262379E-14  0.6000000E-02
      1         -5.515403       -5.515690   1.000000   1.000000
      2          2.981714        2.981112   1.000000   1.000000
      3          4.161961        4.161521   1.000000   1.000000
      4          4.161961        4.161521   1.000000   1.000000
      5          7.092175        7.092412   0.000000   0.000000
      6          9.469001        9.469207   0.000000   0.000000
      7         10.457295       10.457025   0.000000   0.000000
      8         10.457295       10.457025   0.000000   0.000000
      9         12.555027       12.554785   0.000000   0.000000

  0.3000000E+00  0.2000000E+00  0.1262379E-14  0.2400000E-01
      1         -5.058230       -5.058537   1.000000   1.000000
      2          1.759337        1.758812   1.000000   1.000000
      3          3.659438        3.659077   1.000000   1.000000
      4          3.819627        3.819211   1.000000   1.000000
      5          7.188021        7.188237   0.000000   0.000000
      6          9.060653        9.060952   0.000000   0.000000
      7         10.707347       10.707139   0.000000   0.000000
      8         11.045560       11.045320   0.000000   0.000000
      9         14.020737       14.020386   0.000000   0.000000

  0.4000000E+00  0.2000000E+00  0.1262379E-14  0.2400000E-01
      1         -4.396430       -4.396776   1.000000   1.000000
      2          0.352869        0.352452   1.000000   1.000000
      3          3.039394        3.039113   1.000000   1.000000
      4          3.661812        3.661397   1.000000   1.000000
      5          7.402793        7.403054   0.000000   0.000000
      6          9.685571        9.685772   0.000000   0.000000
      7         10.476601       10.476439   0.000000   0.000000
      8         11.012130       11.012002   0.000000   0.000000
      9         15.668178       15.677510   0.000000   0.000000

  0.5000000E+00  0.2000000E+00  0.1262379E-14  0.2400000E-01
      1         -3.683334       -3.683746   1.000000   1.000000
      2         -0.803554       -0.803863   1.000000   1.000000
      3          2.537990        2.537757   1.000000   1.000000
      4          3.703771        3.703338   1.000000   1.000000
      5          7.466494        7.466781   0.000000   0.000000
      6         10.257618       10.257526   0.000000   0.000000
      7         10.694803       10.694761   0.000000   0.000000
      8         11.211405       11.211485   0.000000   0.000000
      9         15.304781       15.305195   0.000000   0.000000

 -0.4000000E+00  0.2000000E+00  0.1262379E-14  0.2400000E-01
      1         -3.535542       -3.535980   1.000000   1.000000
      2         -1.005495       -1.005774   1.000000   1.000000
      3          2.246759        2.246563   1.000000   1.000000
      4          3.936467        3.935999   1.000000   1.000000
      5          7.674296        7.674543   0.000000   0.000000
      6         10.162741       10.162684   0.000000   0.000000
      7         10.396585       10.396581   0.000000   0.000000
      8         13.110517       13.110573   0.000000   0.000000
      9         13.885668       13.885730   0.000000   0.000000

 -0.3000000E+00  0.2000000E+00  0.1262379E-14  0.2400000E-01
      1         -4.172102       -4.172471   1.000000   1.000000
      2         -0.043598       -0.043981   1.000000   1.000000
      3          2.232120        2.231962   1.000000   1.000000
      4          4.325163        4.324644   1.000000   1.000000
      5          8.056409        8.056563   0.000000   0.000000
      6         10.120612       10.120590   0.000000   0.000000
      7         10.177605       10.177561   0.000000   0.000000
      8         12.233447       12.233508   0.000000   0.000000
      9         12.428513       12.428568   0.000000   0.000000

 -0.2000000E+00  0.2000000E+00  0.1262379E-14  0.1200000E-01
      1         -4.874865       -4.875186   1.000000   1.000000
      2          1.169776        1.169307   1.000000   1.000000
      3          2.682803        2.682641   1.000000   1.000000
      4          4.785299        4.784713   1.000000   1.000000
      5          8.466964        8.466971   0.000000   0.000000
      6          9.581725        9.581672   0.000000   0.000000
      7          9.885467        9.885357   0.000000   0.000000
      8         11.272733       11.272881   0.000000   0.000000
      9         11.747551       11.747704   0.000000   0.000000

  0.3000000E+00  0.3000000E+00  0.1262379E-14  0.6000000E-02
      1         -4.677026       -4.677347   1.000000   1.000000
      2          1.212255        1.211691   1.000000   1.000000
      3          3.434020        3.433637   1.000000   1.000000
      4          3.434020        3.433637   1.000000   1.000000
      5          6.505240        6.505589   0.000000   0.000000
      6          8.052008        8.052453   0.000000   0.000000
      7         12.187452       12.187158   0.000000   0.000000
      8         12.187452       12.187158   0.000000   0.000000
      9         14.523777       14.523415   0.000000   0.000000

  0.4000000E+00  0.3000000E+00  0.1262379E-14  0.2400000E-01
      1         -4.075799       -4.076151   1.000000   1.000000
      2          0.223685        0.223157   1.000000   1.000000
      3          2.822691        2.822443   1.000000   1.000000
      4          3.232435        3.232062   1.000000   1.000000
      5          6.692654        6.692995   0.000000   0.000000
      6          7.881432        7.881824   0.000000   0.000000
      7         12.471368       12.471116   0.000000   0.000000
      8         12.611907       12.611688   0.000000   0.000000
      9         16.029246       16.025307   0.000000   0.000000

  0.5000000E+00  0.3000000E+00  0.1262379E-14  0.2400000E-01
      1         -3.341943       -3.342348   1.000000   1.000000
      2         -0.761979       -0.762448   1.000000   1.000000
      3          2.012838        2.012734   1.000000   1.000000
      4          3.238285        3.237903   1.000000   1.000000
      5          6.873905        6.874304   0.000000   0.000000
      6          8.992100        8.992307   0.000000   0.000000
      7         12.285637       12.285443   0.000000   0.000000
      8         12.373798       12.373678   0.000000   0.000000
      9         15.968474       15.968174   0.000000   0.000000

 -0.4000000E+00  0.3000000E+00  0.1262379E-14  0.2400000E-01
      1         -2.935925       -2.936389   1.000000   1.000000
      2         -1.223937       -1.224348   1.000000   1.000000
      3          1.472151        1.472126   1.000000   1.000000
      4          3.449127        3.448719   1.000000   1.000000
      5          7.101946        7.102327   0.000000   0.000000
      6         10.776820       10.776948   0.000000   0.000000
      7         11.978388       11.978313   0.000000   0.000000
      8         12.125384       12.125229   0.000000   0.000000
      9         14.021563       14.029526   0.000000   0.000000

 -0.3000000E+00  0.3000000E+00  0.1262379E-14  0.1200000E-01
      1         -3.461493       -3.461912   1.000000   1.000000
      2         -0.646265       -0.646713   1.000000   1.000000
      3          1.447696        1.447684   1.000000   1.000000
      4          3.837108        3.836655   1.000000   1.000000
      5          7.534348        7.534657   0.000000   0.000000
      6         11.310181       11.310104   0.000000   0.000000
      7         11.620888       11.620817   0.000000   0.000000
      8         12.342909       12.342934   0.000000   0.000000
      9         12.704810       12.704835   0.000000   0.000000

  0.4000000E+00  0.4000000E+00  0.1262379E-14  0.6000000E-02
      1         -3.535361       -3.535733   1.000000   1.000000
      2         -0.520768       -0.521272   1.000000   1.000000
      3          2.977047        2.976692   1.000000   1.000000
      4          2.977047        2.976692   1.000000   1.000000
      5          6.233536        6.233961   0.000000   0.000000
      6          6.965135        6.965629   0.000000   0.000000
      7         14.016675       14.016405   0.000000   0.000000
      8         14.016675       14.016405   0.000000   0.000000
      9         16.368548       16.366237   0.000000   0.000000

  0.5000000E+00  0.4000000E+00  0.1262379E-14  0.2400000E-01
      1         -2.820727       -2.821137   1.000000   1.000000
      2         -1.346905       -1.347381   1.000000   1.000000
      3          2.408003        2.407801   1.000000   1.000000
      4          2.929086        2.928731   1.000000   1.000000
      5          6.469335        6.469782   0.000000   0.000000
      6          7.214682        7.215035   0.000000   0.000000
      7         14.266005       14.265822   0.000000   0.000000
      8         14.342802       14.342591   0.000000   0.000000
      9         16.307999       16.306986   0.000000   0.000000

 -0.4000000E+00  0.4000000E+00  0.1262379E-14  0.1200000E-01
      1         -2.359967       -2.360446   1.000000   1.000000
      2         -1.756787       -1.757225   1.000000   1.000000
      3          1.646952        1.646916   1.000000   1.000000
      4          3.092937        3.092565   1.000000   1.000000
      5          6.679446        6.679887   0.000000   0.000000
      6          8.764662        8.764856   0.000000   0.000000
      7         13.613037       13.612917   0.000000   0.000000
      8         14.187931       14.187736   0.000000   0.000000
      9         14.188913       14.188831   0.000000   0.000000

  0.5000000E+00  0.5000000E+00  0.1262379E-14  0.3000000E-02
      1         -2.129900       -2.130335   1.000000   1.000000
      2         -2.129900       -2.130335   1.000000   1.000000
      3          2.822157        2.821811   1.000000   1.000000
      4          2.822157        2.821811   1.000000   1.000000
      5          6.367267        6.367743   0.000000   0.000000
      6          6.367267        6.367743   0.000000   0.000000
      7         15.552712       15.552528   0.000000   0.000000
      8         15.552712       15.552528   0.000000   0.000000
      9         16.523290       16.522948   0.000000   0.000000

  0.3000000E+00  0.2000000E+00  0.1000000E+00  0.2400000E-01
      1         -5.353319       -5.353614   1.000000   1.000000
      2          2.254738        2.254225   1.000000   1.000000
      3          3.583354        3.583061   1.000000   1.000000
      4          4.660943        4.660401   1.000000   1.000000
      5          7.960952        7.961032   0.000000   0.000000
      6          9.265241        9.265050   0.000000   0.000000
      7         10.214113       10.214360   0.000000   0.000000
      8         10.235021       10.234815   0.000000   0.000000
      9         12.773053       12.772946   0.000000   0.000000

  0.4000000E+00  0.2000000E+00  0.1000000E+00  0.4800000E-01
      1         -4.753772       -4.754100   1.000000   1.000000
      2          0.872331        0.871909   1.000000   1.000000
      3          2.999645        2.999390   1.000000   1.000000
      4          4.295282        4.294799   1.000000   1.000000
      5          8.300946        8.301010   0.000000   0.000000
      6          9.183000        9.182929   0.000000   0.000000
      7         10.307637       10.307835   0.000000   0.000000
      8         10.700453       10.700340   0.000000   0.000000
      9         13.429337       13.429299   0.000000   0.000000

  0.5000000E+00  0.2000000E+00  0.1000000E+00  0.4800000E-01
      1         -4.023822       -4.024206   1.000000   1.000000
      2         -0.460641       -0.460951   1.000000   1.000000
      3          2.765806        2.765537   1.000000   1.000000
      4          3.954446        3.954013   1.000000   1.000000
      5          8.339337        8.339369   0.000000   0.000000
      6          8.893642        8.893781   0.000000   0.000000
      7         10.627448       10.627344   0.000000   0.000000
      8         11.628535       11.628639   0.000000   0.000000
      9         14.728463       14.727884   0.000000   0.000000

 -0.4000000E+00  0.2000000E+00  0.1000000E+00  0.2400000E-01
      1         -3.578394       -3.578838   1.000000   1.000000
      2         -1.120285       -1.120518   1.000000   1.000000
      3          2.704552        2.704276   1.000000   1.000000
      4          3.820550        3.820136   1.000000   1.000000
      5          8.351964        8.351934   0.000000   0.000000
      6          8.730020        8.730268   0.000000   0.000000
      7         10.590583       10.590492   0.000000   0.000000
      8         13.346643       13.346682   0.000000   0.000000
      9         13.389922       13.390085   0.000000   0.000000

  0.4000000E+00  0.3000000E+00  0.1000000E+00  0.2400000E-01
      1         -4.530650       -4.530983   1.000000   1.000000
      2          0.866281        0.865751   1.000000   1.000000
      3          2.870466        2.870235   1.000000   1.000000
      4          3.575357        3.574989   1.000000   1.000000
      5          7.402527        7.402715   0.000000   0.000000
      6          8.682280        8.682632   0.000000   0.000000
      7         10.756667       10.756511   0.000000   0.000000
      8         12.080158       12.079892   0.000000   0.000000
      9         14.431390       14.431211   0.000000   0.000000

  0.5000000E+00  0.3000000E+00  0.1000000E+00  0.4800000E-01
      1         -3.825388       -3.825766   1.000000   1.000000
      2         -0.213992       -0.214460   1.000000   1.000000
      3          2.261829        2.261673   1.000000   1.000000
      4          3.256079        3.255772   1.000000   1.000000
      5          7.783003        7.783229   0.000000   0.000000
      6          9.368640        9.368869   0.000000   0.000000
      7         10.382587       10.382504   0.000000   0.000000
      8         12.471601       12.471384   0.000000   0.000000
      9         15.510293       15.523144   0.000000   0.000000

 -0.4000000E+00  0.3000000E+00  0.1000000E+00  0.4800000E-01
      1         -3.192504       -3.192950   1.000000   1.000000
      2         -1.053984       -1.054361   1.000000   1.000000
      3          1.859606        1.859489   1.000000   1.000000
      4          3.201830        3.201531   1.000000   1.000000
      5          7.962831        7.963065   0.000000   0.000000
      6          9.955412        9.955459   0.000000   0.000000
      7         11.078533       11.078593   0.000000   0.000000
      8         12.399671       12.399489   0.000000   0.000000
      9         13.481153       13.481157   0.000000   0.000000

 -0.3000000E+00  0.3000000E+00  0.1000000E+00  0.4800000E-01
      1         -3.388812       -3.389239   1.000000   1.000000
      2         -0.801507       -0.801912   1.000000   1.000000
      3          1.714978        1.714896   1.000000   1.000000
      4          3.435641        3.435308   1.000000   1.000000
      5          8.296383        8.296568   0.000000   0.000000
      6          9.700961        9.701018   0.000000   0.000000
      7         11.507764       11.507816   0.000000   0.000000
      8         12.284796       12.284654   0.000000   0.000000
      9         13.143384       13.143390   0.000000   0.000000

 -0.2000000E+00  0.3000000E+00  0.1000000E+00  0.2400000E-01
      1         -4.107075       -4.107441   1.000000   1.000000
      2          0.127416        0.126941   1.000000   1.000000
      3          2.013014        2.012924   1.000000   1.000000
      4          3.864789        3.864388   1.000000   1.000000
      5          8.775347        8.775426   0.000000   0.000000
      6          9.253888        9.253914   0.000000   0.000000
      7         10.300766       10.300953   0.000000   0.000000
      8         11.808606       11.808418   0.000000   0.000000
      9         13.489515       13.489484   0.000000   0.000000

  0.5000000E+00  0.4000000E+00  0.1000000E+00  0.2400000E-01
      1         -3.420418       -3.420804   1.000000   1.000000
      2         -0.605994       -0.606504   1.000000   1.000000
      3          2.467861        2.467659   1.000000   1.000000
      4          2.789018        2.788767   1.000000   1.000000
      5          7.119012        7.119281   0.000000   0.000000
      6          7.712200        7.712573   0.000000   0.000000
      7         12.289526       12.289384   0.000000   0.000000
      8         14.002837       14.002570   0.000000   0.000000
      9         15.949610       15.949333   0.000000   0.000000

 -0.4000000E+00  0.4000000E+00  0.1000000E+00  0.4800000E-01
      1         -2.699055       -2.699499   1.000000   1.000000
      2         -1.366728       -1.367207   1.000000   1.000000
      3          1.785976        1.785917   1.000000   1.000000
      4          2.699898        2.699664   1.000000   1.000000
      5          7.469213        7.469513   0.000000   0.000000
      6          8.893828        8.894023   0.000000   0.000000
      7         11.895232       11.895162   0.000000   0.000000
      8         13.651061       13.651001   0.000000   0.000000
      9         14.441199       14.440975   0.000000   0.000000

 -0.3000000E+00  0.4000000E+00  0.1000000E+00  0.2400000E-01
      1         -2.708257       -2.708728   1.000000   1.000000
      2         -1.337249       -1.337707   1.000000   1.000000
      3          1.380769        1.380779   1.000000   1.000000
      4          2.963372        2.963106   1.000000   1.000000
      5          7.790618        7.790885   0.000000   0.000000
      6         10.711289       10.711424   0.000000   0.000000
      7         11.493376       11.493297   0.000000   0.000000
      8         11.831773       11.831797   0.000000   0.000000
      9         13.921251       13.921039   0.000000   0.000000

 -0.4000000E+00  0.5000000E+00  0.1000000E+00  0.1200000E-01
      1         -2.079600       -2.080051   1.000000   1.000000
      2         -2.079600       -2.080051   1.000000   1.000000
      3          2.426951        2.426747   1.000000   1.000000
      4          2.426951        2.426747   1.000000   1.000000
      5          7.202001        7.202333   0.000000   0.000000
      6          7.202001        7.202333   0.000000   0.000000
      7         14.002848       14.002735   0.000000   0.000000
      8         14.002848       14.002735   0.000000   0.000000
      9         16.084190       16.083921   0.000000   0.000000

 -0.4000000E+00  0.4000000E+00  0.2000000E+00  0.2400000E-01
      1         -3.108896       -3.109322   1.000000   1.000000
      2         -0.897985       -0.898482   1.000000   1.000000
      3          1.727114        1.727059   1.000000   1.000000
      4          2.694229        2.694045   1.000000   1.000000
      5          8.998454        8.998562   0.000000   0.000000
      6          9.395478        9.395748   0.000000   0.000000
      7          9.987662        9.987619   0.000000   0.000000
      8         13.319188       13.319178   0.000000   0.000000
      9         13.973059       13.972812   0.000000   0.000000

 -0.3000000E+00  0.4000000E+00  0.2000000E+00  0.2400000E-01
      1         -2.610419       -2.610892   1.000000   1.000000
      2         -1.397318       -1.397788   1.000000   1.000000
      3          1.573876        1.573849   1.000000   1.000000
      4          2.449301        2.449157   1.000000   1.000000
      5          9.291716        9.291930   0.000000   0.000000
      6          9.568307        9.568346   0.000000   0.000000
      7         10.977989       10.978072   0.000000   0.000000
      8         11.384286       11.384269   0.000000   0.000000
      9         14.412907       14.412668   0.000000   0.000000

 -0.3000000E+00  0.5000000E+00  0.2000000E+00  0.1200000E-01
      1         -1.991327       -1.991809   1.000000   1.000000
      2         -1.991327       -1.991809   1.000000   1.000000
      3          1.929943        1.929873   1.000000   1.000000
      4          1.929943        1.929873   1.000000   1.000000
      5          9.041361        9.041538   0.000000   0.000000
      6          9.041361        9.041538   0.000000   0.000000