PROCAR lm decomposed
# of k-points:   47         # of bands:    9         # of ions:    2

 k-point     1 :    0.00000000 0.00000000 0.00000000     weight = 0.00100000

band     1 # energy   -6.19847181 # occ.  1.00000000

ion      s     py     pz     px    dxy    dyz    dz2    dxz  x2-y2    tot
    1  0.212  0.000  0.000  0.000  0.000  0.000  0.000  0.000  0.000  0.212
    2  0.212  0.000  0.000  0.000  0.000  0.000  0.000  0.000  0.000  0.212
tot    0.424  0.000  0.000  0.000  0.000  0.000  0.000  0.000  0.000  0.424

band     2 # energy    5.61630907 # occ.  1.00000000

ion      s     py     pz     px    dxy    dyz    dz2    dxz  x2-y2    tot
    1  0.000  0.032  0.067  0.115  0.000  0.000  0.000  0.000  0.000  0.214
    2  0.000  0.032  0.067  0.115  0.000  0.000  0.000  0.000  0.000  0.214
tot    0.000  0.063  0.135  0.230  0.000  0.000  0.000  0.000  0.000  0.428

band     3 # energy    5.61630907 # occ.  1.00000000

ion      s     py     pz     px    dxy    dyz    dz2    dxz  x2-y2    tot
    1  0.000  0.158  0.004  0.051  0.000  0.000  0.000  0.000  0.000  0.214
    2  0.000  0.158  0.004  0.051  0.000  0.000  0.000  0.000  0.000  0.214
tot    0.000  0.317  0.008  0.103  0.000  0.000  0.000  0.000  0.000  0.428

band     4 # energy    5.61630912 # occ.  1.00000000

ion      s     py     pz     px    dxy    dyz    dz2    dxz  x2-y2    tot
    1  0.000  0.024  0.143  0.048  0.000  0.000  0.000  0.000  0.000  0.214
    2  0.000  0.024  0.143  0.048  0.000  0.000  0.000  0.000  0.000  0.214
tot    0.000  0.048  0.285  0.095  0.000  0.000  0.000  0.000  0.000  0.428

band     5 # energy    8.17301546 # occ.  0.00000000

ion      s     py     pz     px    dxy    dyz    dz2    dxz  x2-y2    tot
    1  0.000  0.054  0.007  0.089  0.000  0.000  0.000  0.000  0.000  0.151
    2  0.000  0.054  0.007  0.089  0.000  0.000  0.000  0.000  0.000  0.151
tot    0.000  0.109  0.014  0.178  0.000  0.000  0.000  0.000  0.000  0.301

band     6 # energy    8.17301546 # occ.  0.00000000

ion      s     py     pz     px    dxy    dyz    dz2    dxz  x2-y2    tot
    1  0.000  0.079  0.043  0.028  0.000  0.000  0.000  0.000  0.000  0.151
    2  0.000  0.079  0.043  0.028  0.000  0.000  0.000  0.000  0.000  0.151
tot    0.000  0.159  0.086  0.056  0.000  0.000  0.000  0.000  0.000  0.301

band     7 # energy    8.17301550 # occ.  0.00000000

ion      s     py     pz     px    dxy    dyz    dz2    dxz  x2-y2    tot
    1  0.000  0.017  0.100  0.033  0.000  0.000  0.000  0.000  0.000  0.151
    2  0.000  0.017  0.100  0.033  0.000  0.000  0.000  0.000  0.000  0.151
tot    0.000  0.033  0.201  0.067  0.000  0.000  0.000  0.000  0.000  0.301

band     8 # energy    8.75004963 # occ.  0.00000000

ion      s     py     pz     px    dxy    dyz    dz2    dxz  x2-y2    tot
    1  0.358  0.000  0.000  0.000  0.000  0.000  0.000  0.000  0.000  0.358
    2  0.358  0.000  0.000  0.000  0.000  0.000  0.000  0.000  0.000  0.358
tot    0.717  0.000  0.000  0.000  0.000  0.000  0.000  0.000  0.000  0.717

band     9 # energy   13.32622992 # occ.  0.00000000

ion      s     py     pz     px    dxy    dyz    dz2    dxz  x2-y2    tot
    1  0.000  0.000  0.000  0.000  0.000  0.000  0.000  0.000  0.000  0.000
    2  0.000  0.000  0.000  0.000  0.000  0.000  0.000  0.000  0.000  0.000
tot    0.001  0.000  0.000  0.000  0.000  0.000  0.000  0.000  0.000  0.001


 k-point     2 :    0.10000000 0.00000000 0.00000000     weight = 0.00800000

band     1 # energy   -6.06989146 # occ.  1.00000000

ion      s     py     pz     px    dxy    dyz    dz2    dxz  x2-y2    tot
    1  0.211  0.000  0.000  0.001  0.000  0.000  0.000  0.000  0.000  0.213
    2  0.211  0.000  0.000  0.001  0.000  0.000  0.000  0.000  0.000  0.213
tot    0.423  0.000  0.000  0.002  0.000  0.000  0.000  0.000  0.000  0.425

band     2 # energy    4.47422527 # occ.  1.00000000

ion      s     py     pz     px    dxy    dyz    dz2    dxz  x2-y2    tot
    1  0.053  0.018  0.000  0.148  0.000  0.000  0.000  0.000  0.000  0.219
    2  0.053  0.018  0.000  0.148  0.000  0.000  0.000  0.000  0.000  0.219
tot    0.106  0.037  0.000  0.295  0.000  0.000  0.000  0.000  0.000  0.438

band     3 # energy    5.42252014 # occ.  1.00000000

ion      s     py     pz     px    dxy    dyz    dz2    dxz  x2-y2    tot
    1  0.000  0.141  0.053  0.018  0.000  0.000  0.000  0.000  0.000  0.212
    2  0.000  0.141  0.053  0.018  0.000  0.000  0.000  0.000  0.000  0.212
tot    0.000  0.283  0.105  0.035  0.000  0.000  0.000  0.000  0.000  0.423

band     4 # energy    5.42252018 # occ.  1.00000000

ion      s     py     pz     px    dxy    dyz    dz2    dxz  x2-y2    tot
    1  0.000  0.047  0.159  0.006  0.000  0.000  0.000  0.000  0.000  0.212
    2  0.000  0.047  0.159  0.006  0.000  0.000  0.000  0.000  0.000  0.212
tot    0.000  0.093  0.318  0.012  0.000  0.000  0.000  0.000  0.000  0.423

band     5 # energy    8.13887822 # occ.  0.00000000

ion      s     py     pz     px    dxy    dyz    dz2    dxz  x2-y2    tot
    1  0.092  0.011  0.000  0.089  0.000  0.000  0.000  0.000  0.000  0.192
    2  0.092  0.011  0.000  0.089  0.000  0.000  0.000  0.000  0.000  0.192
tot    0.183  0.022  0.000  0.179  0.000  0.000  0.000  0.000  0.000  0.385

band     6 # energy    8.45878617 # occ.  0.00000000

ion      s     py     pz     px    dxy    dyz    dz2    dxz  x2-y2    tot
    1  0.000  0.101  0.040  0.013  0.000  0.000  0.000  0.000  0.000  0.154
    2  0.000  0.101  0.040  0.013  0.000  0.000  0.000  0.000  0.000  0.154
tot    0.000  0.201  0.081  0.025  0.000  0.000  0.000  0.000  0.000  0.307

band     7 # energy    8.45878622 # occ.  0.00000000

ion      s     py     pz     px    dxy    dyz    dz2    dxz  x2-y2    tot
    1  0.000  0.036  0.113  0.004  0.000  0.000  0.000  0.000  0.000  0.154
    2  0.000  0.036  0.113  0.004  0.000  0.000  0.000  0.000  0.000  0.154
tot    0.000  0.072  0.227  0.009  0.000  0.000  0.000  0.000  0.000  0.307

band     8 # energy    9.72015110 # occ.  0.00000000

ion      s     py     pz     px    dxy    dyz    dz2    dxz  x2-y2    tot
    1  0.222  0.009  0.000  0.073  0.000  0.000  0.000  0.000  0.000  0.305
    2  0.222  0.009  0.000  0.073  0.000  0.000  0.000  0.000  0.000  0.305
tot    0.445  0.018  0.000  0.146  0.000  0.000  0.000  0.000  0.000  0.609

band     9 # energy   12.97556038 # occ.  0.00000000

ion      s     py     pz     px    dxy    dyz    dz2    dxz  x2-y2    tot
    1  0.000  0.001  0.000  0.000  0.000  0.000  0.000  0.000  0.000  0.001
    2  0.000  0.001  0.000  0.000  0.000  0.000  0.000  0.000  0.000  0.001
tot    0.000  0.002  0.000  0.000  0.000  0.000  0.000  0.000  0.000  0.003


 k-point     3 :    0.20000000 0.00000000 0.00000000     weight = 0.00800000

band     1 # energy   -5.69045956 # occ.  1.00000000

ion      s     py     pz     px    dxy    dyz    dz2    dxz  x2-y2    tot
    1  0.210  0.001  0.000  0.005  0.000  0.000  0.000  0.000  0.000  0.215
    2  0.210  0.001  0.000  0.005  0.000  0.000  0.000  0.000  0.000  0.215
tot    0.420  0.001  0.000  0.009  0.000  0.000  0.000  0.000  0.000  0.430

band     2 # energy    2.63435659 # occ.  1.00000000

ion      s     py     pz     px    dxy    dyz    dz2    dxz  x2-y2    tot
    1  0.087  0.014  0.000  0.115  0.000  0.000  0.000  0.000  0.000  0.217
    2  0.087  0.014  0.000  0.115  0.000  0.000  0.000  0.000  0.000  0.217
tot    0.175  0.029  0.000  0.231  0.000  0.000  0.000  0.000  0.000  0.434

band     3 # energy    5.04876295 # occ.  1.00000000

ion      s     py     pz     px    dxy    dyz    dz2    dxz  x2-y2    tot
    1  0.000  0.140  0.053  0.018  0.000  0.000  0.000  0.000  0.000  0.211
    2  0.000  0.140  0.053  0.018  0.000  0.000  0.000  0.000  0.000  0.211
tot    0.000  0.280  0.106  0.035  0.000  0.000  0.000  0.000  0.000  0.421

band     4 # energy    5.04876299 # occ.  1.00000000

ion      s     py     pz     px    dxy    dyz    dz2    dxz  x2-y2    tot
    1  0.000  0.047  0.158  0.006  0.000  0.000  0.000  0.000  0.000  0.211
    2  0.000  0.047  0.158  0.006  0.000  0.000  0.000  0.000  0.000  0.211
tot    0.000  0.094  0.315  0.012  0.000  0.000  0.000  0.000  0.000  0.421

band     5 # energy    7.76858880 # occ.  0.00000000

ion      s     py     pz     px    dxy    dyz    dz2    dxz  x2-y2    tot
    1  0.142  0.007  0.000  0.055  0.000  0.000  0.000  0.000  0.000  0.204
    2  0.142  0.007  0.000  0.055  0.000  0.000  0.000  0.000  0.000  0.204
tot    0.284  0.014  0.000  0.109  0.000  0.000  0.000  0.000  0.000  0.407

band     6 # energy    8.96064046 # occ.  0.00000000

ion      s     py     pz     px    dxy    dyz    dz2    dxz  x2-y2    tot
    1  0.000  0.099  0.038  0.012  0.000  0.000  0.000  0.000  0.000  0.150
    2  0.000  0.099  0.038  0.012  0.000  0.000  0.000  0.000  0.000  0.150
tot    0.000  0.198  0.077  0.025  0.000  0.000  0.000  0.000  0.000  0.299

band     7 # energy    8.96064050 # occ.  0.00000000

ion      s     py     pz     px    dxy    dyz    dz2    dxz  x2-y2    tot
    1  0.000  0.034  0.111  0.004  0.000  0.000  0.000  0.000  0.000  0.150
    2  0.000  0.034  0.111  0.004  0.000  0.000  0.000  0.000  0.000  0.150
tot    0.000  0.068  0.222  0.009  0.000  0.000  0.000  0.000  0.000  0.299

band     8 # energy   11.49456831 # occ.  0.00000000

ion      s     py     pz     px    dxy    dyz    dz2    dxz  x2-y2    tot
    1  0.144  0.015  0.000  0.118  0.000  0.000  0.000  0.000  0.000  0.277
    2  0.144  0.015  0.000  0.118  0.000  0.000  0.000  0.000  0.000  0.277
tot    0.288  0.029  0.000  0.236  0.000  0.000  0.000  0.000  0.000  0.553

band     9 # energy   12.66475886 # occ.  0.00000000

ion      s     py     pz     px    dxy    dyz    dz2    dxz  x2-y2    tot
    1  0.000  0.003  0.003  0.000  0.000  0.000  0.000  0.000  0.000  0.007
    2  0.000  0.003  0.003  0.000  0.000  0.000  0.000  0.000  0.000  0.007
tot    0.000  0.006  0.007  0.001  0.000  0.000  0.000  0.000  0.000  0.014


 k-point     4 :    0.30000000 0.00000000 0.00000000     weight = 0.00800000

band     1 # energy   -5.08709228 # occ.  1.00000000

ion      s     py     pz     px    dxy    dyz    dz2    dxz  x2-y2    tot
    1  0.209  0.001  0.000  0.009  0.000  0.000  0.000  0.000  0.000  0.220
    2  0.209  0.001  0.000  0.009  0.000  0.000  0.000  0.000  0.000  0.220
tot    0.418  0.002  0.000  0.019  0.000  0.000  0.000  0.000  0.000  0.439

band     2 # energy    0.87628204 # occ.  1.00000000

ion      s     py     pz     px    dxy    dyz    dz2    dxz  x2-y2    tot
    1  0.104  0.012  0.000  0.095  0.000  0.000  0.000  0.000  0.000  0.211
    2  0.104  0.012  0.000  0.095  0.000  0.000  0.000  0.000  0.000  0.211
tot    0.207  0.024  0.000  0.190  0.000  0.000  0.000  0.000  0.000  0.421

band     3 # energy    4.71866686 # occ.  1.00000000

ion      s     py     pz     px    dxy    dyz    dz2    dxz  x2-y2    tot
    1  0.000  0.142  0.053  0.018  0.000  0.000  0.000  0.000  0.000  0.212
    2  0.000  0.142  0.053  0.018  0.000  0.000  0.000  0.000  0.000  0.212
tot    0.000  0.283  0.106  0.035  0.000  0.000  0.000  0.000  0.000  0.425

band     4 # energy    4.71866690 # occ.  1.00000000

ion      s     py     pz     px    dxy    dyz    dz2    dxz  x2-y2    tot
    1  0.000  0.047  0.159  0.006  0.000  0.000  0.000  0.000  0.000  0.212
    2  0.000  0.047  0.159  0.006  0.000  0.000  0.000  0.000  0.000  0.212
tot    0.000  0.094  0.318  0.012  0.000  0.000  0.000  0.000  0.000  0.425

band     5 # energy    7.40490570 # occ.  0.00000000

ion      s     py     pz     px    dxy    dyz    dz2    dxz  x2-y2    tot
    1  0.167  0.004  0.000  0.034  0.000  0.000  0.000  0.000  0.000  0.205
    2  0.167  0.004  0.000  0.034  0.000  0.000  0.000  0.000  0.000  0.205
tot    0.333  0.009  0.000  0.068  0.000  0.000  0.000  0.000  0.000  0.410

band     6 # energy    9.14116488 # occ.  0.00000000

ion      s     py     pz     px    dxy    dyz    dz2    dxz  x2-y2    tot
    1  0.000  0.082  0.032  0.010  0.000  0.000  0.000  0.000  0.000  0.124
    2  0.000  0.082  0.032  0.010  0.000  0.000  0.000  0.000  0.000  0.124
tot    0.000  0.163  0.065  0.020  0.000  0.000  0.000  0.000  0.000  0.249

band     7 # energy    9.14116491 # occ.  0.00000000

ion      s     py     pz     px    dxy    dyz    dz2    dxz  x2-y2    tot
    1  0.000  0.029  0.092  0.004  0.000  0.000  0.000  0.000  0.000  0.124
    2  0.000  0.029  0.092  0.004  0.000  0.000  0.000  0.000  0.000  0.124
tot    0.000  0.058  0.184  0.007  0.000  0.000  0.000  0.000  0.000  0.249

band     8 # energy   13.11620347 # occ.  0.00000000

ion      s     py     pz     px    dxy    dyz    dz2    dxz  x2-y2    tot
    1  0.061  0.018  0.000  0.142  0.000  0.000  0.000  0.000  0.000  0.221
    2  0.061  0.017  0.000  0.142  0.000  0.000  0.000  0.000  0.000  0.221
tot    0.122  0.036  0.000  0.284  0.000  0.000  0.000  0.000  0.000  0.441

band     9 # energy   13.19044660 # occ.  0.00000000

ion      s     py     pz     px    dxy    dyz    dz2    dxz  x2-y2    tot
    1  0.000  0.008  0.019  0.001  0.000  0.000  0.000  0.000  0.000  0.028
    2  0.000  0.008  0.019  0.001  0.000  0.000  0.000  0.000  0.000  0.028
tot    0.000  0.015  0.038  0.002  0.000  0.000  0.000  0.000  0.000  0.056


 k-point     5 :    0.40000000 0.00000000 0.00000000     weight = 0.00800000

band     1 # energy   -4.35730363 # occ.  1.00000000

ion      s     py     pz     px    dxy    dyz    dz2    dxz  x2-y2    tot
    1  0.214  0.002  0.000  0.013  0.000  0.000  0.000  0.000  0.000  0.228
    2  0.214  0.002  0.000  0.013  0.000  0.000  0.000  0.000  0.000  0.228
tot    0.428  0.003  0.000  0.025  0.000  0.000  0.000  0.000  0.000  0.456

band     2 # energy   -0.57197806 # occ.  1.00000000

ion      s     py     pz     px    dxy    dyz    dz2    dxz  x2-y2    tot
    1  0.107  0.010  0.000  0.084  0.000  0.000  0.000  0.000  0.000  0.201
    2  0.107  0.010  0.000  0.084  0.000  0.000  0.000  0.000  0.000  0.201
tot    0.214  0.021  0.000  0.167  0.000  0.000  0.000  0.000  0.000  0.402

band     3 # energy    4.50880996 # occ.  1.00000000

ion      s     py     pz     px    dxy    dyz    dz2    dxz  x2-y2    tot
    1  0.000  0.144  0.053  0.018  0.000  0.000  0.000  0.000  0.000  0.214
    2  0.000  0.144  0.053  0.018  0.000  0.000  0.000  0.000  0.000  0.214
tot    0.000  0.287  0.106  0.036  0.000  0.000  0.000  0.000  0.000  0.429

band     4 # energy    4.50881000 # occ.  1.00000000

ion      s     py     pz     px    dxy    dyz    dz2    dxz  x2-y2    tot
    1  0.000  0.047  0.161  0.006  0.000  0.000  0.000  0.000  0.000  0.214
    2  0.000  0.047  0.161  0.006  0.000  0.000  0.000  0.000  0.000  0.214
tot    0.000  0.094  0.323  0.012  0.000  0.000  0.000  0.000  0.000  0.429

band     5 # energy    7.16498589 # occ.  0.00000000

ion      s     py     pz     px    dxy    dyz    dz2    dxz  x2-y2    tot
    1  0.180  0.003  0.000  0.022  0.000  0.000  0.000  0.000  0.000  0.205
    2  0.180  0.003  0.000  0.022  0.000  0.000  0.000  0.000  0.000  0.205
tot    0.361  0.006  0.000  0.045  0.000  0.000  0.000  0.000  0.000  0.411

band     6 # energy    9.03670907 # occ.  0.00000000

ion      s     py     pz     px    dxy    dyz    dz2    dxz  x2-y2    tot
    1  0.000  0.068  0.026  0.008  0.000  0.000  0.000  0.000  0.000  0.102
    2  0.000  0.068  0.026  0.008  0.000  0.000  0.000  0.000  0.000  0.102
tot    0.000  0.136  0.052  0.017  0.000  0.000  0.000  0.000  0.000  0.204

band     7 # energy    9.03670909 # occ.  0.00000000

ion      s     py     pz     px    dxy    dyz    dz2    dxz  x2-y2    tot
    1  0.000  0.023  0.076  0.003  0.000  0.000  0.000  0.000  0.000  0.102
    2  0.000  0.023  0.076  0.003  0.000  0.000  0.000  0.000  0.000  0.102
tot    0.000  0.046  0.153  0.006  0.000  0.000  0.000  0.000  0.000  0.204

band     8 # energy   13.42015787 # occ.  0.00000000

ion      s     py     pz     px    dxy    dyz    dz2    dxz  x2-y2    tot
    1  0.004  0.008  0.000  0.064  0.000  0.000  0.000  0.000  0.000  0.076
    2  0.004  0.008  0.000  0.064  0.000  0.000  0.000  0.000  0.000  0.076
tot    0.007  0.016  0.000  0.128  0.000  0.000  0.000  0.000  0.000  0.151

band     9 # energy   14.55273605 # occ.  0.00000000

ion      s     py     pz     px    dxy    dyz    dz2    dxz  x2-y2    tot
    1  0.000  0.009  0.032  0.001  0.000  0.000  0.000  0.000  0.000  0.042
    2  0.000  0.009  0.032  0.001  0.000  0.000  0.000  0.000  0.000  0.042
tot    0.000  0.017  0.064  0.002  0.000  0.000  0.000  0.000  0.000  0.083


 k-point     6 :    0.50000000 0.00000000 0.00000000     weight = 0.00400000

band     1 # energy   -3.91967056 # occ.  1.00000000

ion      s     py     pz     px    dxy    dyz    dz2    dxz  x2-y2    tot
    1  0.224  0.001  0.000  0.012  0.000  0.000  0.000  0.000  0.000  0.237
    2  0.224  0.001  0.000  0.012  0.000  0.000  0.000  0.000  0.000  0.237
tot    0.447  0.003  0.000  0.024  0.000  0.000  0.000  0.000  0.000  0.474

band     2 # energy   -1.25245290 # occ.  1.00000000

ion      s     py     pz     px    dxy    dyz    dz2    dxz  x2-y2    tot
    1  0.100  0.010  0.000  0.082  0.000  0.000  0.000  0.000  0.000  0.192
    2  0.100  0.010  0.000  0.082  0.000  0.000  0.000  0.000  0.000  0.192
tot    0.199  0.020  0.000  0.164  0.000  0.000  0.000  0.000  0.000  0.383

band     3 # energy    4.43790691 # occ.  1.00000000

ion      s     py     pz     px    dxy    dyz    dz2    dxz  x2-y2    tot
    1  0.000  0.138  0.060  0.017  0.000  0.000  0.000  0.000  0.000  0.215
    2  0.000  0.138  0.060  0.017  0.000  0.000  0.000  0.000  0.000  0.215
tot    0.000  0.276  0.120  0.035  0.000  0.000  0.000  0.000  0.000  0.431

band     4 # energy    4.43790695 # occ.  1.00000000

ion      s     py     pz     px    dxy    dyz    dz2    dxz  x2-y2    tot
    1  0.000  0.053  0.155  0.007  0.000  0.000  0.000  0.000  0.000  0.215
    2  0.000  0.053  0.155  0.007  0.000  0.000  0.000  0.000  0.000  0.215
tot    0.000  0.107  0.311  0.013  0.000  0.000  0.000  0.000  0.000  0.431

band     5 # energy    7.08266323 # occ.  0.00000000

ion      s     py     pz     px    dxy    dyz    dz2    dxz  x2-y2    tot
    1  0.185  0.002  0.000  0.018  0.000  0.000  0.000  0.000  0.000  0.206
    2  0.185  0.002  0.000  0.018  0.000  0.000  0.000  0.000  0.000  0.206
tot    0.370  0.005  0.000  0.037  0.000  0.000  0.000  0.000  0.000  0.411

band     6 # energy    8.96556103 # occ.  0.00000000

ion      s     py     pz     px    dxy    dyz    dz2    dxz  x2-y2    tot
    1  0.000  0.063  0.024  0.008  0.000  0.000  0.000  0.000  0.000  0.095
    2  0.000  0.063  0.024  0.008  0.000  0.000  0.000  0.000  0.000  0.095
tot    0.000  0.127  0.048  0.016  0.000  0.000  0.000  0.000  0.000  0.190

band     7 # energy    8.96556104 # occ.  0.00000000

ion      s     py     pz     px    dxy    dyz    dz2    dxz  x2-y2    tot
    1  0.000  0.021  0.071  0.003  0.000  0.000  0.000  0.000  0.000  0.095
    2  0.000  0.021  0.071  0.003  0.000  0.000  0.000  0.000  0.000  0.095
tot    0.000  0.042  0.143  0.005  0.000  0.000  0.000  0.000  0.000  0.190

band     8 # energy   13.31712465 # occ.  0.00000000

ion      s     py     pz     px    dxy    dyz    dz2    dxz  x2-y2    tot
    1  0.005  0.006  0.000  0.048  0.000  0.000  0.000  0.000  0.000  0.060
    2  0.005  0.006  0.000  0.048  0.000  0.000  0.000  0.000  0.000  0.060
tot    0.011  0.012  0.000  0.097  0.000  0.000  0.000  0.000  0.000  0.120

band     9 # energy   16.11136871 # occ.  0.00000000

ion      s     py     pz     px    dxy    dyz    dz2    dxz  x2-y2    tot
    1  0.000  0.000  0.000  0.000  0.000  0.000  0.000  0.000  0.000  0.000
    2  0.000  0.000  0.000  0.000  0.000  0.000  0.000  0.000  0.000  0.000
tot    0.000  0.000  0.001  0.000  0.000  0.000  0.000  0.000  0.000  0.001


 k-point     7 :    0.10000000 0.10000000 0.00000000     weight = 0.00600000

band     1 # energy   -6.02673673 # occ.  1.00000000

ion      s     py     pz     px    dxy    dyz    dz2    dxz  x2-y2    tot
    1  0.211  0.001  0.000  0.001  0.000  0.000  0.000  0.000  0.000  0.213
    2  0.211  0.001  0.000  0.001  0.000  0.000  0.000  0.000  0.000  0.213
tot    0.422  0.001  0.000  0.002  0.000  0.000  0.000  0.000  0.000  0.426

band     2 # energy    4.66068202 # occ.  1.00000000

ion      s     py     pz     px    dxy    dyz    dz2    dxz  x2-y2    tot
    1  0.081  0.052  0.000  0.105  0.000  0.000  0.000  0.000  0.000  0.238
    2  0.081  0.052  0.000  0.105  0.000  0.000  0.000  0.000  0.000  0.238
tot    0.162  0.105  0.000  0.210  0.000  0.000  0.000  0.000  0.000  0.476

band     3 # energy    5.05481553 # occ.  1.00000000

ion      s     py     pz     px    dxy    dyz    dz2    dxz  x2-y2    tot
    1  0.000  0.136  0.000  0.068  0.000  0.000  0.000  0.000  0.000  0.204
    2  0.000  0.136  0.000  0.068  0.000  0.000  0.000  0.000  0.000  0.204
tot    0.000  0.272  0.000  0.136  0.000  0.000  0.000  0.000  0.000  0.408

band     4 # energy    5.05481556 # occ.  1.00000000

ion      s     py     pz     px    dxy    dyz    dz2    dxz  x2-y2    tot
    1  0.000  0.000  0.204  0.000  0.000  0.000  0.000  0.000  0.000  0.204
    2  0.000  0.000  0.204  0.000  0.000  0.000  0.000  0.000  0.000  0.204
tot    0.000  0.000  0.408  0.000  0.000  0.000  0.000  0.000  0.000  0.408

band     5 # energy    7.80117854 # occ.  0.00000000

ion      s     py     pz     px    dxy    dyz    dz2    dxz  x2-y2    tot
    1  0.014  0.042  0.000  0.085  0.000  0.000  0.000  0.000  0.000  0.142
    2  0.014  0.042  0.000  0.085  0.000  0.000  0.000  0.000  0.000  0.142
tot    0.029  0.085  0.000  0.170  0.000  0.000  0.000  0.000  0.000  0.283

band     6 # energy    8.94540358 # occ.  0.00000000

ion      s     py     pz     px    dxy    dyz    dz2    dxz  x2-y2    tot
    1  0.000  0.107  0.000  0.053  0.000  0.000  0.000  0.000  0.000  0.161
    2  0.000  0.107  0.000  0.053  0.000  0.000  0.000  0.000  0.000  0.161
tot    0.000  0.214  0.000  0.107  0.000  0.000  0.000  0.000  0.000  0.321

band     7 # energy    8.94540361 # occ.  0.00000000

ion      s     py     pz     px    dxy    dyz    dz2    dxz  x2-y2    tot
    1  0.000  0.000  0.160  0.000  0.000  0.000  0.000  0.000  0.000  0.161
    2  0.000  0.000  0.160  0.000  0.000  0.000  0.000  0.000  0.000  0.161
tot    0.000  0.000  0.321  0.000  0.000  0.000  0.000  0.000  0.000  0.321

band     8 # energy    9.60468953 # occ.  0.00000000

ion      s     py     pz     px    dxy    dyz    dz2    dxz  x2-y2    tot
    1  0.264  0.021  0.000  0.043  0.000  0.000  0.000  0.000  0.000  0.328
    2  0.264  0.021  0.000  0.043  0.000  0.000  0.000  0.000  0.000  0.328
tot    0.529  0.043  0.000  0.085  0.000  0.000  0.000  0.000  0.000  0.656

band     9 # energy   12.35281612 # occ.  0.00000000

ion      s     py     pz     px    dxy    dyz    dz2    dxz  x2-y2    tot
    1  0.012  0.000  0.000  0.000  0.000  0.000  0.000  0.000  0.000  0.012
    2  0.012  0.000  0.000  0.000  0.000  0.000  0.000  0.000  0.000  0.012
tot    0.024  0.000  0.000  0.000  0.000  0.000  0.000  0.000  0.000  0.024


 k-point     8 :    0.20000000 0.10000000 0.00000000     weight = 0.02400000

band     1 # energy   -5.72969420 # occ.  1.00000000

ion      s     py     pz     px    dxy    dyz    dz2    dxz  x2-y2    tot
    1  0.210  0.000  0.000  0.005  0.000  0.000  0.000  0.000  0.000  0.215
    2  0.210  0.000  0.000  0.005  0.000  0.000  0.000  0.000  0.000  0.215
tot    0.420  0.000  0.000  0.010  0.000  0.000  0.000  0.000  0.000  0.429

band     2 # energy    3.17478792 # occ.  1.00000000

ion      s     py     pz     px    dxy    dyz    dz2    dxz  x2-y2    tot
    1  0.095  0.010  0.000  0.124  0.000  0.000  0.000  0.000  0.000  0.228
    2  0.095  0.010  0.000  0.124  0.000  0.000  0.000  0.000  0.000  0.228
tot    0.190  0.019  0.000  0.247  0.000  0.000  0.000  0.000  0.000  0.457

band     3 # energy    4.62830565 # occ.  1.00000000

ion      s     py     pz     px    dxy    dyz    dz2    dxz  x2-y2    tot
    1  0.000  0.000  0.202  0.000  0.000  0.000  0.000  0.000  0.000  0.202
    2  0.000  0.000  0.202  0.000  0.000  0.000  0.000  0.000  0.000  0.202
tot    0.000  0.000  0.403  0.000  0.000  0.000  0.000  0.000  0.000  0.403

band     4 # energy    4.78627174 # occ.  1.00000000

ion      s     py     pz     px    dxy    dyz    dz2    dxz  x2-y2    tot
    1  0.021  0.166  0.000  0.024  0.000  0.000  0.000  0.000  0.000  0.211
    2  0.021  0.166  0.000  0.024  0.000  0.000  0.000  0.000  0.000  0.211
tot    0.042  0.332  0.000  0.048  0.000  0.000  0.000  0.000  0.000  0.422

band     5 # energy    7.85536749 # occ.  0.00000000

ion      s     py     pz     px    dxy    dyz    dz2    dxz  x2-y2    tot
    1  0.026  0.069  0.000  0.049  0.000  0.000  0.000  0.000  0.000  0.144
    2  0.026  0.069  0.000  0.049  0.000  0.000  0.000  0.000  0.000  0.144
tot    0.052  0.138  0.000  0.098  0.000  0.000  0.000  0.000  0.000  0.288

band     6 # energy    8.95453467 # occ.  0.00000000

ion      s     py     pz     px    dxy    dyz    dz2    dxz  x2-y2    tot
    1  0.086  0.108  0.000  0.012  0.000  0.000  0.000  0.000  0.000  0.206
    2  0.086  0.108  0.000  0.012  0.000  0.000  0.000  0.000  0.000  0.206
tot    0.173  0.215  0.000  0.024  0.000  0.000  0.000  0.000  0.000  0.412

band     7 # energy    9.58913708 # occ.  0.00000000

ion      s     py     pz     px    dxy    dyz    dz2    dxz  x2-y2    tot
    1  0.000  0.000  0.160  0.000  0.000  0.000  0.000  0.000  0.000  0.160
    2  0.000  0.000  0.160  0.000  0.000  0.000  0.000  0.000  0.000  0.160
tot    0.000  0.000  0.320  0.000  0.000  0.000  0.000  0.000  0.000  0.320

band     8 # energy   10.52880635 # occ.  0.00000000

ion      s     py     pz     px    dxy    dyz    dz2    dxz  x2-y2    tot
    1  0.079  0.006  0.000  0.086  0.000  0.000  0.000  0.000  0.000  0.171
    2  0.079  0.006  0.000  0.086  0.000  0.000  0.000  0.000  0.000  0.171
tot    0.158  0.013  0.000  0.171  0.000  0.000  0.000  0.000  0.000  0.341

band     9 # energy   12.30872555 # occ.  0.00000000

ion      s     py     pz     px    dxy    dyz    dz2    dxz  x2-y2    tot
    1  0.075  0.005  0.000  0.035  0.000  0.000  0.000  0.000  0.000  0.115
    2  0.075  0.005  0.000  0.035  0.000  0.000  0.000  0.000  0.000  0.115
tot    0.149  0.011  0.000  0.070  0.000  0.000  0.000  0.000  0.000  0.230


 k-point     9 :    0.30000000 0.10000000 0.00000000     weight = 0.02400000

band     1 # energy   -5.19641014 # occ.  1.00000000

ion      s     py     pz     px    dxy    dyz    dz2    dxz  x2-y2    tot
    1  0.208  0.000  0.000  0.010  0.000  0.000  0.000  0.000  0.000  0.219
    2  0.208  0.000  0.000  0.010  0.000  0.000  0.000  0.000  0.000  0.219
tot    0.417  0.000  0.000  0.020  0.000  0.000  0.000  0.000  0.000  0.437

band     2 # energy    1.44406551 # occ.  1.00000000

ion      s     py     pz     px    dxy    dyz    dz2    dxz  x2-y2    tot
    1  0.109  0.012  0.000  0.098  0.000  0.000  0.000  0.000  0.000  0.219
    2  0.109  0.012  0.000  0.098  0.000  0.000  0.000  0.000  0.000  0.219
tot    0.218  0.024  0.000  0.197  0.000  0.000  0.000  0.000  0.000  0.439

band     3 # energy    4.31403442 # occ.  1.00000000

ion      s     py     pz     px    dxy    dyz    dz2    dxz  x2-y2    tot
    1  0.000  0.000  0.203  0.000  0.000  0.000  0.000  0.000  0.000  0.203
    2  0.000  0.000  0.203  0.000  0.000  0.000  0.000  0.000  0.000  0.203
tot    0.000  0.000  0.406  0.000  0.000  0.000  0.000  0.000  0.000  0.406

band     4 # energy    4.35841382 # occ.  1.00000000

ion      s     py     pz     px    dxy    dyz    dz2    dxz  x2-y2    tot
    1  0.029  0.151  0.000  0.029  0.000  0.000  0.000  0.000  0.000  0.210
    2  0.029  0.151  0.000  0.029  0.000  0.000  0.000  0.000  0.000  0.210
tot    0.059  0.303  0.000  0.058  0.000  0.000  0.000  0.000  0.000  0.420

band     5 # energy    7.96337775 # occ.  0.00000000

ion      s     py     pz     px    dxy    dyz    dz2    dxz  x2-y2    tot
    1  0.074  0.058  0.000  0.033  0.000  0.000  0.000  0.000  0.000  0.165
    2  0.074  0.058  0.000  0.033  0.000  0.000  0.000  0.000  0.000  0.165
tot    0.148  0.115  0.000  0.066  0.000  0.000  0.000  0.000  0.000  0.329

band     6 # energy    8.95784730 # occ.  0.00000000

ion      s     py     pz     px    dxy    dyz    dz2    dxz  x2-y2    tot
    1  0.056  0.118  0.000  0.000  0.000  0.000  0.000  0.000  0.000  0.174
    2  0.056  0.118  0.000  0.000  0.000  0.000  0.000  0.000  0.000  0.174
tot    0.111  0.235  0.000  0.001  0.000  0.000  0.000  0.000  0.000  0.347

band     7 # energy    9.87601327 # occ.  0.00000000

ion      s     py     pz     px    dxy    dyz    dz2    dxz  x2-y2    tot
    1  0.000  0.000  0.139  0.000  0.000  0.000  0.000  0.000  0.000  0.139
    2  0.000  0.000  0.139  0.000  0.000  0.000  0.000  0.000  0.000  0.139
tot    0.000  0.000  0.279  0.000  0.000  0.000  0.000  0.000  0.000  0.279

band     8 # energy   10.91782593 # occ.  0.00000000

ion      s     py     pz     px    dxy    dyz    dz2    dxz  x2-y2    tot
    1  0.026  0.012  0.000  0.047  0.000  0.000  0.000  0.000  0.000  0.085
    2  0.026  0.012  0.000  0.047  0.000  0.000  0.000  0.000  0.000  0.085
tot    0.052  0.024  0.000  0.094  0.000  0.000  0.000  0.000  0.000  0.171

band     9 # energy   13.73960450 # occ.  0.00000000

ion      s     py     pz     px    dxy    dyz    dz2    dxz  x2-y2    tot
    1  0.080  0.010  0.000  0.106  0.000  0.000  0.000  0.000  0.000  0.196
    2  0.079  0.010  0.000  0.105  0.000  0.000  0.000  0.000  0.000  0.195
tot    0.159  0.021  0.000  0.210  0.000  0.000  0.000  0.000  0.000  0.390


 k-point    10 :    0.40000000 0.10000000 0.00000000     weight = 0.02400000

band     1 # energy   -4.48788745 # occ.  1.00000000

ion      s     py     pz     px    dxy    dyz    dz2    dxz  x2-y2    tot