<?xml version="1.0" encoding="ISO-8859-1"?>
<modeling>
 <generator>
  <i name="program" type="string">vasp </i>
  <i name="version" type="string">6.4.1  </i>
  <i name="subversion" type="string">05Apr23 (build May 18 2023 13:19:41) complex                          parallel </i>
  <i name="platform" type="string">LinuxNV_CrayMPICH </i>
  <i name="date" type="string">2023 10 12 </i>
  <i name="time" type="string">12:42:47 </i>
 </generator>
 <incar>
  <i type="string" name="PREC">Accurate</i>
  <i type="string" name="ALGO">Normal</i>
  <i type="int" name="ISPIN">     2</i>
  <i type="int" name="NELM">   200</i>
  <i name="EDIFF">      0.00001000</i>
  <i type="int" name="NSW">     0</i>
  <i name="ENCUT">    680.00000000</i>
  <i name="ENAUG">   1360.00000000</i>
  <i type="logical" name="LREAL"> F  </i>
  <i type="int" name="ISMEAR">     0</i>
  <i name="SIGMA">      0.05000000</i>
  <i name="KSPACING">      0.22000000</i>
  <i type="int" name="LMAXMIX">     6</i>
  <i type="logical" name="LWAVE"> F  </i>
  <i type="logical" name="LCHARG"> T  </i>
  <i type="int" name="LORBIT">    11</i>
  <i type="logical" name="LASPH"> T  </i>
  <i type="logical" name="LAECHG"> T  </i>
  <i type="string" name="GGA">Pe</i>
  <i type="logical" name="LMIXTAU"> T  </i>
 </incar>
 <primitive_cell>
  <structure name="primitive_cell" >
   <crystal>
    <varray name="basis" >
     <v>       3.34889828       0.00000000       1.93348733 </v>
     <v>       1.11629943       3.15737158       1.93348733 </v>
     <v>       0.00000000       0.00000000       3.86697465 </v>
    </varray>
    <i name="volume">     40.88829275 </i>
    <varray name="rec_basis" >
     <v>       0.29860567      -0.10557305       0.00000000 </v>
     <v>       0.00000000       0.31671914       0.00000000 </v>
     <v>      -0.14930283      -0.10557305       0.25860009 </v>
    </varray>
   </crystal>
   <varray name="positions" >
    <v>       0.25000000       0.25000000       0.25000000 </v>
    <v>       0.00000000       0.00000000       0.00000000 </v>
   </varray>
  </structure>
  <varray name="primitive_index" >
   <v type="int" >        1 </v>
   <v type="int" >        2 </v>
  </varray>
 </primitive_cell>
 <kpoints>
  <generation param="Gamma">
   <v type="int" name="divisions">      10       10       10 </v>
   <v name="usershift">      0.00000000       0.00000000       0.00000000 </v>
   <v name="genvec1">      0.10000000       0.00000000       0.00000000 </v>
   <v name="genvec2">      0.00000000       0.10000000       0.00000000 </v>
   <v name="genvec3">     -0.00000000       0.00000000       0.10000000 </v>
   <v name="shift">      0.00000000       0.00000000       0.00000000 </v>
  </generation>
  <varray name="kpointlist" >
   <v>       0.00000000       0.00000000       0.00000000 </v>
   <v>       0.10000000       0.00000000       0.00000000 </v>
   <v>       0.20000000       0.00000000       0.00000000 </v>
   <v>       0.30000000       0.00000000       0.00000000 </v>
   <v>       0.40000000       0.00000000       0.00000000 </v>
   <v>       0.50000000       0.00000000       0.00000000 </v>
   <v>       0.10000000       0.10000000       0.00000000 </v>
   <v>       0.20000000       0.10000000       0.00000000 </v>
   <v>       0.30000000       0.10000000       0.00000000 </v>
   <v>       0.40000000       0.10000000       0.00000000 </v>
   <v>       0.50000000       0.10000000       0.00000000 </v>
   <v>      -0.40000000       0.10000000       0.00000000 </v>
   <v>      -0.30000000       0.10000000       0.00000000 </v>
   <v>      -0.20000000       0.10000000       0.00000000 </v>
   <v>      -0.10000000       0.10000000       0.00000000 </v>
   <v>       0.20000000       0.20000000       0.00000000 </v>
   <v>       0.30000000       0.20000000       0.00000000 </v>
   <v>       0.40000000       0.20000000       0.00000000 </v>
   <v>       0.50000000       0.20000000       0.00000000 </v>
   <v>      -0.40000000       0.20000000       0.00000000 </v>
   <v>      -0.30000000       0.20000000       0.00000000 </v>
   <v>      -0.20000000       0.20000000       0.00000000 </v>
   <v>       0.30000000       0.30000000       0.00000000 </v>
   <v>       0.40000000       0.30000000       0.00000000 </v>
   <v>       0.50000000       0.30000000       0.00000000 </v>
   <v>      -0.40000000       0.30000000       0.00000000 </v>
   <v>      -0.30000000       0.30000000       0.00000000 </v>
   <v>       0.40000000       0.40000000       0.00000000 </v>
   <v>       0.50000000       0.40000000       0.00000000 </v>
   <v>      -0.40000000       0.40000000       0.00000000 </v>
   <v>       0.50000000       0.50000000       0.00000000 </v>
   <v>       0.30000000       0.20000000       0.10000000 </v>
   <v>       0.40000000       0.20000000       0.10000000 </v>
   <v>       0.50000000       0.20000000       0.10000000 </v>
   <v>      -0.40000000       0.20000000       0.10000000 </v>
   <v>       0.40000000       0.30000000       0.10000000 </v>
   <v>       0.50000000       0.30000000       0.10000000 </v>
   <v>      -0.40000000       0.30000000       0.10000000 </v>
   <v>      -0.30000000       0.30000000       0.10000000 </v>
   <v>      -0.20000000       0.30000000       0.10000000 </v>
   <v>       0.50000000       0.40000000       0.10000000 </v>
   <v>      -0.40000000       0.40000000       0.10000000 </v>
   <v>      -0.30000000       0.40000000       0.10000000 </v>
   <v>      -0.40000000       0.50000000       0.10000000 </v>
   <v>      -0.40000000       0.40000000       0.20000000 </v>
   <v>      -0.30000000       0.40000000       0.20000000 </v>
   <v>      -0.30000000       0.50000000       0.20000000 </v>
  </varray>
  <varray name="weights" >
   <v>       0.00100000 </v>
   <v>       0.00800000 </v>
   <v>       0.00800000 </v>
   <v>       0.00800000 </v>
   <v>       0.00800000 </v>
   <v>       0.00400000 </v>
   <v>       0.00600000 </v>
   <v>       0.02400000 </v>
   <v>       0.02400000 </v>
   <v>       0.02400000 </v>
   <v>       0.02400000 </v>
   <v>       0.02400000 </v>
   <v>       0.02400000 </v>
   <v>       0.02400000 </v>
   <v>       0.01200000 </v>
   <v>       0.00600000 </v>
   <v>       0.02400000 </v>
   <v>       0.02400000 </v>
   <v>       0.02400000 </v>
   <v>       0.02400000 </v>
   <v>       0.02400000 </v>
   <v>       0.01200000 </v>
   <v>       0.00600000 </v>
   <v>       0.02400000 </v>
   <v>       0.02400000 </v>
   <v>       0.02400000 </v>
   <v>       0.01200000 </v>
   <v>       0.00600000 </v>
   <v>       0.02400000 </v>
   <v>       0.01200000 </v>
   <v>       0.00300000 </v>
   <v>       0.02400000 </v>
   <v>       0.04800000 </v>
   <v>       0.04800000 </v>
   <v>       0.02400000 </v>
   <v>       0.02400000 </v>
   <v>       0.04800000 </v>
   <v>       0.04800000 </v>
   <v>       0.04800000 </v>
   <v>       0.02400000 </v>
   <v>       0.02400000 </v>
   <v>       0.04800000 </v>
   <v>       0.02400000 </v>
   <v>       0.01200000 </v>
   <v>       0.02400000 </v>
   <v>       0.02400000 </v>
   <v>       0.01200000 </v>
  </varray>
 </kpoints>
 <parameters>
  <separator name="general" >
   <i type="string" name="SYSTEM">unknown system</i>
   <i type="logical" name="LCOMPAT"> F  </i>
  </separator>
  <separator name="electronic" >
   <i type="string" name="PREC">accura</i>
   <i name="ENMAX">    680.00000000</i>
   <i name="ENAUG">   1360.00000000</i>
   <i name="EDIFF">      0.00001000</i>
   <i type="int" name="IALGO">    38</i>
   <i type="int" name="IWAVPR">    10</i>
   <i type="int" name="NBANDS">     9</i>
   <i type="int" name="NBANDSLOW">    -1</i>
   <i type="int" name="NBANDSHIGH">    -1</i>
   <i name="NELECT">      8.00000000</i>
   <i type="int" name="TURBO">     0</i>
   <i type="int" name="IRESTART">     0</i>
   <i type="int" name="NREBOOT">     0</i>
   <i type="int" name="NMIN">     0</i>
   <i name="EREF">      0.00000000</i>
   <separator name="electronic smearing" >
    <i type="int" name="ISMEAR">     0</i>
    <i name="SIGMA">      0.05000000</i>
    <i name="KSPACING">      0.22000000</i>
    <i type="logical" name="KGAMMA"> T  </i>
    <i type="logical" name="KBLOWUP"> T  </i>
   </separator>
   <separator name="electronic projectors" >
    <i type="logical" name="LREAL"> F  </i>
    <v name="ROPT">      0.00000000</v>
    <i type="int" name="LMAXPAW">  -100</i>
    <i type="int" name="LMAXMIX">     6</i>
    <i type="logical" name="NLSPLINE"> F  </i>
   </separator>
   <separator name="electronic startup" >
    <i type="int" name="ISTART">     0</i>
    <i type="int" name="ICHARG">     2</i>
    <i type="int" name="INIWAV">     1</i>
   </separator>
   <separator name="electronic spin" >
    <i type="int" name="ISPIN">     2</i>
    <i type="logical" name="LNONCOLLINEAR"> F  </i>
    <v name="MAGMOM">      1.00000000      1.00000000</v>
    <i name="NUPDOWN">     -1.00000000</i>
    <i type="logical" name="LSORBIT"> F  </i>
    <v name="SAXIS">      0.00000000      0.00000000      1.00000000</v>
    <i type="logical" name="LSPIRAL"> F  </i>
    <v name="QSPIRAL">      0.00000000      0.00000000      0.00000000</v>
    <i type="logical" name="LZEROZ"> F  </i>
   </separator>
   <separator name="electronic exchange-correlation" >
    <i type="logical" name="LASPH"> T  </i>
    <i type="logical" name="LMETAGGA"> F  </i>
   </separator>
   <separator name="electronic convergence" >
    <i type="int" name="NELM">   200</i>
    <i type="int" name="NELMDL">    -5</i>
    <i type="int" name="NELMIN">     2</i>
    <i name="ENINI">    680.00000000</i>
    <separator name="electronic convergence detail" >
     <i type="logical" name="LDIAG"> T  </i>
     <i type="logical" name="LSUBROT"> F  </i>
     <i name="WEIMIN">      0.00000000</i>
     <i name="EBREAK">      0.00000028</i>
     <i name="DEPER">      0.30000000</i>
     <i type="int" name="NRMM">     4</i>
     <i name="TIME">      0.40000000</i>
    </separator>
   </separator>
   <separator name="electronic mixer" >
    <i name="AMIX">      0.40000000</i>
    <i name="BMIX">      1.00000000</i>
    <i name="AMIN">      0.10000000</i>
    <i name="AMIX_MAG">      1.60000000</i>
    <i name="BMIX_MAG">      1.00000000</i>
    <separator name="electronic mixer details" >
     <i type="int" name="IMIX">     4</i>
     <i type="logical" name="MIXFIRST"> F  </i>
     <i type="int" name="MAXMIX">   -45</i>
     <i name="WC">    100.00000000</i>
     <i type="int" name="INIMIX">     1</i>
     <i type="int" name="MIXPRE">     1</i>
     <i type="int" name="MREMOVE">     5</i>
    </separator>
   </separator>
   <separator name="electronic dipolcorrection" >
    <i type="logical" name="LDIPOL"> F  </i>
    <i type="logical" name="LMONO"> F  </i>
    <i type="int" name="IDIPOL">     0</i>
    <i name="EPSILON">      1.00000000</i>
    <v name="DIPOL">   -100.00000000   -100.00000000   -100.00000000</v>
    <i name="EFIELD">      0.00000000</i>
   </separator>
  </separator>
  <separator name="grids" >
   <i type="int" name="NGX">    36</i>
   <i type="int" name="NGY">    36</i>
   <i type="int" name="NGZ">    36</i>
   <i type="int" name="NGXF">    72</i>
   <i type="int" name="NGYF">    72</i>
   <i type="int" name="NGZF">    72</i>
   <i type="logical" name="ADDGRID"> F  </i>
  </separator>
  <separator name="ionic" >
   <i type="int" name="NSW">     0</i>
   <i type="int" name="IBRION">    -1</i>
   <i type="int" name="MDALGO">     0</i>
   <i type="int" name="ISIF">     2</i>
   <i name="PSTRESS">      0.00000000</i>
   <i name="EDIFFG">      0.00010000</i>
   <i type="int" name="NFREE">     0</i>
   <i name="POTIM">      0.50000000</i>
   <i name="SMASS">     -3.00000000</i>
   <i name="SCALEE">      1.00000000</i>
  </separator>
  <separator name="ionic md" >
   <i name="TEBEG">      0.00010000</i>
   <i name="TEEND">      0.00010000</i>
   <i type="int" name="NBLOCK">     1</i>
   <i type="int" name="KBLOCK">     1</i>
   <i type="int" name="NPACO">   256</i>
   <i name="APACO">     10.00000000</i>
  </separator>
  <separator name="symmetry" >
   <i type="int" name="ISYM">     2</i>
   <i name="SYMPREC">      0.00001000</i>
  </separator>
  <separator name="dos" >
   <i type="int" name="LORBIT">    11</i>
   <v name="RWIGS">     -1.00000000</v>
   <i type="int" name="NEDOS">   301</i>
   <i name="EMIN">     10.00000000</i>
   <i name="EMAX">    -10.00000000</i>
   <i name="EFERMI">      0.00000000</i>
  </separator>
  <separator name="writing" >
   <i type="int" name="NWRITE">     2</i>
   <i type="logical" name="LWAVE"> F  </i>
   <i type="logical" name="LDOWNSAMPLE"> F  </i>
   <i type="logical" name="LCHARG"> T  </i>
   <i type="logical" name="LPARD"> F  </i>
   <i type="logical" name="LVTOT"> F  </i>
   <i type="logical" name="LVHAR"> F  </i>
   <i type="logical" name="LELF"> F  </i>
   <i type="logical" name="LOPTICS"> F  </i>
   <v name="STM">      0.00000000      0.00000000      0.00000000      0.00000000      0.00000000      0.00000000      0.00000000</v>
  </separator>
  <separator name="performance" >
   <i type="int" name="NPAR">     1</i>
   <i type="int" name="NSIM">     4</i>
   <i type="int" name="NBLK">    -1</i>
   <i type="logical" name="LPLANE"> T  </i>
   <i type="logical" name="LSCALAPACK"> T  </i>
   <i type="logical" name="LSCAAWARE"> F  </i>
   <i type="logical" name="LSCALU"> F  </i>
   <i type="logical" name="LASYNC"> F  </i>
   <i type="logical" name="LORBITALREAL"> F  </i>
  </separator>
  <separator name="miscellaneous" >
   <i type="int" name="IDIOT">     3</i>
   <i type="int" name="PHON_NSTRUCT">    -1</i>
   <i type="logical" name="LMUSIC"> F  </i>
   <v name="POMASS">     28.08500000</v>
   <v name="DARWINR">      0.00000000</v>
   <v name="DARWINV">      1.00000000</v>
   <i type="logical" name="LCORR"> T  </i>
  </separator>
  <i type="logical" name="GGA_COMPAT"> T  </i>
  <i type="logical" name="LBERRY"> F  </i>
  <i type="int" name="ICORELEVEL">     0</i>
  <i type="logical" name="LDAU"> F  </i>
  <i type="int" name="I_CONSTRAINED_M">     0</i>
  <separator name="electronic exchange-correlation" >
   <i type="string" name="GGA">PE</i>
   <i type="int" name="VOSKOWN">     0</i>
   <i type="logical" name="LHFCALC"> F  </i>
   <i type="string" name="PRECFOCK"></i>
   <i type="logical" name="LSYMGRAD"> F  </i>
   <i type="logical" name="LHFONE"> F  </i>
   <i type="logical" name="LRHFCALC"> F  </i>
   <i type="logical" name="LTHOMAS"> F  </i>
   <i type="logical" name="LMODELHF"> F  </i>
   <i type="logical" name="LFOCKACE"> F  </i>
   <i name="ENCUT4O">     -1.00000000</i>
   <i type="int" name="EXXOEP">     0</i>
   <i type="int" name="FOURORBIT">     0</i>
   <i name="AEXX">      0.00000000</i>
   <i name="HFALPHA">      0.00000000</i>
   <i name="MCALPHA">      0.00000000</i>
   <i name="ALDAX">      1.00000000</i>
   <i name="AGGAX">      1.00000000</i>
   <i name="ALDAC">      1.00000000</i>
   <i name="AGGAC">      1.00000000</i>
   <i type="int" name="NKREDX">     1</i>
   <i type="int" name="NKREDY">     1</i>
   <i type="int" name="NKREDZ">     1</i>
   <i type="logical" name="SHIFTRED"> F  </i>
   <i type="logical" name="ODDONLY"> F  </i>
   <i type="logical" name="EVENONLY"> F  </i>
   <i type="int" name="LMAXFOCK">     0</i>
   <i type="int" name="NMAXFOCKAE">     0</i>
   <i type="logical" name="LFOCKAEDFT"> F  </i>
   <i name="HFSCREEN">      0.00000000</i>
   <i name="HFSCREENC">      0.00000000</i>
   <i type="int" name="NBANDSGWLOW">     0</i>
  </separator>
  <separator name="vdW DFT" >
   <i type="logical" name="LUSE_VDW"> F  </i>
   <i type="int" name="IVDW_NL">     1</i>
   <i type="logical" name="LSPIN_VDW"> F  </i>
   <i name="Zab_VDW">     -0.84910000</i>
   <i name="PARAM1">      0.12340000</i>
   <i name="PARAM2">      1.00000000</i>
   <i name="PARAM3">      0.00000000</i>
  </separator>
  <separator name="model GW" >
   <i type="int" name="MODEL_GW">     0</i>
   <i name="MODEL_EPS0">     12.26648782</i>
   <i name="MODEL_ALPHA">      1.00000000</i>
  </separator>
  <separator name="linear response parameters" >
   <i type="logical" name="LEPSILON"> F  </i>
   <i type="logical" name="LRPA"> F  </i>
   <i type="logical" name="LNABLA"> F  </i>
   <i type="logical" name="LVEL"> F  </i>
   <i name="CSHIFT">      0.10000000</i>
   <i name="OMEGAMAX">     -1.00000000</i>
   <i name="DEG_THRESHOLD">      0.00200000</i>
   <i name="RTIME">     -0.10000000</i>
   <i name="WPLASMAI">      0.00000000</i>
   <v name="DFIELD">      0.00000000      0.00000000      0.00000000</v>
   <v name="WPLASMA">      0.00000000      0.00000000      0.00000000      0.00000000      0.00000000      0.00000000      0.00000000      0.00000000      0.00000000</v>
  </separator>
  <separator name="orbital magnetization" >
   <i type="logical" name="NUCIND"> F  </i>
   <v name="MAGPOS">      0.00000000      0.00000000      0.00000000</v>
   <i type="logical" name="LNICSALL"> T  </i>
   <i type="logical" name="ORBITALMAG"> F  </i>
   <i type="logical" name="LMAGBLOCH"> F  </i>
   <i type="logical" name="LCHIMAG"> F  </i>
   <i type="logical" name="LGAUGE"> T  </i>
   <i type="int" name="MAGATOM">     0</i>
   <v name="MAGDIPOL">      0.00000000      0.00000000      0.00000000</v>
   <v name="AVECCONST">      0.00000000      0.00000000      0.00000000</v>
  </separator>
  <separator name="response functions" >
   <i type="logical" name="LALL_IN_ONE"> F  </i>
   <i type="int" name="IALL_IN_ONE">    -1</i>
   <i type="int" name="NBANDS_WAVE">    -1</i>
   <i type="logical" name="LFINITE_TEMPERATURE"> F  </i>
   <i type="logical" name="LADDER"> F  </i>
   <i type="logical" name="LRPAFORCE"> F  </i>
   <i type="logical" name="LFXC"> F  </i>
   <i type="logical" name="LHARTREE"> T  </i>
   <i type="int" name="IBSE">     0</i>
   <v type="int" name="KPOINT">    -1     0     0     0</v>
   <i type="logical" name="LTCTC"> F  </i>
   <i type="logical" name="LTCTE"> F  </i>
   <i type="logical" name="LTETE"> F  </i>
   <i type="logical" name="LTRIPLET"> F  </i>
   <i type="logical" name="LFXCEPS"> F  </i>
   <i type="logical" name="LFXHEG"> F  </i>
   <i type="int" name="NATURALO">     2</i>
   <i type="logical" name="LHOLEGF"> F  </i>
   <i type="logical" name="L2ORDER"> F  </i>
   <i type="logical" name="LDMP1"> F  </i>
   <i type="logical" name="LMP2LT"> F  </i>
   <i type="logical" name="LSMP2LT"> F  </i>
   <i type="logical" name="LGWLF"> F  </i>
   <i name="ENCUTGW">     -1.60000002</i>
   <i name="ENCUTGWSOFT">     -1.60000002</i>
   <i name="ENCUTLF">     -1.00000000</i>
   <i type="logical" name="LESF_SPLINES"> F  </i>
   <i type="int" name="LMAXMP2">    -1</i>
   <i name="SCISSOR">      0.00000000</i>
   <i type="int" name="NOMEGA">     0</i>
   <i type="int" name="NOMEGAR">     0</i>
   <i type="int" name="NBANDSGW">    -1</i>
   <i type="int" name="NBANDSO">    -1</i>
   <i type="int" name="NBANDSV">    -1</i>
   <i type="int" name="NELMGW">     1</i>
   <i type="int" name="NELMHF">     1</i>
   <i type="int" name="DIM">     3</i>
   <i type="int" name="IESPILON">     4</i>
   <i type="int" name="ANTIRES">     0</i>
   <i name="OMEGAMAX">    -30.00000000</i>
   <i name="OMEGAMIN">    -30.00000000</i>
   <i name="OMEGATL">   -200.00000000</i>
   <i type="int" name="OMEGAGRID">     0</i>
   <i name="CSHIFT">     -0.10000000</i>
   <i type="logical" name="LSELFENERGY"> F  </i>
   <i type="logical" name="LSPECTRAL"> F  </i>
   <i type="logical" name="LSPECTRALGW"> F  </i>
   <i type="logical" name="LSINGLES"> F  </i>
   <i type="logical" name="LFERMIGW"> F  </i>
   <i type="logical" name="ODDONLYGW"> F  </i>
   <i type="logical" name="EVENONLYGW"> F  </i>
   <i type="int" name="NKREDLFX">     1</i>
   <i type="int" name="NKREDLFY">     1</i>
   <i type="int" name="NKREDLFZ">     1</i>
   <i type="int" name="MAXMEM">  2800</i>
   <i type="int" name="TELESCOPE">     0</i>
   <i type="int" name="NTAUPAR">    -1</i>
   <i type="int" name="NOMEGAPAR">    -1</i>
   <i name="DAMP_NEWTON">      0.80000001</i>
   <i name="LAMBDA">      1.00000000</i>
  </separator>
  <separator name="External order field" >
   <i name="OFIELD_KAPPA">      0.00000000</i>
   <v name="OFIELD_K">      0.00000000      0.00000000      0.00000000</v>
   <i name="OFIELD_Q6_NEAR">      0.00000000</i>
   <i name="OFIELD_Q6_FAR">      0.00000000</i>
   <i name="OFIELD_A">      0.00000000</i>
  </separator>
  <separator name="optional k-points parameters" >
   <i type="int" name="KPOINTS_OPT_MODE">     1</i>
   <i type="logical" name="LKPOINTS_OPT"> F  </i>
  </separator>
 </parameters>
 <atominfo>
  <atoms>       2 </atoms>
  <types>       1 </types>
  <array name="atoms" >
   <dimension dim="1">ion</dimension>
   <field type="string">element</field>
   <field type="int">atomtype</field>
   <set>
    <rc><c>Si</c><c>   1</c></rc>
    <rc><c>Si</c><c>   1</c></rc>
   </set>
  </array>
  <array name="atomtypes" >
   <dimension dim="1">type</dimension>
   <field type="int">atomspertype</field>
   <field type="string">element</field>
   <field>mass</field>
   <field>valence</field>
   <field type="string">pseudopotential</field>
   <set>
    <rc><c>   2</c><c>Si</c><c>     28.08500000</c><c>      4.00000000</c><c>  PAW_PBE Si 05Jan2001                  </c></rc>
   </set>
  </array>
 </atominfo>
 <structure name="initialpos" >
  <crystal>
   <varray name="basis" >
    <v>       3.34889828       0.00000000       1.93348733 </v>
    <v>       1.11629943       3.15737158       1.93348733 </v>
    <v>       0.00000000       0.00000000       3.86697465 </v>
   </varray>
   <i name="volume">     40.88829275 </i>
   <varray name="rec_basis" >
    <v>       0.29860567      -0.10557305       0.00000000 </v>
    <v>       0.00000000       0.31671914       0.00000000 </v>
    <v>      -0.14930283      -0.10557305       0.25860009 </v>
   </varray>
  </crystal>
  <varray name="positions" >
   <v>       0.25000000       0.25000000       0.25000000 </v>
   <v>       0.00000000       0.00000000       0.00000000 </v>
  </varray>
 </structure>
 <calculation>
  <scstep>
   <time name="dav">    2.40    2.40</time>
   <time name="total">    3.08    3.08</time>
   <energy>
    <i name="alphaZ">      3.29318037 </i>
    <i name="ewald">   -226.94490225 </i>
    <i name="hartreedc">    -11.32338905 </i>
    <i name="XCdc">    -18.46262419 </i>
    <i name="pawpsdc">    176.06834157 </i>
    <i name="pawaedc">   -140.86953430 </i>
    <i name="eentropy">     -0.00070564 </i>
    <i name="bandstr">     21.84365952 </i>
    <i name="atom">    206.13322186 </i>
    <i name="e_fr_energy">      9.73724789 </i>
    <i name="e_wo_entrp">      9.73795354 </i>
    <i name="e_0_energy">      9.73760072 </i>
   </energy>
  </scstep>
  <scstep>
   <time name="dav">    3.03    3.03</time>
   <time name="total">    3.03    3.03</time>
   <energy>
    <i name="e_fr_energy">    -10.03938447 </i>
    <i name="e_wo_entrp">    -10.03911477 </i>
    <i name="e_0_energy">    -10.03924962 </i>
   </energy>
  </scstep>
  <scstep>
   <time name="dav">    2.75    2.75</time>
   <time name="total">    2.75    2.75</time>
   <energy>
    <i name="e_fr_energy">    -10.49379263 </i>
    <i name="e_wo_entrp">    -10.49363781 </i>
    <i name="e_0_energy">    -10.49371522 </i>
   </energy>
  </scstep>
  <scstep>
   <time name="dav">    3.30    3.30</time>
   <time name="total">    3.30    3.30</time>
   <energy>
    <i name="e_fr_energy">    -10.49706558 </i>
    <i name="e_wo_entrp">    -10.49691329 </i>
    <i name="e_0_energy">    -10.49698943 </i>
   </energy>
  </scstep>
  <scstep>
   <time name="dav">    2.80    2.81</time>
   <time name="total">    2.99    2.99</time>
   <energy>
    <i name="e_fr_energy">    -10.49707916 </i>
    <i name="e_wo_entrp">    -10.49692688 </i>
    <i name="e_0_energy">    -10.49700302 </i>
   </energy>
  </scstep>
  <scstep>
   <time name="dav">    2.51    2.51</time>
   <time name="total">    3.38    3.38</time>
   <energy>
    <i name="e_fr_energy">    -10.87037655 </i>
    <i name="e_wo_entrp">    -10.87037655 </i>
    <i name="e_0_energy">    -10.87037655 </i>
   </energy>
  </scstep>
  <scstep>
   <time name="dav">    2.50    2.50</time>
   <time name="total">    3.36    3.36</time>
   <energy>
    <i name="e_fr_energy">    -10.84391165 </i>
    <i name="e_wo_entrp">    -10.84391165 </i>
    <i name="e_0_energy">    -10.84391165 </i>
   </energy>
  </scstep>
  <scstep>
   <time name="dav">    2.75    2.75</time>
   <time name="total">    3.57    3.57</time>
   <energy>
    <i name="e_fr_energy">    -10.84500907 </i>
    <i name="e_wo_entrp">    -10.84500907 </i>
    <i name="e_0_energy">    -10.84500907 </i>
   </energy>
  </scstep>
  <scstep>
   <time name="dav">    2.71    2.71</time>
   <time name="total">    3.58    3.58</time>
   <energy>
    <i name="e_fr_energy">    -10.84887458 </i>
    <i name="e_wo_entrp">    -10.84887458 </i>
    <i name="e_0_energy">    -10.84887458 </i>
   </energy>
  </scstep>
  <scstep>
   <time name="dav">    2.57    2.57</time>
   <time name="total">    3.40    3.40</time>
   <energy>
    <i name="e_fr_energy">    -10.84928845 </i>
    <i name="e_wo_entrp">    -10.84928845 </i>
    <i name="e_0_energy">    -10.84928845 </i>
   </energy>
  </scstep>
  <scstep>
   <time name="dav">    2.64    2.64</time>
   <time name="total">    3.52    3.52</time>
   <energy>
    <i name="e_fr_energy">    -10.84938441 </i>
    <i name="e_wo_entrp">    -10.84938441 </i>
    <i name="e_0_energy">    -10.84938441 </i>
   </energy>
  </scstep>
  <scstep>
   <time name="dav">    2.59    2.59</time>
   <time name="total">    3.46    3.46</time>
   <energy>
    <i name="e_fr_energy">    -10.84940284 </i>
    <i name="e_wo_entrp">    -10.84940284 </i>
    <i name="e_0_energy">    -10.84940284 </i>
   </energy>
  </scstep>
  <scstep>
   <time name="dav">    2.06    2.06</time>
   <time name="total">    2.74    2.74</time>
   <energy>
    <i name="alphaZ">      3.29318037 </i>
    <i name="ewald">   -226.94490225 </i>
    <i name="hartreedc">    -15.17237499 </i>
    <i name="XCdc">    -18.06136101 </i>
    <i name="pawpsdc">    828.56735065 </i>
    <i name="pawaedc">   -793.58603615 </i>
    <i name="eentropy">     -0.00000000 </i>
    <i name="bandstr">      4.92151422 </i>
    <i name="atom">    206.13322186 </i>
    <i name="e_fr_energy">    -10.84940729 </i>
    <i name="e_wo_entrp">    -10.84940729 </i>
    <i name="e_0_energy">    -10.84940729 </i>
   </energy>
  </scstep>
  <structure>
   <crystal>
    <varray name="basis" >
     <v>       3.34889828       0.00000000       1.93348733 </v>
     <v>       1.11629943       3.15737158       1.93348733 </v>
     <v>       0.00000000       0.00000000       3.86697465 </v>
    </varray>
    <i name="volume">     40.88829275 </i>
    <varray name="rec_basis" >
     <v>       0.29860567      -0.10557305       0.00000000 </v>
     <v>       0.00000000       0.31671914       0.00000000 </v>
     <v>      -0.14930283      -0.10557305       0.25860009 </v>
    </varray>
   </crystal>
   <varray name="positions" >
    <v>       0.25000000       0.25000000       0.25000000 </v>
    <v>       0.00000000       0.00000000       0.00000000 </v>
   </varray>
  </structure>
  <varray name="forces" >
   <v>       0.00000000      -0.00000000      -0.00000000 </v>
   <v>      -0.00000000       0.00000000       0.00000000 </v>
  </varray>
  <varray name="stress" >
   <v>       0.08733759       0.00000000       0.00000000 </v>
   <v>       0.00000000       0.08733759       0.00000000 </v>
   <v>       0.00000000       0.00000000       0.08733759 </v>
  </varray>
  <energy>
   <i name="e_fr_energy">    -10.84940729 </i>
   <i name="e_wo_entrp">    -10.84940729 </i>
   <i name="e_0_energy">    -10.84940729 </i>
  </energy>
  <time name="totalsc">   44.41   44.42</time>
  <eigenvalues>
   <array>
    <dimension dim="1">band</dimension>
    <dimension dim="2">kpoint</dimension>
    <dimension dim="3">spin</dimension>
    <field>eigene</field>
    <field>occ</field>
    <set>
     <set comment="spin 1">
      <set comment="kpoint 1">
       <r>   -6.1985    1.0000 </r>
       <r>    5.6163    1.0000 </r>
       <r>    5.6163    1.0000 </r>
       <r>    5.6163    1.0000 </r>
       <r>    8.1730    0.0000 </r>
       <r>    8.1730    0.0000 </r>
       <r>    8.1730    0.0000 </r>
       <r>    8.7500    0.0000 </r>
       <r>   13.3262    0.0000 </r>
      </set>
      <set comment="kpoint 2">
       <r>   -6.0699    1.0000 </r>
       <r>    4.4742    1.0000 </r>
       <r>    5.4225    1.0000 </r>
       <r>    5.4225    1.0000 </r>
       <r>    8.1389    0.0000 </r>
       <r>    8.4588    0.0000 </r>
       <r>    8.4588    0.0000 </r>
       <r>    9.7202    0.0000 </r>
       <r>   12.9756    0.0000 </r>
      </set>
      <set comment="kpoint 3">
       <r>   -5.6905    1.0000 </r>
       <r>    2.6344    1.0000 </r>
       <r>    5.0488    1.0000 </r>
       <r>    5.0488    1.0000 </r>
       <r>    7.7686    0.0000 </r>
       <r>    8.9606    0.0000 </r>
       <r>    8.9606    0.0000 </r>
       <r>   11.4946    0.0000 </r>
       <r>   12.6648    0.0000 </r>
      </set>
      <set comment="kpoint 4">
       <r>   -5.0871    1.0000 </r>
       <r>    0.8763    1.0000 </r>
       <r>    4.7187    1.0000 </r>
       <r>    4.7187    1.0000 </r>
       <r>    7.4049    0.0000 </r>
       <r>    9.1412    0.0000 </r>
       <r>    9.1412    0.0000 </r>
       <r>   13.1162    0.0000 </r>
       <r>   13.1904    0.0000 </r>
      </set>
      <set comment="kpoint 5">
       <r>   -4.3573    1.0000 </r>
       <r>   -0.5720    1.0000 </r>
       <r>    4.5088    1.0000 </r>
       <r>    4.5088    1.0000 </r>
       <r>    7.1650    0.0000 </r>
       <r>    9.0367    0.0000 </r>
       <r>    9.0367    0.0000 </r>
       <r>   13.4202    0.0000 </r>
       <r>   14.5527    0.0000 </r>
      </set>
      <set comment="kpoint 6">
       <r>   -3.9197    1.0000 </r>
       <r>   -1.2525    1.0000 </r>
       <r>    4.4379    1.0000 </r>
       <r>    4.4379    1.0000 </r>
       <r>    7.0827    0.0000 </r>
       <r>    8.9656    0.0000 </r>
       <r>    8.9656    0.0000 </r>
       <r>   13.3171    0.0000 </r>
       <r>   16.1114    0.0000 </r>
      </set>
      <set comment="kpoint 7">
       <r>   -6.0267    1.0000 </r>
       <r>    4.6607    1.0000 </r>
       <r>    5.0548    1.0000 </r>
       <r>    5.0548    1.0000 </r>
       <r>    7.8012    0.0000 </r>
       <r>    8.9454    0.0000 </r>
       <r>    8.9454    0.0000 </r>
       <r>    9.6047    0.0000 </r>
       <r>   12.3528    0.0000 </r>
      </set>
      <set comment="kpoint 8">
       <r>   -5.7297    1.0000 </r>
       <r>    3.1748    1.0000 </r>
       <r>    4.6283    1.0000 </r>
       <r>    4.7863    1.0000 </r>
       <r>    7.8554    0.0000 </r>
       <r>    8.9545    0.0000 </r>
       <r>    9.5891    0.0000 </r>
       <r>   10.5288    0.0000 </r>
       <r>   12.3087    0.0000 </r>
      </set>
      <set comment="kpoint 9">
       <r>   -5.1964    1.0000 </r>
       <r>    1.4441    1.0000 </r>
       <r>    4.3140    1.0000 </r>
       <r>    4.3584    1.0000 </r>
       <r>    7.9634    0.0000 </r>
       <r>    8.9578    0.0000 </r>
       <r>    9.8760    0.0000 </r>
       <r>   10.9178    0.0000 </r>
       <r>   13.7396    0.0000 </r>
      </set>
      <set comment="kpoint 10">
       <r>   -4.4879    1.0000 </r>
       <r>   -0.1001    1.0000 </r>
       <r>    3.9533    1.0000 </r>
       <r>    4.1676    1.0000 </r>
       <r>    7.8065    0.0000 </r>
       <r>    8.9458    0.0000 </r>
       <r>    9.7123    0.0000 </r>
       <r>   11.9626    0.0000 </r>
       <r>   14.5220    0.0000 </r>
      </set>
      <set comment="kpoint 11">
       <r>   -3.8649    1.0000 </r>
       <r>   -1.1131    1.0000 </r>
       <r>    3.6687    1.0000 </r>
       <r>    4.1983    1.0000 </r>
       <r>    7.7131    0.0000 </r>
       <r>    8.9265    0.0000 </r>
       <r>    9.4555    0.0000 </r>
       <r>   13.3555    0.0000 </r>
       <r>   14.4704    0.0000 </r>
      </set>
      <set comment="kpoint 12">
       <r>   -4.0269    1.0000 </r>
       <r>   -0.8708    1.0000 </r>
       <r>    3.5448    1.0000 </r>
       <r>    4.3931    1.0000 </r>
       <r>    7.7679    0.0000 </r>
       <r>    9.0608    0.0000 </r>
       <r>    9.3026    0.0000 </r>
       <r>   13.6069    0.0000 </r>
       <r>   14.1729    0.0000 </r>
      </set>
      <set comment="kpoint 13">
       <r>   -4.7377    1.0000 </r>
       <r>    0.3843    1.0000 </r>
       <r>    3.6070    1.0000 </r>
       <r>    4.7210    1.0000 </r>
       <r>    7.9673    0.0000 </r>
       <r>    9.2255    0.0000 </r>
       <r>    9.3042    0.0000 </r>
       <r>   12.5465    0.0000 </r>
       <r>   12.6689    0.0000 </r>
      </set>
      <set comment="kpoint 14">
       <r>   -5.3999    1.0000 </r>
       <r>    2.0037    1.0000 </r>
       <r>    3.8823    1.0000 </r>
       <r>    5.1195    1.0000 </r>
       <r>    8.2748    0.0000 </r>
       <r>    8.9727    0.0000 </r>
       <r>    9.2996    0.0000 </r>
       <r>   11.4863    0.0000 </r>
       <r>   11.9759    0.0000 </r>
      </set>
      <set comment="kpoint 15">
       <r>   -5.8572    1.0000 </r>
       <r>    3.5894    1.0000 </r>
       <r>    4.4852    1.0000 </r>
       <r>    5.4409    1.0000 </r>
       <r>    8.5268    0.0000 </r>
       <r>    8.5277    0.0000 </r>
       <r>    8.7056    0.0000 </r>
       <r>   10.6657    0.0000 </r>
       <r>   12.2326    0.0000 </r>
      </set>
      <set comment="kpoint 16">
       <r>   -5.5154    1.0000 </r>
       <r>    2.9817    1.0000 </r>
       <r>    4.1620    1.0000 </r>
       <r>    4.1620    1.0000 </r>
       <r>    7.0922    0.0000 </r>
       <r>    9.4690    0.0000 </r>
       <r>   10.4573    0.0000 </r>
       <r>   10.4573    0.0000 </r>
       <r>   12.5550    0.0000 </r>
      </set>
      <set comment="kpoint 17">
       <r>   -5.0582    1.0000 </r>
       <r>    1.7593    1.0000 </r>
       <r>    3.6594    1.0000 </r>
       <r>    3.8196    1.0000 </r>
       <r>    7.1880    0.0000 </r>
       <r>    9.0607    0.0000 </r>
       <r>   10.7073    0.0000 </r>
       <r>   11.0456    0.0000 </r>
       <r>   14.0207    0.0000 </r>
      </set>
      <set comment="kpoint 18">
       <r>   -4.3964    1.0000 </r>
       <r>    0.3529    1.0000 </r>
       <r>    3.0394    1.0000 </r>
       <r>    3.6618    1.0000 </r>
       <r>    7.4028    0.0000 </r>
       <r>    9.6856    0.0000 </r>
       <r>   10.4766    0.0000 </r>
       <r>   11.0121    0.0000 </r>
       <r>   15.6682    0.0000 </r>
      </set>
      <set comment="kpoint 19">
       <r>   -3.6833    1.0000 </r>
       <r>   -0.8036    1.0000 </r>
       <r>    2.5380    1.0000 </r>
       <r>    3.7038    1.0000 </r>
       <r>    7.4665    0.0000 </r>
       <r>   10.2576    0.0000 </r>
       <r>   10.6948    0.0000 </r>
       <r>   11.2114    0.0000 </r>
       <r>   15.3048    0.0000 </r>
      </set>
      <set comment="kpoint 20">
       <r>   -3.5355    1.0000 </r>
       <r>   -1.0055    1.0000 </r>
       <r>    2.2468    1.0000 </r>
       <r>    3.9365    1.0000 </r>
       <r>    7.6743    0.0000 </r>
       <r>   10.1627    0.0000 </r>
       <r>   10.3966    0.0000 </r>
       <r>   13.1105    0.0000 </r>
       <r>   13.8857    0.0000 </r>
      </set>
      <set comment="kpoint 21">
       <r>   -4.1721    1.0000 </r>
       <r>   -0.0436    1.0000 </r>
       <r>    2.2321    1.0000 </r>
       <r>    4.3252    1.0000 </r>
       <r>    8.0564    0.0000 </r>
       <r>   10.1206    0.0000 </r>
       <r>   10.1776    0.0000 </r>
       <r>   12.2334    0.0000 </r>
       <r>   12.4285    0.0000 </r>
      </set>
      <set comment="kpoint 22">
       <r>   -4.8749    1.0000 </r>
       <r>    1.1698    1.0000 </r>
       <r>    2.6828    1.0000 </r>
       <r>    4.7853    1.0000 </r>
       <r>    8.4670    0.0000 </r>
       <r>    9.5817    0.0000 </r>
       <r>    9.8855    0.0000 </r>
       <r>   11.2727    0.0000 </r>
       <r>   11.7476    0.0000 </r>
      </set>
      <set comment="kpoint 23">
       <r>   -4.6770    1.0000 </r>
       <r>    1.2123    1.0000 </r>
       <r>    3.4340    1.0000 </r>
       <r>    3.4340    1.0000 </r>
       <r>    6.5052    0.0000 </r>
       <r>    8.0520    0.0000 </r>
       <r>   12.1875    0.0000 </r>
       <r>   12.1875    0.0000 </r>
       <r>   14.5238    0.0000 </r>
      </set>
      <set comment="kpoint 24">
       <r>   -4.0758    1.0000 </r>
       <r>    0.2237    1.0000 </r>
       <r>    2.8227    1.0000 </r>
       <r>    3.2324    1.0000 </r>
       <r>    6.6927    0.0000 </r>
       <r>    7.8814    0.0000 </r>
       <r>   12.4714    0.0000 </r>
       <r>   12.6119    0.0000 </r>
       <r>   16.0292    0.0000 </r>
      </set>
      <set comment="kpoint 25">
       <r>   -3.3419    1.0000 </r>
       <r>   -0.7620    1.0000 </r>
       <r>    2.0128    1.0000 </r>
       <r>    3.2383    1.0000 </r>
       <r>    6.8739    0.0000 </r>
       <r>    8.9921    0.0000 </r>
       <r>   12.2856    0.0000 </r>
       <r>   12.3738    0.0000 </r>
       <r>   15.9685    0.0000 </r>
      </set>
      <set comment="kpoint 26">
       <r>   -2.9359    1.0000 </r>
       <r>   -1.2239    1.0000 </r>
       <r>    1.4722    1.0000 </r>
       <r>    3.4491    1.0000 </r>
       <r>    7.1019    0.0000 </r>
       <r>   10.7768    0.0000 </r>
       <r>   11.9784    0.0000 </r>
       <r>   12.1254    0.0000 </r>
       <r>   14.0216    0.0000 </r>
      </set>
      <set comment="kpoint 27">
       <r>   -3.4615    1.0000 </r>
       <r>   -0.6463    1.0000 </r>
       <r>    1.4477    1.0000 </r>
       <r>    3.8371    1.0000 </r>
       <r>    7.5343    0.0000 </r>
       <r>   11.3102    0.0000 </r>
       <r>   11.6209    0.0000 </r>
       <r>   12.3429    0.0000 </r>
       <r>   12.7048    0.0000 </r>
      </set>
      <set comment="kpoint 28">
       <r>   -3.5354    1.0000 </r>
       <r>   -0.5208    1.0000 </r>
       <r>    2.9770    1.0000 </r>
       <r>    2.9770    1.0000 </r>
       <r>    6.2335    0.0000 </r>
       <r>    6.9651    0.0000 </r>
       <r>   14.0167    0.0000 </r>
       <r>   14.0167    0.0000 </r>
       <r>   16.3685    0.0000 </r>
      </set>
      <set comment="kpoint 29">
       <r>   -2.8207    1.0000 </r>
       <r>   -1.3469    1.0000 </r>
       <r>    2.4080    1.0000 </r>
       <r>    2.9291    1.0000 </r>
       <r>    6.4693    0.0000 </r>
       <r>    7.2147    0.0000 </r>
       <r>   14.2660    0.0000 </r>
       <r>   14.3428    0.0000 </r>
       <r>   16.3080    0.0000 </r>
      </set>
      <set comment="kpoint 30">
       <r>   -2.3600    1.0000 </r>
       <r>   -1.7568    1.0000 </r>
       <r>    1.6470    1.0000 </r>
       <r>    3.0929    1.0000 </r>
       <r>    6.6794    0.0000 </r>
       <r>    8.7647    0.0000 </r>
       <r>   13.6130    0.0000 </r>
       <r>   14.1879    0.0000 </r>
       <r>   14.1889    0.0000 </r>
      </set>
      <set comment="kpoint 31">
       <r>   -2.1299    1.0000 </r>
       <r>   -2.1299    1.0000 </r>
       <r>    2.8222    1.0000 </r>
       <r>    2.8222    1.0000 </r>
       <r>    6.3673    0.0000 </r>
       <r>    6.3673    0.0000 </r>
       <r>   15.5527    0.0000 </r>
       <r>   15.5527    0.0000 </r>
       <r>   16.5233    0.0000 </r>
      </set>
      <set comment="kpoint 32">
       <r>   -5.3533    1.0000 </r>
       <r>    2.2547    1.0000 </r>
       <r>    3.5834    1.0000 </r>
       <r>    4.6609    1.0000 </r>
       <r>    7.9610    0.0000 </r>
       <r>    9.2652    0.0000 </r>
       <r>   10.2141    0.0000 </r>
       <r>   10.2350    0.0000 </r>
       <r>   12.7731    0.0000 </r>
      </set>
      <set comment="kpoint 33">
       <r>   -4.7538    1.0000 </r>
       <r>    0.8723    1.0000 </r>
       <r>    2.9996    1.0000 </r>
       <r>    4.2953    1.0000 </r>
       <r>    8.3009    0.0000 </r>
       <r>    9.1830    0.0000 </r>
       <r>   10.3076    0.0000 </r>
       <r>   10.7005    0.0000 </r>
       <r>   13.4293    0.0000 </r>
      </set>
      <set comment="kpoint 34">
       <r>   -4.0238    1.0000 </r>
       <r>   -0.4606    1.0000 </r>
       <r>    2.7658    1.0000 </r>
       <r>    3.9544    1.0000 </r>
       <r>    8.3393    0.0000 </r>
       <r>    8.8936    0.0000 </r>
       <r>   10.6274    0.0000 </r>
       <r>   11.6285    0.0000 </r>
       <r>   14.7285    0.0000 </r>
      </set>
      <set comment="kpoint 35">
       <r>   -3.5784    1.0000 </r>
       <r>   -1.1203    1.0000 </r>
       <r>    2.7046    1.0000 </r>
       <r>    3.8205    1.0000 </r>
       <r>    8.3520    0.0000 </r>
       <r>    8.7300    0.0000 </r>
       <r>   10.5906    0.0000 </r>
       <r>   13.3466    0.0000 </r>
       <r>   13.3899    0.0000 </r>
      </set>
      <set comment="kpoint 36">
       <r>   -4.5306    1.0000 </r>
       <r>    0.8663    1.0000 </r>
       <r>    2.8705    1.0000 </r>
       <r>    3.5754    1.0000 </r>
       <r>    7.4025    0.0000 </r>
       <r>    8.6823    0.0000 </r>
       <r>   10.7567    0.0000 </r>
       <r>   12.0802    0.0000 </r>
       <r>   14.4314    0.0000 </r>
      </set>
      <set comment="kpoint 37">
       <r>   -3.8254    1.0000 </r>
       <r>   -0.2140    1.0000 </r>
       <r>    2.2618    1.0000 </r>
       <r>    3.2561    1.0000 </r>
       <r>    7.7830    0.0000 </r>
       <r>    9.3686    0.0000 </r>
       <r>   10.3826    0.0000 </r>
       <r>   12.4716    0.0000 </r>
       <r>   15.5103    0.0000 </r>
      </set>
      <set comment="kpoint 38">
       <r>   -3.1925    1.0000 </r>
       <r>   -1.0540    1.0000 </r>
       <r>    1.8596    1.0000 </r>
       <r>    3.2018    1.0000 </r>
       <r>    7.9628    0.0000 </r>
       <r>    9.9554    0.0000 </r>
       <r>   11.0785    0.0000 </r>
       <r>   12.3997    0.0000 </r>
       <r>   13.4812    0.0000 </r>
      </set>
      <set comment="kpoint 39">
       <r>   -3.3888    1.0000 </r>
       <r>   -0.8015    1.0000 </r>
       <r>    1.7150    1.0000 </r>
       <r>    3.4356    1.0000 </r>
       <r>    8.2964    0.0000 </r>
       <r>    9.7010    0.0000 </r>
       <r>   11.5078    0.0000 </r>
       <r>   12.2848    0.0000 </r>
       <r>   13.1434    0.0000 </r>
      </set>
      <set comment="kpoint 40">
       <r>   -4.1071    1.0000 </r>
       <r>    0.1274    1.0000 </r>
       <r>    2.0130    1.0000 </r>
       <r>    3.8648    1.0000 </r>
       <r>    8.7753    0.0000 </r>
       <r>    9.2539    0.0000 </r>
       <r>   10.3008    0.0000 </r>
       <r>   11.8086    0.0000 </r>
       <r>   13.4895    0.0000 </r>
      </set>
      <set comment="kpoint 41">
       <r>   -3.4204    1.0000 </r>
       <r>   -0.6060    1.0000 </r>
       <r>    2.4679    1.0000 </r>
       <r>    2.7890    1.0000 </r>
       <r>    7.1190    0.0000 </r>
       <r>    7.7122    0.0000 </r>
       <r>   12.2895    0.0000 </r>
       <r>   14.0028    0.0000 </r>
       <r>   15.9496    0.0000 </r>
      </set>
      <set comment="kpoint 42">
       <r>   -2.6991    1.0000 </r>
       <r>   -1.3667    1.0000 </r>
       <r>    1.7860    1.0000 </r>
       <r>    2.6999    1.0000 </r>
       <r>    7.4692    0.0000 </r>
       <r>    8.8938    0.0000 </r>
       <r>   11.8952    0.0000 </r>
       <r>   13.6511    0.0000 </r>
       <r>   14.4412    0.0000 </r>
      </set>
      <set comment="kpoint 43">
       <r>   -2.7083    1.0000 </r>
       <r>   -1.3372    1.0000 </r>
       <r>    1.3808    1.0000 </r>
       <r>    2.9634    1.0000 </r>
       <r>    7.7906    0.0000 </r>
       <r>   10.7113    0.0000 </r>
       <r>   11.4934    0.0000 </r>
       <r>   11.8318    0.0000 </r>
       <r>   13.9213    0.0000 </r>
      </set>
      <set comment="kpoint 44">
       <r>   -2.0796    1.0000 </r>
       <r>   -2.0796    1.0000 </r>
       <r>    2.4270    1.0000 </r>
       <r>    2.4270    1.0000 </r>
       <r>    7.2020    0.0000 </r>
       <r>    7.2020    0.0000 </r>
       <r>   14.0028    0.0000 </r>
       <r>   14.0028    0.0000 </r>
       <r>   16.0842    0.0000 </r>
      </set>
      <set comment="kpoint 45">
       <r>   -3.1089    1.0000 </r>
       <r>   -0.8980    1.0000 </r>
       <r>    1.7271    1.0000 </r>
       <r>    2.6942    1.0000 </r>
       <r>    8.9985    0.0000 </r>
       <r>    9.3955    0.0000 </r>
       <r>    9.9877    0.0000 </r>
       <r>   13.3192    0.0000 </r>
       <r>   13.9731    0.0000 </r>
      </set>
      <set comment="kpoint 46">
       <r>   -2.6104    1.0000 </r>
       <r>   -1.3973    1.0000 </r>
       <r>    1.5739    1.0000 </r>
       <r>    2.4493    1.0000 </r>
       <r>    9.2917    0.0000 </r>
       <r>    9.5683    0.0000 </r>
       <r>   10.9780    0.0000 </r>
       <r>   11.3843    0.0000 </r>
       <r>   14.4129    0.0000 </r>
      </set>
      <set comment="kpoint 47">
       <r>   -1.9913    1.0000 </r>
       <r>   -1.9913    1.0000 </r>
       <r>    1.9299    1.0000 </r>
       <r>    1.9299    1.0000 </r>
       <r>    9.0414    0.0000 </r>
       <r>    9.0414    0.0000 </r>
       <r>   11.4779    0.0000 </r>
       <r>   11.4779    0.0000 </r>
       <r>   16.0664    0.0000 </r>
      </set>
     </set>
     <set comment="spin 2">
      <set comment="kpoint 1">
       <r>   -6.1987    1.0000 </r>
       <r>    5.6156    1.0000 </r>
       <r>    5.6156    1.0000 </r>
       <r>    5.6156    1.0000 </r>
       <r>    8.1730    0.0000 </r>
       <r>    8.1730    0.0000 </r>
       <r>    8.1730    0.0000 </r>
       <r>    8.7497    0.0000 </r>
       <r>   13.3253    0.0000 </r>
      </set>
      <set comment="kpoint 2">
       <r>   -6.0702    1.0000 </r>
       <r>    4.4737    1.0000 </r>
       <r>    5.4219    1.0000 </r>
       <r>    5.4219    1.0000 </r>
       <r>    8.1388    0.0000 </r>
       <r>    8.4587    0.0000 </r>
       <r>    8.4587    0.0000 </r>
       <r>    9.7198    0.0000 </r>
       <r>   12.9756    0.0000 </r>
      </set>
      <set comment="kpoint 3">
       <r>   -5.6907    1.0000 </r>
       <r>    2.6339    1.0000 </r>
       <r>    5.0482    1.0000 </r>
       <r>    5.0482    1.0000 </r>
       <r>    7.7686    0.0000 </r>
       <r>    8.9605    0.0000 </r>
       <r>    8.9605    0.0000 </r>
       <r>   11.4943    0.0000 </r>
       <r>   12.6648    0.0000 </r>
      </set>
      <set comment="kpoint 4">
       <r>   -5.0874    1.0000 </r>
       <r>    0.8760    1.0000 </r>
       <r>    4.7181    1.0000 </r>
       <r>    4.7181    1.0000 </r>
       <r>    7.4049    0.0000 </r>
       <r>    9.1412    0.0000 </r>
       <r>    9.1412    0.0000 </r>
       <r>   13.1164    0.0000 </r>
       <r>   13.1905    0.0000 </r>
      </set>
      <set comment="kpoint 5">
       <r>   -4.3577    1.0000 </r>
       <r>   -0.5722    1.0000 </r>
       <r>    4.5083    1.0000 </r>
       <r>    4.5083    1.0000 </r>
       <r>    7.1650    0.0000 </r>
       <r>    9.0368    0.0000 </r>
       <r>    9.0368    0.0000 </r>
       <r>   13.4212    0.0000 </r>
       <r>   14.5527    0.0000 </r>
      </set>
      <set comment="kpoint 6">
       <r>   -3.9201    1.0000 </r>
       <r>   -1.2526    1.0000 </r>
       <r>    4.4373    1.0000 </r>
       <r>    4.4373    1.0000 </r>
       <r>    7.0827    0.0000 </r>
       <r>    8.9657    0.0000 </r>
       <r>    8.9657    0.0000 </r>
       <r>   13.3183    0.0000 </r>
       <r>   16.1112    0.0000 </r>
      </set>
      <set comment="kpoint 7">
       <r>   -6.0270    1.0000 </r>
       <r>    4.6600    1.0000 </r>
       <r>    5.0543    1.0000 </r>
       <r>    5.0543    1.0000 </r>
       <r>    7.8013    0.0000 </r>
       <r>    8.9452    0.0000 </r>
       <r>    8.9452    0.0000 </r>
       <r>    9.6043    0.0000 </r>
       <r>   12.3529    0.0000 </r>
      </set>
      <set comment="kpoint 8">
       <r>   -5.7300    1.0000 </r>
       <r>    3.1743    1.0000 </r>
       <r>    4.6278    1.0000 </r>
       <r>    4.7857    1.0000 </r>
       <r>    7.8554    0.0000 </r>
       <r>    8.9543    0.0000 </r>
       <r>    9.5889    0.0000 </r>
       <r>   10.5288    0.0000 </r>
       <r>   12.3086    0.0000 </r>
      </set>
      <set comment="kpoint 9">
       <r>   -5.1967    1.0000 </r>
       <r>    1.4437    1.0000 </r>
       <r>    4.3136    1.0000 </r>
       <r>    4.3579    1.0000 </r>
       <r>    7.9634    0.0000 </r>
       <r>    8.9578    0.0000 </r>
       <r>    9.8759    0.0000 </r>
       <r>   10.9180    0.0000 </r>
       <r>   13.7392    0.0000 </r>
      </set>
      <set comment="kpoint 10">
       <r>   -4.4882    1.0000 </r>
       <r>   -0.1003    1.0000 </r>
       <r>    3.9528    1.0000 </r>
       <r>    4.1671    1.0000 </r>
       <r>    7.8065    0.0000 </r>
       <r>    8.9459    0.0000 </r>
       <r>    9.7123    0.0000 </r>
       <r>   11.9628    0.0000 </r>
       <r>   14.5228    0.0000 </r>
      </set>
      <set comment="kpoint 11">
       <r>   -3.8654    1.0000 </r>
       <r>   -1.1133    1.0000 </r>
       <r>    3.6683    1.0000 </r>
       <r>    4.1978    1.0000 </r>
       <r>    7.7131    0.0000 </r>
       <r>    8.9267    0.0000 </r>
       <r>    9.4556    0.0000 </r>
       <r>   13.3560    0.0000 </r>
       <r>   14.4709    0.0000 </r>
      </set>
      <set comment="kpoint 12">
       <r>   -4.0273    1.0000 </r>
       <r>   -0.8711    1.0000 </r>
       <r>    3.5444    1.0000 </r>
       <r>    4.3926    1.0000 </r>
       <r>    7.7679    0.0000 </r>
       <r>    9.0609    0.0000 </r>
       <r>    9.3026    0.0000 </r>
       <r>   13.6075    0.0000 </r>
       <r>   14.1728    0.0000 </r>
      </set>
      <set comment="kpoint 13">
       <r>   -4.7380    1.0000 </r>
       <r>    0.3839    1.0000 </r>
       <r>    3.6066    1.0000 </r>
       <r>    4.7204    1.0000 </r>
       <r>    7.9672    0.0000 </r>
       <r>    9.2256    0.0000 </r>
       <r>    9.3043    0.0000 </r>
       <r>   12.5466    0.0000 </r>
       <r>   12.6690    0.0000 </r>
      </set>
      <set comment="kpoint 14">
       <r>   -5.4002    1.0000 </r>
       <r>    2.0033    1.0000 </r>
       <r>    3.8819    1.0000 </r>
       <r>    5.1188    1.0000 </r>
       <r>    8.2747    0.0000 </r>
       <r>    8.9727    0.0000 </r>
       <r>    9.2995    0.0000 </r>
       <r>   11.4864    0.0000 </r>
       <r>   11.9761    0.0000 </r>
      </set>
      <set comment="kpoint 15">
       <r>   -5.8575    1.0000 </r>
       <r>    3.5889    1.0000 </r>
       <r>    4.4848    1.0000 </r>
       <r>    5.4403    1.0000 </r>
       <r>    8.5268    0.0000 </r>
       <r>    8.5276    0.0000 </r>
       <r>    8.7055    0.0000 </r>
       <r>   10.6654    0.0000 </r>
       <r>   12.2328    0.0000 </r>
      </set>
      <set comment="kpoint 16">
       <r>   -5.5157    1.0000 </r>
       <r>    2.9811    1.0000 </r>
       <r>    4.1615    1.0000 </r>
       <r>    4.1615    1.0000 </r>
       <r>    7.0924    0.0000 </r>
       <r>    9.4692    0.0000 </r>
       <r>   10.4570    0.0000 </r>
       <r>   10.4570    0.0000 </r>
       <r>   12.5548    0.0000 </r>
      </set>
      <set comment="kpoint 17">
       <r>   -5.0585    1.0000 </r>
       <r>    1.7588    1.0000 </r>
       <r>    3.6591    1.0000 </r>
       <r>    3.8192    1.0000 </r>
       <r>    7.1882    0.0000 </r>
       <r>    9.0610    0.0000 </r>
       <r>   10.7071    0.0000 </r>
       <r>   11.0453    0.0000 </r>
       <r>   14.0204    0.0000 </r>
      </set>
      <set comment="kpoint 18">
       <r>   -4.3968    1.0000 </r>
       <r>    0.3525    1.0000 </r>
       <r>    3.0391    1.0000 </r>
       <r>    3.6614    1.0000 </r>
       <r>    7.4031    0.0000 </r>
       <r>    9.6858    0.0000 </r>
       <r>   10.4764    0.0000 </r>
       <r>   11.0120    0.0000 </r>
       <r>   15.6775    0.0000 </r>
      </set>
      <set comment="kpoint 19">
       <r>   -3.6837    1.0000 </r>
       <r>   -0.8039    1.0000 </r>
       <r>    2.5378    1.0000 </r>
       <r>    3.7033    1.0000 </r>
       <r>    7.4668    0.0000 </r>
       <r>   10.2575    0.0000 </r>
       <r>   10.6948    0.0000 </r>
       <r>   11.2115    0.0000 </r>
       <r>   15.3052    0.0000 </r>
      </set>
      <set comment="kpoint 20">
       <r>   -3.5360    1.0000 </r>
       <r>   -1.0058    1.0000 </r>
       <r>    2.2466    1.0000 </r>
       <r>    3.9360    1.0000 </r>
       <r>    7.6745    0.0000 </r>
       <r>   10.1627    0.0000 </r>
       <r>   10.3966    0.0000 </r>
       <r>   13.1106    0.0000 </r>
       <r>   13.8857    0.0000 </r>
      </set>
      <set comment="kpoint 21">
       <r>   -4.1725    1.0000 </r>
       <r>   -0.0440    1.0000 </r>
       <r>    2.2320    1.0000 </r>
       <r>    4.3246    1.0000 </r>
       <r>    8.0566    0.0000 </r>
       <r>   10.1206    0.0000 </r>
       <r>   10.1776    0.0000 </r>
       <r>   12.2335    0.0000 </r>
       <r>   12.4286    0.0000 </r>
      </set>
      <set comment="kpoint 22">
       <r>   -4.8752    1.0000 </r>
       <r>    1.1693    1.0000 </r>
       <r>    2.6826    1.0000 </r>
       <r>    4.7847    1.0000 </r>
       <r>    8.4670    0.0000 </r>
       <r>    9.5817    0.0000 </r>
       <r>    9.8854    0.0000 </r>
       <r>   11.2729    0.0000 </r>
       <r>   11.7477    0.0000 </r>
      </set>
      <set comment="kpoint 23">
       <r>   -4.6773    1.0000 </r>
       <r>    1.2117    1.0000 </r>
       <r>    3.4336    1.0000 </r>
       <r>    3.4336    1.0000 </r>
       <r>    6.5056    0.0000 </r>
       <r>    8.0525    0.0000 </r>
       <r>   12.1872    0.0000 </r>
       <r>   12.1872    0.0000 </r>
       <r>   14.5234    0.0000 </r>
      </set>
      <set comment="kpoint 24">
       <r>   -4.0762    1.0000 </r>
       <r>    0.2232    1.0000 </r>
       <r>    2.8224    1.0000 </r>
       <r>    3.2321    1.0000 </r>
       <r>    6.6930    0.0000 </r>
       <r>    7.8818    0.0000 </r>
       <r>   12.4711    0.0000 </r>
       <r>   12.6117    0.0000 </r>
       <r>   16.0253    0.0000 </r>
      </set>
      <set comment="kpoint 25">
       <r>   -3.3423    1.0000 </r>
       <r>   -0.7624    1.0000 </r>
       <r>    2.0127    1.0000 </r>
       <r>    3.2379    1.0000 </r>
       <r>    6.8743    0.0000 </r>
       <r>    8.9923    0.0000 </r>
       <r>   12.2854    0.0000 </r>
       <r>   12.3737    0.0000 </r>
       <r>   15.9682    0.0000 </r>
      </set>
      <set comment="kpoint 26">
       <r>   -2.9364    1.0000 </r>
       <r>   -1.2243    1.0000 </r>
       <r>    1.4721    1.0000 </r>
       <r>    3.4487    1.0000 </r>
       <r>    7.1023    0.0000 </r>
       <r>   10.7769    0.0000 </r>
       <r>   11.9783    0.0000 </r>
       <r>   12.1252    0.0000 </r>
       <r>   14.0295    0.0000 </r>
      </set>
      <set comment="kpoint 27">
       <r>   -3.4619    1.0000 </r>
       <r>   -0.6467    1.0000 </r>
       <r>    1.4477    1.0000 </r>
       <r>    3.8367    1.0000 </r>
       <r>    7.5347    0.0000 </r>
       <r>   11.3101    0.0000 </r>
       <r>   11.6208    0.0000 </r>
       <r>   12.3429    0.0000 </r>
       <r>   12.7048    0.0000 </r>
      </set>
      <set comment="kpoint 28">
       <r>   -3.5357    1.0000 </r>
       <r>   -0.5213    1.0000 </r>
       <r>    2.9767    1.0000 </r>
       <r>    2.9767    1.0000 </r>
       <r>    6.2340    0.0000 </r>
       <r>    6.9656    0.0000 </r>
       <r>   14.0164    0.0000 </r>
       <r>   14.0164    0.0000 </r>
       <r>   16.3662    0.0000 </r>
      </set>
      <set comment="kpoint 29">
       <r>   -2.8211    1.0000 </r>
       <r>   -1.3474    1.0000 </r>
       <r>    2.4078    1.0000 </r>
       <r>    2.9287    1.0000 </r>
       <r>    6.4698    0.0000 </r>
       <r>    7.2150    0.0000 </r>
       <r>   14.2658    0.0000 </r>
       <r>   14.3426    0.0000 </r>
       <r>   16.3070    0.0000 </r>
      </set>
      <set comment="kpoint 30">
       <r>   -2.3604    1.0000 </r>
       <r>   -1.7572    1.0000 </r>
       <r>    1.6469    1.0000 </r>
       <r>    3.0926    1.0000 </r>
       <r>    6.6799    0.0000 </r>
       <r>    8.7649    0.0000 </r>
       <r>   13.6129    0.0000 </r>
       <r>   14.1877    0.0000 </r>
       <r>   14.1888    0.0000 </r>
      </set>
      <set comment="kpoint 31">
       <r>   -2.1303    1.0000 </r>
       <r>   -2.1303    1.0000 </r>
       <r>    2.8218    1.0000 </r>
       <r>    2.8218    1.0000 </r>
       <r>    6.3677    0.0000 </r>
       <r>    6.3677    0.0000 </r>
       <r>   15.5525    0.0000 </r>
       <r>   15.5525    0.0000 </r>
       <r>   16.5229    0.0000 </r>
      </set>
      <set comment="kpoint 32">
       <r>   -5.3536    1.0000 </r>
       <r>    2.2542    1.0000 </r>
       <r>    3.5831    1.0000 </r>
       <r>    4.6604    1.0000 </r>
       <r>    7.9610    0.0000 </r>
       <r>    9.2651    0.0000 </r>
       <r>   10.2144    0.0000 </r>
       <r>   10.2348    0.0000 </r>
       <r>   12.7729    0.0000 </r>
      </set>
      <set comment="kpoint 33">
       <r>   -4.7541    1.0000 </r>
       <r>    0.8719    1.0000 </r>
       <r>    2.9994    1.0000 </r>
       <r>    4.2948    1.0000 </r>
       <r>    8.3010    0.0000 </r>
       <r>    9.1829    0.0000 </r>
       <r>   10.3078    0.0000 </r>
       <r>   10.7003    0.0000 </r>
       <r>   13.4293    0.0000 </r>
      </set>
      <set comment="kpoint 34">
       <r>   -4.0242    1.0000 </r>
       <r>   -0.4610    1.0000 </r>
       <r>    2.7655    1.0000 </r>
       <r>    3.9540    1.0000 </r>
       <r>    8.3394    0.0000 </r>
       <r>    8.8938    0.0000 </r>
       <r>   10.6273    0.0000 </r>
       <r>   11.6286    0.0000 </r>
       <r>   14.7279    0.0000 </r>
      </set>
      <set comment="kpoint 35">
       <r>   -3.5788    1.0000 </r>
       <r>   -1.1205    1.0000 </r>
       <r>    2.7043    1.0000 </r>
       <r>    3.8201    1.0000 </r>
       <r>    8.3519    0.0000 </r>
       <r>    8.7303    0.0000 </r>
       <r>   10.5905    0.0000 </r>
       <r>   13.3467    0.0000 </r>
       <r>   13.3901    0.0000 </r>
      </set>
      <set comment="kpoint 36">
       <r>   -4.5310    1.0000 </r>
       <r>    0.8658    1.0000 </r>
       <r>    2.8702    1.0000 </r>
       <r>    3.5750    1.0000 </r>
       <r>    7.4027    0.0000 </r>
       <r>    8.6826    0.0000 </r>
       <r>   10.7565    0.0000 </r>
       <r>   12.0799    0.0000 </r>
       <r>   14.4312    0.0000 </r>
      </set>
      <set comment="kpoint 37">
       <r>   -3.8258    1.0000 </r>
       <r>   -0.2145    1.0000 </r>
       <r>    2.2617    1.0000 </r>
       <r>    3.2558    1.0000 </r>
       <r>    7.7832    0.0000 </r>
       <r>    9.3689    0.0000 </r>
       <r>   10.3825    0.0000 </r>
       <r>   12.4714    0.0000 </r>
       <r>   15.5231    0.0000 </r>
      </set>
      <set comment="kpoint 38">
       <r>   -3.1929    1.0000 </r>
       <r>   -1.0544    1.0000 </r>
       <r>    1.8595    1.0000 </r>
       <r>    3.2015    1.0000 </r>
       <r>    7.9631    0.0000 </r>
       <r>    9.9555    0.0000 </r>
       <r>   11.0786    0.0000 </r>
       <r>   12.3995    0.0000 </r>
       <r>   13.4812    0.0000 </r>
      </set>
      <set comment="kpoint 39">
       <r>   -3.3892    1.0000 </r>
       <r>   -0.8019    1.0000 </r>
       <r>    1.7149    1.0000 </r>
       <r>    3.4353    1.0000 </r>
       <r>    8.2966    0.0000 </r>
       <r>    9.7010    0.0000 </r>
       <r>   11.5078    0.0000 </r>
       <r>   12.2847    0.0000 </r>
       <r>   13.1434    0.0000 </r>
      </set>
      <set comment="kpoint 40">
       <r>   -4.1074    1.0000 </r>
       <r>    0.1269    1.0000 </r>
       <r>    2.0129    1.0000 </r>
       <r>    3.8644    1.0000 </r>
       <r>    8.7754    0.0000 </r>
       <r>    9.2539    0.0000 </r>
       <r>   10.3010    0.0000 </r>
       <r>   11.8084    0.0000 </r>
       <r>   13.4895    0.0000 </r>
      </set>
      <set comment="kpoint 41">
       <r>   -3.4208    1.0000 </r>
       <r>   -0.6065    1.0000 </r>
       <r>    2.4677    1.0000 </r>
       <r>    2.7888    1.0000 </r>
       <r>    7.1193    0.0000 </r>
       <r>    7.7126    0.0000 </r>
       <r>   12.2894    0.0000 </r>
       <r>   14.0026    0.0000 </r>
       <r>   15.9493    0.0000 </r>
      </set>
      <set comment="kpoint 42">
       <r>   -2.6995    1.0000 </r>
       <r>   -1.3672    1.0000 </r>
       <r>    1.7859    1.0000 </r>
       <r>    2.6997    1.0000 </r>
       <r>    7.4695    0.0000 </r>
       <r>    8.8940    0.0000 </r>
       <r>   11.8952    0.0000 </r>
       <r>   13.6510    0.0000 </r>
       <r>   14.4410    0.0000 </r>
      </set>
      <set comment="kpoint 43">
       <r>   -2.7087    1.0000 </r>
       <r>   -1.3377    1.0000 </r>
       <r>    1.3808    1.0000 </r>
       <r>    2.9631    1.0000 </r>
       <r>    7.7909    0.0000 </r>
       <r>   10.7114    0.0000 </r>
       <r>   11.4933    0.0000 </r>
       <r>   11.8318    0.0000 </r>
       <r>   13.9210    0.0000 </r>
      </set>
      <set comment="kpoint 44">
       <r>   -2.0801    1.0000 </r>
       <r>   -2.0801    1.0000 </r>
       <r>    2.4267    1.0000 </r>
       <r>    2.4267    1.0000 </r>
       <r>    7.2023    0.0000 </r>
       <r>    7.2023    0.0000 </r>
       <r>   14.0027    0.0000 </r>
       <r>   14.0027    0.0000 </r>
       <r>   16.0839    0.0000 </r>
      </set>
      <set comment="kpoint 45">
       <r>   -3.1093    1.0000 </r>
       <r>   -0.8985    1.0000 </r>
       <r>    1.7271    1.0000 </r>
       <r>    2.6940    1.0000 </r>
       <r>    8.9986    0.0000 </r>
       <r>    9.3957    0.0000 </r>
       <r>    9.9876    0.0000 </r>
       <r>   13.3192    0.0000 </r>
       <r>   13.9728    0.0000 </r>
      </set>
      <set comment="kpoint 46">
       <r>   -2.6109    1.0000 </r>
       <r>   -1.3978    1.0000 </r>
       <r>    1.5738    1.0000 </r>
       <r>    2.4492    1.0000 </r>
       <r>    9.2919    0.0000 </r>
       <r>    9.5683    0.0000 </r>
       <r>   10.9781    0.0000 </r>
       <r>   11.3843    0.0000 </r>
       <r>   14.4127    0.0000 </r>
      </set>
      <set comment="kpoint 47">
       <r>   -1.9918    1.0000 </r>
       <r>   -1.9918    1.0000 </r>
       <r>    1.9299    1.0000 </r>
       <r>    1.9299    1.0000 </r>
       <r>    9.0415    0.0000 </r>
       <r>    9.0415    0.0000 </r>
       <r>   11.4779    0.0000 </r>
       <r>   11.4779    0.0000 </r>
       <r>   16.0662    0.0000 </r>
      </set>
     </set>
    </set>
   </array>
  </eigenvalues>
  <separator name="orbital magnetization" >
   <v name="MAGDIPOLOUT">      0.00000000      0.00000000      0.00000000</v>
  </separator>
  <dos>
   <i name="efermi">      5.83009311 </i>
   <total>
    <array>
     <dimension dim="1">gridpoints</dimension>
     <dimension dim="2">spin</dimension>
     <field>energy</field>
     <field>total</field>
     <field>integrated</field>
     <set>
      <set comment="spin 1">
       <r>    -7.3348     0.0000     0.0000 </r>
       <r>    -7.2515     0.0000     0.0000 </r>
       <r>    -7.1682     0.0000     0.0000 </r>
       <r>    -7.0849     0.0000     0.0000 </r>
       <r>    -7.0016     0.0000     0.0000 </r>
       <r>    -6.9183     0.0000     0.0000 </r>
       <r>    -6.8349     0.0000     0.0000 </r>
       <r>    -6.7516     0.0000     0.0000 </r>
       <r>    -6.6683     0.0000     0.0000 </r>
       <r>    -6.5850     0.0000     0.0000 </r>
       <r>    -6.5017     0.0000     0.0000 </r>
       <r>    -6.4184     0.0000     0.0000 </r>
       <r>    -6.3351     0.0000     0.0000 </r>
       <r>    -6.2518     0.0008     0.0001 </r>
       <r>    -6.1684     0.0091     0.0008 </r>
       <r>    -6.0851     0.0377     0.0040 </r>
       <r>    -6.0018     0.1126     0.0133 </r>
       <r>    -5.9185     0.0258     0.0155 </r>
       <r>    -5.8352     0.1001     0.0238 </r>
       <r>    -5.7519     0.1182     0.0337 </r>
       <r>    -5.6686     0.2661     0.0559 </r>
       <r>    -5.5852     0.0394     0.0591 </r>
       <r>    -5.5019     0.0457     0.0629 </r>
       <r>    -5.4186     0.1197     0.0729 </r>
       <r>    -5.3353     0.3835     0.1049 </r>
       <r>    -5.2520     0.1137     0.1143 </r>
       <r>    -5.1687     0.2109     0.1319 </r>
       <r>    -5.0854     0.1745     0.1465 </r>
       <r>    -5.0020     0.2537     0.1676 </r>
       <r>    -4.9187     0.0323     0.1703 </r>
       <r>    -4.8354     0.1164     0.1800 </r>
       <r>    -4.7521     0.4108     0.2142 </r>
       <r>    -4.6688     0.4962     0.2555 </r>
       <r>    -4.5855     0.0593     0.2605 </r>
       <r>    -4.5022     0.3089     0.2862 </r>
       <r>    -4.4188     0.3215     0.3130 </r>
       <r>    -4.3355     0.2739     0.3358 </r>
       <r>    -4.2522     0.0413     0.3393 </r>
       <r>    -4.1689     0.1640     0.3529 </r>
       <r>    -4.0856     0.4784     0.3928 </r>
       <r>    -4.0023     0.8513     0.4637 </r>
       <r>    -3.9190     0.2752     0.4866 </r>
       <r>    -3.8356     0.4556     0.5246 </r>
       <r>    -3.7523     0.4089     0.5587 </r>
       <r>    -3.6690     0.1949     0.5749 </r>
       <r>    -3.5857     0.2449     0.5953 </r>
       <r>    -3.5024     0.4542     0.6331 </r>
       <r>    -3.4191     0.4390     0.6697 </r>
       <r>    -3.3358     0.7386     0.7313 </r>
       <r>    -3.2524     0.1891     0.7470 </r>
       <r>    -3.1691     0.4181     0.7819 </r>
       <r>    -3.0858     0.3471     0.8108 </r>
       <r>    -3.0025     0.0830     0.8177 </r>
       <r>    -2.9192     0.1890     0.8334 </r>
       <r>    -2.8359     0.1865     0.8490 </r>
       <r>    -2.7526     0.2524     0.8700 </r>
       <r>    -2.6692     0.6642     0.9253 </r>
       <r>    -2.5859     0.3572     0.9551 </r>
       <r>    -2.5026     0.0705     0.9610 </r>
       <r>    -2.4193     0.0070     0.9616 </r>
       <r>    -2.3360     0.1015     0.9700 </r>
       <r>    -2.2527     0.0357     0.9730 </r>
       <r>    -2.1694     0.0113     0.9739 </r>
       <r>    -2.0860     0.1774     0.9887 </r>
       <r>    -2.0027     0.2748     1.0116 </r>
       <r>    -1.9194     0.1787     1.0265 </r>
       <r>    -1.8361     0.0078     1.0271 </r>
       <r>    -1.7528     0.0767     1.0335 </r>
       <r>    -1.6695     0.0646     1.0389 </r>
       <r>    -1.5862     0.0010     1.0390 </r>
       <r>    -1.5028     0.0004     1.0390 </r>
       <r>    -1.4195     0.1235     1.0493 </r>
       <r>    -1.3362     0.9426     1.1279 </r>
       <r>    -1.2529     0.4530     1.1656 </r>
       <r>    -1.1696     0.2781     1.1888 </r>
       <r>    -1.0863     0.5491     1.2345 </r>
       <r>    -1.0030     0.6913     1.2921 </r>
       <r>    -0.9196     0.2787     1.3153 </r>
       <r>    -0.8363     0.5666     1.3625 </r>
       <r>    -0.7530     0.8755     1.4355 </r>
       <r>    -0.6697     0.2320     1.4548 </r>
       <r>    -0.5864     0.3316     1.4824 </r>
       <r>    -0.5031     0.2638     1.5044 </r>
       <r>    -0.4198     0.4636     1.5430 </r>
       <r>    -0.3365     0.0715     1.5490 </r>
       <r>    -0.2531     0.0772     1.5554 </r>
       <r>    -0.1698     0.4450     1.5925 </r>
       <r>    -0.0865     0.2732     1.6153 </r>
       <r>    -0.0032     0.3195     1.6419 </r>
       <r>     0.0801     0.0633     1.6472 </r>
       <r>     0.1634     0.2304     1.6664 </r>
       <r>     0.2467     0.2460     1.6869 </r>
       <r>     0.3301     0.1662     1.7007 </r>
       <r>     0.4134     0.4121     1.7350 </r>
       <r>     0.4967     0.0714     1.7410 </r>
       <r>     0.5800     0.0002     1.7410 </r>
       <r>     0.6633     0.0000     1.7410 </r>
       <r>     0.7466     0.0002     1.7410 </r>
       <r>     0.8299     0.1191     1.7509 </r>
       <r>     0.9133     0.7290     1.8117 </r>
       <r>     0.9966     0.1116     1.8210 </r>
       <r>     1.0799     0.0010     1.8211 </r>
       <r>     1.1632     0.0665     1.8266 </r>
       <r>     1.2465     0.1346     1.8378 </r>
       <r>     1.3298     0.0359     1.8408 </r>
       <r>     1.4131     0.3068     1.8664 </r>
       <r>     1.4965     0.5808     1.9148 </r>
       <r>     1.5798     0.2658     1.9369 </r>
       <r>     1.6631     0.2690     1.9593 </r>
       <r>     1.7464     0.8470     2.0299 </r>
       <r>     1.8297     0.9230     2.1068 </r>
       <r>     1.9130     0.5868     2.1557 </r>
       <r>     1.9963     0.5274     2.1996 </r>
       <r>     2.0797     0.5471     2.2452 </r>
       <r>     2.1630     0.0343     2.2481 </r>
       <r>     2.2463     0.6257     2.3002 </r>
       <r>     2.3296     0.7823     2.3654 </r>
       <r>     2.4129     0.3402     2.3937 </r>
       <r>     2.4962     0.7695     2.4578 </r>
       <r>     2.5795     0.3219     2.4846 </r>
       <r>     2.6629     0.3197     2.5113 </r>
       <r>     2.7462     1.1906     2.6105 </r>
       <r>     2.8295     0.9615     2.6906 </r>
       <r>     2.9128     0.5517     2.7365 </r>
       <r>     2.9961     0.8725     2.8092 </r>
       <r>     3.0794     0.7004     2.8676 </r>
       <r>     3.1627     0.3306     2.8951 </r>
       <r>     3.2461     1.1836     2.9937 </r>
       <r>     3.3294     0.6270     3.0460 </r>
       <r>     3.4127     0.2439     3.0663 </r>
       <r>     3.4960     0.7494     3.1287 </r>
       <r>     3.5793     0.6817     3.1855 </r>
       <r>     3.6626     1.0772     3.2753 </r>
       <r>     3.7459     0.6857     3.3324 </r>
       <r>     3.8293     0.5025     3.3743 </r>
       <r>     3.9126     0.9140     3.4504 </r>
       <r>     3.9959     0.9473     3.5293 </r>
       <r>     4.0792     0.1190     3.5393 </r>
       <r>     4.1625     0.2423     3.5594 </r>
       <r>     4.2458     0.5020     3.6013 </r>
       <r>     4.3291     0.8690     3.6737 </r>
       <r>     4.4125     0.7568     3.7367 </r>
       <r>     4.4958     0.3933     3.7695 </r>
       <r>     4.5791     0.2323     3.7888 </r>
       <r>     4.6624     0.4287     3.8246 </r>
       <r>     4.7457     0.6171     3.8760 </r>
       <r>     4.8290     0.4437     3.9129 </r>
       <r>     4.9123     0.0486     3.9170 </r>
       <r>     4.9957     0.0197     3.9186 </r>
       <r>     5.0790     0.2794     3.9419 </r>
       <r>     5.1623     0.2923     3.9663 </r>
       <r>     5.2456     0.0328     3.9690 </r>
       <r>     5.3289     0.0009     3.9691 </r>
       <r>     5.4122     0.1031     3.9777 </r>
       <r>     5.4955     0.2195     3.9960 </r>
       <r>     5.5788     0.0178     3.9974 </r>
       <r>     5.6622     0.0273     3.9997 </r>
       <r>     5.7455     0.0035     4.0000 </r>
       <r>     5.8288     0.0000     4.0000 </r>
       <r>     5.9121     0.0000     4.0000 </r>
       <r>     5.9954     0.0000     4.0000 </r>
       <r>     6.0787     0.0000     4.0000 </r>
       <r>     6.1620     0.0016     4.0001 </r>
       <r>     6.2454     0.0439     4.0038 </r>
       <r>     6.3287     0.0362     4.0068 </r>
       <r>     6.4120     0.0703     4.0127 </r>
       <r>     6.4953     0.2415     4.0328 </r>
       <r>     6.5786     0.1095     4.0419 </r>
       <r>     6.6619     0.1013     4.0503 </r>
       <r>     6.7452     0.3078     4.0760 </r>
       <r>     6.8286     0.0529     4.0804 </r>
       <r>     6.9119     0.2233     4.0990 </r>
       <r>     6.9952     0.0947     4.1069 </r>
       <r>     7.0785     0.1706     4.1211 </r>
       <r>     7.1618     0.6578     4.1759 </r>
       <r>     7.2451     0.7367     4.2373 </r>
       <r>     7.3284     0.1161     4.2470 </r>
       <r>     7.4118     0.4379     4.2835 </r>
       <r>     7.4951     0.9088     4.3592 </r>
       <r>     7.5784     0.3069     4.3847 </r>
       <r>     7.6617     0.1628     4.3983 </r>
       <r>     7.7450     0.8308     4.4675 </r>
       <r>     7.8283     1.3679     4.5815 </r>
       <r>     7.9116     0.7323     4.6425 </r>
       <r>     7.9950     1.1566     4.7389 </r>
       <r>     8.0783     0.5235     4.7825 </r>
       <r>     8.1616     0.1745     4.7970 </r>
       <r>     8.2449     0.1810     4.8121 </r>
       <r>     8.3282     1.3445     4.9241 </r>
       <r>     8.4115     0.8268     4.9930 </r>
       <r>     8.4948     0.3272     5.0203 </r>
       <r>     8.5782     0.2756     5.0432 </r>
       <r>     8.6615     0.1247     5.0536 </r>
       <r>     8.7448     0.5914     5.1029 </r>
       <r>     8.8281     0.4813     5.1430 </r>
       <r>     8.9114     1.0513     5.2306 </r>
       <r>     8.9947     2.0592     5.4021 </r>
       <r>     9.0780     1.2901     5.5096 </r>
       <r>     9.1614     0.5482     5.5553 </r>
       <r>     9.2447     0.9111     5.6312 </r>
       <r>     9.3280     1.3884     5.7469 </r>
       <r>     9.4113     0.9190     5.8234 </r>
       <r>     9.4946     0.4379     5.8599 </r>
       <r>     9.5779     0.4144     5.8944 </r>
       <r>     9.6612     0.5858     5.9433 </r>
       <r>     9.7446     0.9372     6.0213 </r>
       <r>     9.8279     0.1842     6.0367 </r>
       <r>     9.9112     0.3854     6.0688 </r>
       <r>     9.9945     0.6791     6.1254 </r>
       <r>    10.0778     0.2335     6.1448 </r>
       <r>    10.1611     0.4745     6.1844 </r>
       <r>    10.2444     0.8898     6.2585 </r>
       <r>    10.3278     1.0003     6.3418 </r>
       <r>    10.4111     0.8608     6.4135 </r>
       <r>    10.4944     0.5672     6.4608 </r>
       <r>    10.5777     0.4761     6.5005 </r>
       <r>    10.6610     0.8737     6.5732 </r>
       <r>    10.7443     1.4254     6.6920 </r>
       <r>    10.8276     0.5732     6.7398 </r>
       <r>    10.9110     0.1577     6.7529 </r>
       <r>    10.9943     0.4624     6.7914 </r>
       <r>    11.0776     0.7784     6.8563 </r>
       <r>    11.1609     0.3731     6.8874 </r>
       <r>    11.2442     0.2556     6.9086 </r>
       <r>    11.3275     0.2661     6.9308 </r>
       <r>    11.4108     0.2792     6.9541 </r>
       <r>    11.4941     0.8068     7.0213 </r>
       <r>    11.5775     0.8156     7.0893 </r>
       <r>    11.6608     0.5593     7.1358 </r>
       <r>    11.7441     0.1996     7.1525 </r>
       <r>    11.8274     0.4127     7.1869 </r>
       <r>    11.9107     0.6490     7.2409 </r>
       <r>    11.9940     0.7854     7.3064 </r>
       <r>    12.0773     0.3943     7.3392 </r>
       <r>    12.1607     0.4096     7.3733 </r>
       <r>    12.2440     0.5563     7.4197 </r>
       <r>    12.3273     1.3423     7.5315 </r>
       <r>    12.4106     1.0614     7.6200 </r>
       <r>    12.4939     1.0807     7.7100 </r>
       <r>    12.5772     0.5497     7.7558 </r>
       <r>    12.6605     0.4659     7.7946 </r>
       <r>    12.7439     0.4102     7.8288 </r>
       <r>    12.8272     0.2365     7.8485 </r>
       <r>    12.9105     0.0213     7.8503 </r>
       <r>    12.9938     0.0640     7.8556 </r>
       <r>    13.0771     0.1089     7.8647 </r>
       <r>    13.1604     0.6850     7.9217 </r>
       <r>    13.2437     0.2901     7.9459 </r>
       <r>    13.3271     0.3625     7.9761 </r>
       <r>    13.4104     0.9651     8.0565 </r>
       <r>    13.4937     1.0616     8.1450 </r>
       <r>    13.5770     0.4467     8.1822 </r>
       <r>    13.6603     0.6653     8.2376 </r>
       <r>    13.7436     0.4114     8.2719 </r>
       <r>    13.8269     0.1466     8.2841 </r>
       <r>    13.9103     0.3279     8.3114 </r>
       <r>    13.9936     0.8270     8.3803 </r>
       <r>    14.0769     0.9433     8.4589 </r>
       <r>    14.1602     0.2145     8.4768 </r>
       <r>    14.2435     0.4634     8.5154 </r>
       <r>    14.3268     0.3200     8.5420 </r>
       <r>    14.4101     0.5317     8.5863 </r>
       <r>    14.4935     1.0622     8.6748 </r>
       <r>    14.5768     0.4595     8.7131 </r>
       <r>    14.6601     0.0617     8.7183 </r>
       <r>    14.7434     0.3672     8.7489 </r>
       <r>    14.8267     0.1922     8.7649 </r>
       <r>    14.9100     0.0016     8.7650 </r>
       <r>    14.9933     0.0000     8.7650 </r>
       <r>    15.0767     0.0000     8.7650 </r>
       <r>    15.1600     0.0000     8.7650 </r>
       <r>    15.2433     0.0118     8.7660 </r>
       <r>    15.3266     0.1989     8.7826 </r>
       <r>    15.4099     0.0783     8.7891 </r>
       <r>    15.4932     0.1837     8.8044 </r>
       <r>    15.5765     0.4293     8.8402 </r>
       <r>    15.6599     0.1513     8.8528 </r>
       <r>    15.7432     0.1661     8.8666 </r>
       <r>    15.8265     0.0050     8.8670 </r>
       <r>    15.9098     0.0515     8.8713 </r>
       <r>    15.9931     0.4708     8.9105 </r>
       <r>    16.0764     0.4706     8.9497 </r>
       <r>    16.1597     0.2003     8.9664 </r>
       <r>    16.2431     0.0166     8.9678 </r>
       <r>    16.3264     0.2000     8.9845 </r>
       <r>    16.4097     0.1412     8.9962 </r>
       <r>    16.4930     0.0164     8.9976 </r>
       <r>    16.5763     0.0266     8.9998 </r>
       <r>    16.6596     0.0024     9.0000 </r>
       <r>    16.7429     0.0000     9.0000 </r>
       <r>    16.8262     0.0000     9.0000 </r>
       <r>    16.9096     0.0000     9.0000 </r>
       <r>    16.9929     0.0000     9.0000 </r>
       <r>    17.0762     0.0000     9.0000 </r>
       <r>    17.1595     0.0000     9.0000 </r>
       <r>    17.2428     0.0000     9.0000 </r>
       <r>    17.3261     0.0000     9.0000 </r>
       <r>    17.4094     0.0000     9.0000 </r>
       <r>    17.4928     0.0000     9.0000 </r>
       <r>    17.5761     0.0000     9.0000 </r>
       <r>    17.6594     0.0000     9.0000 </r>
      </set>
      <set comment="spin 2">
       <r>    -7.3348     0.0000     0.0000 </r>
       <r>    -7.2515     0.0000     0.0000 </r>
       <r>    -7.1682     0.0000     0.0000 </r>
       <r>    -7.0849     0.0000     0.0000 </r>
       <r>    -7.0016     0.0000     0.0000 </r>
       <r>    -6.9183     0.0000     0.0000 </r>
       <r>    -6.8349     0.0000     0.0000 </r>
       <r>    -6.7516     0.0000     0.0000 </r>
       <r>    -6.6683     0.0000     0.0000 </r>
       <r>    -6.5850     0.0000     0.0000 </r>
       <r>    -6.5017     0.0000     0.0000 </r>
       <r>    -6.4184     0.0000     0.0000 </r>
       <r>    -6.3351     0.0000     0.0000 </r>
       <r>    -6.2518     0.0008     0.0001 </r>
       <r>    -6.1684     0.0091     0.0008 </r>
       <r>    -6.0851     0.0380     0.0040 </r>
       <r>    -6.0018     0.1125     0.0134 </r>
       <r>    -5.9185     0.0257     0.0155 </r>
       <r>    -5.8352     0.1004     0.0239 </r>
       <r>    -5.7519     0.1186     0.0337 </r>
       <r>    -5.6686     0.2658     0.0559 </r>
       <r>    -5.5852     0.0389     0.0591 </r>
       <r>    -5.5019     0.0459     0.0630 </r>
       <r>    -5.4186     0.1205     0.0730 </r>
       <r>    -5.3353     0.3835     0.1050 </r>
       <r>    -5.2520     0.1130     0.1144 </r>
       <r>    -5.1687     0.2114     0.1320 </r>
       <r>    -5.0854     0.1748     0.1465 </r>
       <r>    -5.0020     0.2530     0.1676 </r>
       <r>    -4.9187     0.0323     0.1703 </r>
       <r>    -4.8354     0.1166     0.1800 </r>
       <r>    -4.7521     0.4135     0.2145 </r>
       <r>    -4.6688     0.4936     0.2556 </r>
       <r>    -4.5855     0.0592     0.2605 </r>
       <r>    -4.5022     0.3104     0.2864 </r>
       <r>    -4.4188     0.3208     0.3131 </r>
       <r>    -4.3355     0.2733     0.3359 </r>
       <r>    -4.2522     0.0408     0.3393 </r>
       <r>    -4.1689     0.1654     0.3531 </r>
[...]
        <r>  0.0295  0.0495  0.0443  0.0012  0.0000  0.0000  0.0000  0.0000  0.0000 </r>
       </set>
       <set comment="band 7">
        <r>  0.0313  0.0587  0.0008  0.0385  0.0000  0.0000  0.0000  0.0000  0.0000 </r>
        <r>  0.0313  0.0587  0.0008  0.0385  0.0000  0.0000  0.0000  0.0000  0.0000 </r>
       </set>
       <set comment="band 8">
        <r>  0.0217  0.0631  0.0669  0.0024  0.0000  0.0000  0.0000  0.0000  0.0000 </r>
        <r>  0.0217  0.0631  0.0669  0.0024  0.0000  0.0000  0.0000  0.0000  0.0000 </r>
       </set>
       <set comment="band 9">
        <r>  0.0160  0.0085  0.0244  0.0707  0.0000  0.0000  0.0000  0.0000  0.0000 </r>
        <r>  0.0160  0.0085  0.0244  0.0707  0.0000  0.0000  0.0000  0.0000  0.0000 </r>
       </set>
      </set>
      <set comment="kpoint 39">
       <set comment="band 1">
        <r>  0.2121  0.0117  0.0013  0.0110  0.0000  0.0000  0.0000  0.0000  0.0000 </r>
        <r>  0.2121  0.0117  0.0013  0.0110  0.0000  0.0000  0.0000  0.0000  0.0000 </r>
       </set>
       <set comment="band 2">
        <r>  0.1605  0.0120  0.0011  0.0572  0.0000  0.0000  0.0000  0.0000  0.0000 </r>
        <r>  0.1605  0.0120  0.0011  0.0572  0.0000  0.0000  0.0000  0.0000  0.0000 </r>
       </set>
       <set comment="band 3">
        <r>  0.0189  0.0991  0.0031  0.0467  0.0000  0.0000  0.0000  0.0000  0.0000 </r>
        <r>  0.0189  0.0991  0.0031  0.0467  0.0000  0.0000  0.0000  0.0000  0.0000 </r>
       </set>
       <set comment="band 4">
        <r>  0.0029  0.0102  0.1703  0.0070  0.0000  0.0000  0.0000  0.0000  0.0000 </r>
        <r>  0.0029  0.0102  0.1703  0.0070  0.0000  0.0000  0.0000  0.0000  0.0000 </r>
       </set>
       <set comment="band 5">
        <r>  0.0461  0.0196  0.0297  0.0243  0.0000  0.0000  0.0000  0.0000  0.0000 </r>
        <r>  0.0461  0.0196  0.0297  0.0243  0.0000  0.0000  0.0000  0.0000  0.0000 </r>
       </set>
       <set comment="band 6">
        <r>  0.0301  0.0394  0.0552  0.0035  0.0000  0.0000  0.0000  0.0000  0.0000 </r>
        <r>  0.0301  0.0394  0.0552  0.0035  0.0000  0.0000  0.0000  0.0000  0.0000 </r>
       </set>
       <set comment="band 7">
        <r>  0.0325  0.0185  0.0321  0.0503  0.0000  0.0000  0.0000  0.0000  0.0000 </r>
        <r>  0.0325  0.0185  0.0321  0.0503  0.0000  0.0000  0.0000  0.0000  0.0000 </r>
       </set>
       <set comment="band 8">
        <r>  0.0114  0.0407  0.0492  0.0163  0.0000  0.0000  0.0000  0.0000  0.0000 </r>
        <r>  0.0114  0.0407  0.0492  0.0163  0.0000  0.0000  0.0000  0.0000  0.0000 </r>
       </set>
       <set comment="band 9">
        <r>  0.0208  0.0769  0.0002  0.0496  0.0000  0.0000  0.0000  0.0000  0.0000 </r>
        <r>  0.0208  0.0769  0.0002  0.0496  0.0000  0.0000  0.0000  0.0000  0.0000 </r>
       </set>
      </set>
      <set comment="kpoint 40">
       <set comment="band 1">
        <r>  0.2076  0.0117  0.0012  0.0069  0.0000  0.0000  0.0000  0.0000  0.0000 </r>
        <r>  0.2076  0.0117  0.0012  0.0069  0.0000  0.0000  0.0000  0.0000  0.0000 </r>
       </set>
       <set comment="band 2">
        <r>  0.1612  0.0400  0.0017  0.0369  0.0000  0.0000  0.0000  0.0000  0.0000 </r>
        <r>  0.1612  0.0400  0.0017  0.0369  0.0000  0.0000  0.0000  0.0000  0.0000 </r>
       </set>
       <set comment="band 3">
        <r>  0.0122  0.0753  0.0011  0.0783  0.0000  0.0000  0.0000  0.0000  0.0000 </r>
        <r>  0.0122  0.0753  0.0011  0.0783  0.0000  0.0000  0.0000  0.0000  0.0000 </r>
       </set>
       <set comment="band 4">
        <r>  0.0045  0.0057  0.1761  0.0109  0.0000  0.0000  0.0000  0.0000  0.0000 </r>
        <r>  0.0045  0.0057  0.1761  0.0109  0.0000  0.0000  0.0000  0.0000  0.0000 </r>
       </set>
       <set comment="band 5">
        <r>  0.0521  0.0194  0.0303  0.0350  0.0000  0.0000  0.0000  0.0000  0.0000 </r>
        <r>  0.0521  0.0194  0.0303  0.0350  0.0000  0.0000  0.0000  0.0000  0.0000 </r>
       </set>
       <set comment="band 6">
        <r>  0.0218  0.0113  0.0807  0.0223  0.0000  0.0000  0.0000  0.0000  0.0000 </r>
        <r>  0.0218  0.0113  0.0807  0.0223  0.0000  0.0000  0.0000  0.0000  0.0000 </r>
       </set>
       <set comment="band 7">
        <r>  0.0441  0.0390  0.0006  0.0274  0.0000  0.0000  0.0000  0.0000  0.0000 </r>
        <r>  0.0441  0.0390  0.0006  0.0274  0.0000  0.0000  0.0000  0.0000  0.0000 </r>
       </set>
       <set comment="band 8">
        <r>  0.0100  0.0264  0.0624  0.0502  0.0000  0.0000  0.0000  0.0000  0.0000 </r>
        <r>  0.0100  0.0264  0.0624  0.0502  0.0000  0.0000  0.0000  0.0000  0.0000 </r>
       </set>
       <set comment="band 9">
        <r>  0.0337  0.0328  0.0080  0.0196  0.0000  0.0000  0.0000  0.0000  0.0000 </r>
        <r>  0.0337  0.0328  0.0080  0.0196  0.0000  0.0000  0.0000  0.0000  0.0000 </r>
       </set>
      </set>
      <set comment="kpoint 41">
       <set comment="band 1">
        <r>  0.2016  0.0069  0.0009  0.0210  0.0000  0.0000  0.0000  0.0000  0.0000 </r>
        <r>  0.2016  0.0069  0.0009  0.0210  0.0000  0.0000  0.0000  0.0000  0.0000 </r>
       </set>
       <set comment="band 2">
        <r>  0.1865  0.0158  0.0041  0.0410  0.0000  0.0000  0.0000  0.0000  0.0000 </r>
        <r>  0.1865  0.0158  0.0041  0.0410  0.0000  0.0000  0.0000  0.0000  0.0000 </r>
       </set>
       <set comment="band 3">
        <r>  0.0063  0.0385  0.0804  0.0532  0.0000  0.0000  0.0000  0.0000  0.0000 </r>
        <r>  0.0063  0.0385  0.0804  0.0532  0.0000  0.0000  0.0000  0.0000  0.0000 </r>
       </set>
       <set comment="band 4">
        <r>  0.0000  0.0876  0.0825  0.0120  0.0000  0.0000  0.0000  0.0000  0.0000 </r>
        <r>  0.0000  0.0876  0.0825  0.0120  0.0000  0.0000  0.0000  0.0000  0.0000 </r>
       </set>
       <set comment="band 5">
        <r>  0.0415  0.0420  0.0172  0.0134  0.0000  0.0000  0.0000  0.0000  0.0000 </r>
        <r>  0.0415  0.0420  0.0172  0.0134  0.0000  0.0000  0.0000  0.0000  0.0000 </r>
       </set>
       <set comment="band 6">
        <r>  0.0416  0.0032  0.0122  0.0338  0.0000  0.0000  0.0000  0.0000  0.0000 </r>
        <r>  0.0416  0.0032  0.0122  0.0338  0.0000  0.0000  0.0000  0.0000  0.0000 </r>
       </set>
       <set comment="band 7">
        <r>  0.0257  0.0665  0.0531  0.0069  0.0000  0.0000  0.0000  0.0000  0.0000 </r>
        <r>  0.0257  0.0665  0.0531  0.0069  0.0000  0.0000  0.0000  0.0000  0.0000 </r>
       </set>
       <set comment="band 8">
        <r>  0.0016  0.0657  0.0823  0.0201  0.0000  0.0000  0.0000  0.0000  0.0000 </r>
        <r>  0.0016  0.0657  0.0823  0.0201  0.0000  0.0000  0.0000  0.0000  0.0000 </r>
       </set>
       <set comment="band 9">
        <r>  0.0074  0.0050  0.0246  0.0681  0.0000  0.0000  0.0000  0.0000  0.0000 </r>
        <r>  0.0068  0.0050  0.0248  0.0702  0.0000  0.0000  0.0000  0.0000  0.0000 </r>
       </set>
      </set>
      <set comment="kpoint 42">
       <set comment="band 1">
        <r>  0.2050  0.0099  0.0012  0.0225  0.0000  0.0000  0.0000  0.0000  0.0000 </r>
        <r>  0.2050  0.0099  0.0012  0.0225  0.0000  0.0000  0.0000  0.0000  0.0000 </r>
       </set>
       <set comment="band 2">
        <r>  0.1912  0.0137  0.0019  0.0366  0.0000  0.0000  0.0000  0.0000  0.0000 </r>
        <r>  0.1912  0.0137  0.0019  0.0366  0.0000  0.0000  0.0000  0.0000  0.0000 </r>
       </set>
       <set comment="band 3">
        <r>  0.0032  0.0969  0.0038  0.0579  0.0000  0.0000  0.0000  0.0000  0.0000 </r>
        <r>  0.0032  0.0969  0.0038  0.0579  0.0000  0.0000  0.0000  0.0000  0.0000 </r>
       </set>
       <set comment="band 4">
        <r>  0.0020  0.0124  0.1619  0.0043  0.0000  0.0000  0.0000  0.0000  0.0000 </r>
        <r>  0.0020  0.0124  0.1619  0.0043  0.0000  0.0000  0.0000  0.0000  0.0000 </r>
       </set>
       <set comment="band 5">
        <r>  0.0423  0.0179  0.0295  0.0157  0.0000  0.0000  0.0000  0.0000  0.0000 </r>
        <r>  0.0423  0.0179  0.0295  0.0157  0.0000  0.0000  0.0000  0.0000  0.0000 </r>
       </set>
       <set comment="band 6">
        <r>  0.0297  0.0443  0.0008  0.0348  0.0000  0.0000  0.0000  0.0000  0.0000 </r>
        <r>  0.0297  0.0443  0.0008  0.0348  0.0000  0.0000  0.0000  0.0000  0.0000 </r>
       </set>
       <set comment="band 7">
        <r>  0.0300  0.0586  0.0515  0.0056  0.0000  0.0000  0.0000  0.0000  0.0000 </r>
        <r>  0.0300  0.0586  0.0515  0.0056  0.0000  0.0000  0.0000  0.0000  0.0000 </r>
       </set>
       <set comment="band 8">
        <r>  0.0205  0.0242  0.0544  0.0614  0.0000  0.0000  0.0000  0.0000  0.0000 </r>
        <r>  0.0205  0.0242  0.0544  0.0614  0.0000  0.0000  0.0000  0.0000  0.0000 </r>
       </set>
       <set comment="band 9">
        <r>  0.0091  0.0536  0.0437  0.0084  0.0000  0.0000  0.0000  0.0000  0.0000 </r>
        <r>  0.0091  0.0536  0.0437  0.0084  0.0000  0.0000  0.0000  0.0000  0.0000 </r>
       </set>
      </set>
      <set comment="kpoint 43">
       <set comment="band 1">
        <r>  0.2125  0.0140  0.0016  0.0146  0.0000  0.0000  0.0000  0.0000  0.0000 </r>
        <r>  0.2125  0.0140  0.0016  0.0146  0.0000  0.0000  0.0000  0.0000  0.0000 </r>
       </set>
       <set comment="band 2">
        <r>  0.1846  0.0233  0.0013  0.0307  0.0000  0.0000  0.0000  0.0000  0.0000 </r>
        <r>  0.1846  0.0233  0.0013  0.0307  0.0000  0.0000  0.0000  0.0000  0.0000 </r>
       </set>
       <set comment="band 3">
        <r>  0.0014  0.0839  0.0003  0.0685  0.0000  0.0000  0.0000  0.0000  0.0000 </r>
        <r>  0.0014  0.0839  0.0003  0.0685  0.0000  0.0000  0.0000  0.0000  0.0000 </r>
       </set>
       <set comment="band 4">
        <r>  0.0029  0.0043  0.1681  0.0086  0.0000  0.0000  0.0000  0.0000  0.0000 </r>
        <r>  0.0029  0.0043  0.1681  0.0086  0.0000  0.0000  0.0000  0.0000  0.0000 </r>
       </set>
       <set comment="band 5">
        <r>  0.0430  0.0129  0.0299  0.0231  0.0000  0.0000  0.0000  0.0000  0.0000 </r>
        <r>  0.0430  0.0129  0.0299  0.0231  0.0000  0.0000  0.0000  0.0000  0.0000 </r>
       </set>
       <set comment="band 6">
        <r>  0.0055  0.0454  0.0156  0.0234  0.0000  0.0000  0.0000  0.0000  0.0000 </r>
        <r>  0.0055  0.0454  0.0156  0.0234  0.0000  0.0000  0.0000  0.0000  0.0000 </r>
       </set>
       <set comment="band 7">
        <r>  0.0368  0.0238  0.0709  0.0365  0.0000  0.0000  0.0000  0.0000  0.0000 </r>
        <r>  0.0368  0.0238  0.0709  0.0365  0.0000  0.0000  0.0000  0.0000  0.0000 </r>
       </set>
       <set comment="band 8">
        <r>  0.0368  0.0538  0.0023  0.0403  0.0000  0.0000  0.0000  0.0000  0.0000 </r>
        <r>  0.0368  0.0538  0.0023  0.0403  0.0000  0.0000  0.0000  0.0000  0.0000 </r>
       </set>
       <set comment="band 9">
        <r>  0.0116  0.0243  0.0650  0.0484  0.0000  0.0000  0.0000  0.0000  0.0000 </r>
        <r>  0.0116  0.0243  0.0650  0.0484  0.0000  0.0000  0.0000  0.0000  0.0000 </r>
       </set>
      </set>
      <set comment="kpoint 44">
       <set comment="band 1">
        <r>  0.1912  0.0147  0.0018  0.0277  0.0000  0.0000  0.0000  0.0000  0.0000 </r>
        <r>  0.2019  0.0140  0.0017  0.0262  0.0000  0.0000  0.0000  0.0000  0.0000 </r>
       </set>
       <set comment="band 2">
        <r>  0.2019  0.0140  0.0011  0.0268  0.0000  0.0000  0.0000  0.0000  0.0000 </r>
        <r>  0.1912  0.0147  0.0012  0.0283  0.0000  0.0000  0.0000  0.0000  0.0000 </r>
       </set>
       <set comment="band 3">
        <r>  0.0026  0.0001  0.1602  0.0148  0.0000  0.0000  0.0000  0.0000  0.0000 </r>
        <r>  0.0024  0.0005  0.1601  0.0157  0.0000  0.0000  0.0000  0.0000  0.0000 </r>
       </set>
       <set comment="band 4">
        <r>  0.0024  0.1170  0.0038  0.0555  0.0000  0.0000  0.0000  0.0000  0.0000 </r>
        <r>  0.0026  0.1166  0.0038  0.0546  0.0000  0.0000  0.0000  0.0000  0.0000 </r>
       </set>
       <set comment="band 5">
        <r>  0.0352  0.0107  0.0091  0.0432  0.0000  0.0000  0.0000  0.0000  0.0000 </r>
        <r>  0.0504  0.0081  0.0102  0.0368  0.0000  0.0000  0.0000  0.0000  0.0000 </r>
       </set>
       <set comment="band 6">
        <r>  0.0504  0.0286  0.0212  0.0052  0.0000  0.0000  0.0000  0.0000  0.0000 </r>
        <r>  0.0352  0.0313  0.0201  0.0117  0.0000  0.0000  0.0000  0.0000  0.0000 </r>
       </set>
       <set comment="band 7">
        <r>  0.0025  0.0362  0.0363  0.0613  0.0000  0.0000  0.0000  0.0000  0.0000 </r>
        <r>  0.0314  0.0390  0.0612  0.0420  0.0000  0.0000  0.0000  0.0000  0.0000 </r>
       </set>
       <set comment="band 8">
        <r>  0.0314  0.0558  0.0774  0.0089  0.0000  0.0000  0.0000  0.0000  0.0000 </r>
        <r>  0.0025  0.0530  0.0525  0.0283  0.0000  0.0000  0.0000  0.0000  0.0000 </r>
       </set>
       <set comment="band 9">
        <r>  0.0001  0.0694  0.0537  0.0420  0.0000  0.0000  0.0000  0.0000  0.0000 </r>
        <r>  0.0017  0.0351  0.0178  0.0094  0.0000  0.0000  0.0000  0.0000  0.0000 </r>
       </set>
      </set>
      <set comment="kpoint 45">
       <set comment="band 1">
        <r>  0.2071  0.0053  0.0037  0.0199  0.0000  0.0000  0.0000  0.0000  0.0000 </r>
        <r>  0.2071  0.0053  0.0037  0.0199  0.0000  0.0000  0.0000  0.0000  0.0000 </r>
       </set>
       <set comment="band 2">
        <r>  0.1869  0.0131  0.0138  0.0317  0.0000  0.0000  0.0000  0.0000  0.0000 </r>
        <r>  0.1869  0.0131  0.0138  0.0317  0.0000  0.0000  0.0000  0.0000  0.0000 </r>
       </set>
       <set comment="band 3">
        <r>  0.0067  0.0257  0.0643  0.0654  0.0000  0.0000  0.0000  0.0000  0.0000 </r>
        <r>  0.0067  0.0257  0.0643  0.0654  0.0000  0.0000  0.0000  0.0000  0.0000 </r>
       </set>
       <set comment="band 4">
        <r>  0.0016  0.1006  0.0610  0.0106  0.0000  0.0000  0.0000  0.0000  0.0000 </r>
        <r>  0.0016  0.1006  0.0610  0.0106  0.0000  0.0000  0.0000  0.0000  0.0000 </r>
       </set>
       <set comment="band 5">
        <r>  0.0272  0.0553  0.0338  0.0077  0.0000  0.0000  0.0000  0.0000  0.0000 </r>
        <r>  0.0272  0.0553  0.0338  0.0077  0.0000  0.0000  0.0000  0.0000  0.0000 </r>
       </set>
       <set comment="band 6">
        <r>  0.0091  0.0120  0.0338  0.0269  0.0000  0.0000  0.0000  0.0000  0.0000 </r>
        <r>  0.0091  0.0120  0.0338  0.0269  0.0000  0.0000  0.0000  0.0000  0.0000 </r>
       </set>
       <set comment="band 7">
        <r>  0.0664  0.0466  0.0321  0.0194  0.0000  0.0000  0.0000  0.0000  0.0000 </r>
        <r>  0.0664  0.0466  0.0321  0.0194  0.0000  0.0000  0.0000  0.0000  0.0000 </r>
       </set>
       <set comment="band 8">
        <r>  0.0195  0.0095  0.0364  0.0720  0.0000  0.0000  0.0000  0.0000  0.0000 </r>
        <r>  0.0195  0.0095  0.0364  0.0720  0.0000  0.0000  0.0000  0.0000  0.0000 </r>
       </set>
       <set comment="band 9">
        <r>  0.0033  0.0675  0.0592  0.0145  0.0000  0.0000  0.0000  0.0000  0.0000 </r>
        <r>  0.0033  0.0675  0.0592  0.0145  0.0000  0.0000  0.0000  0.0000  0.0000 </r>
       </set>
      </set>
      <set comment="kpoint 46">
       <set comment="band 1">
        <r>  0.2111  0.0114  0.0055  0.0148  0.0000  0.0000  0.0000  0.0000  0.0000 </r>
        <r>  0.2111  0.0114  0.0055  0.0148  0.0000  0.0000  0.0000  0.0000  0.0000 </r>
       </set>
       <set comment="band 2">
        <r>  0.1887  0.0121  0.0070  0.0340  0.0000  0.0000  0.0000  0.0000  0.0000 </r>
        <r>  0.1887  0.0121  0.0070  0.0340  0.0000  0.0000  0.0000  0.0000  0.0000 </r>
       </set>
       <set comment="band 3">
        <r>  0.0051  0.0627  0.0230  0.0680  0.0000  0.0000  0.0000  0.0000  0.0000 </r>
        <r>  0.0051  0.0627  0.0230  0.0680  0.0000  0.0000  0.0000  0.0000  0.0000 </r>
       </set>
       <set comment="band 4">
        <r>  0.0009  0.0497  0.1086  0.0104  0.0000  0.0000  0.0000  0.0000  0.0000 </r>
        <r>  0.0009  0.0497  0.1086  0.0104  0.0000  0.0000  0.0000  0.0000  0.0000 </r>
       </set>
       <set comment="band 5">
        <r>  0.0069  0.0303  0.0523  0.0029  0.0000  0.0000  0.0000  0.0000  0.0000 </r>
        <r>  0.0069  0.0303  0.0523  0.0029  0.0000  0.0000  0.0000  0.0000  0.0000 </r>
       </set>
       <set comment="band 6">
        <r>  0.0488  0.0305  0.0519  0.0096  0.0000  0.0000  0.0000  0.0000  0.0000 </r>
        <r>  0.0488  0.0305  0.0519  0.0096  0.0000  0.0000  0.0000  0.0000  0.0000 </r>
       </set>
       <set comment="band 7">
        <r>  0.0239  0.0260  0.0117  0.0511  0.0000  0.0000  0.0000  0.0000  0.0000 </r>
        <r>  0.0239  0.0260  0.0117  0.0511  0.0000  0.0000  0.0000  0.0000  0.0000 </r>
       </set>
       <set comment="band 8">
        <r>  0.0433  0.0426  0.0160  0.0564  0.0000  0.0000  0.0000  0.0000  0.0000 </r>
        <r>  0.0433  0.0426  0.0160  0.0564  0.0000  0.0000  0.0000  0.0000  0.0000 </r>
       </set>
       <set comment="band 9">
        <r>  0.0089  0.0651  0.0606  0.0080  0.0000  0.0000  0.0000  0.0000  0.0000 </r>
        <r>  0.0089  0.0651  0.0606  0.0080  0.0000  0.0000  0.0000  0.0000  0.0000 </r>
       </set>
      </set>
      <set comment="kpoint 47">
       <set comment="band 1">
        <r>  0.2054  0.0136  0.0067  0.0204  0.0000  0.0000  0.0000  0.0000  0.0000 </r>
        <r>  0.2005  0.0139  0.0069  0.0209  0.0000  0.0000  0.0000  0.0000  0.0000 </r>
       </set>
       <set comment="band 2">
        <r>  0.2005  0.0139  0.0062  0.0217  0.0000  0.0000  0.0000  0.0000  0.0000 </r>
        <r>  0.2054  0.0136  0.0060  0.0212  0.0000  0.0000  0.0000  0.0000  0.0000 </r>
       </set>
       <set comment="band 3">
        <r>  0.0007  0.0010  0.1133  0.0483  0.0000  0.0000  0.0000  0.0000  0.0000 </r>
        <r>  0.0008  0.0001  0.1141  0.0459  0.0000  0.0000  0.0000  0.0000  0.0000 </r>
       </set>
       <set comment="band 4">
        <r>  0.0008  0.1066  0.0148  0.0387  0.0000  0.0000  0.0000  0.0000  0.0000 </r>
        <r>  0.0007  0.1074  0.0141  0.0411  0.0000  0.0000  0.0000  0.0000  0.0000 </r>
       </set>
       <set comment="band 5">
        <r>  0.0392  0.0053  0.0516  0.0304  0.0000  0.0000  0.0000  0.0000  0.0000 </r>
        <r>  0.0150  0.0025  0.0392  0.0372  0.0000  0.0000  0.0000  0.0000  0.0000 </r>
       </set>
       <set comment="band 6">
        <r>  0.0150  0.0501  0.0131  0.0157  0.0000  0.0000  0.0000  0.0000  0.0000 </r>
        <r>  0.0392  0.0529  0.0256  0.0089  0.0000  0.0000  0.0000  0.0000  0.0000 </r>
       </set>
       <set comment="band 7">
        <r>  0.0635  0.0423  0.0358  0.0043  0.0000  0.0000  0.0000  0.0000  0.0000 </r>
        <r>  0.0052  0.0590  0.0306  0.0430  0.0000  0.0000  0.0000  0.0000  0.0000 </r>
       </set>
       <set comment="band 8">
        <r>  0.0052  0.0294  0.0360  0.0672  0.0000  0.0000  0.0000  0.0000  0.0000 </r>
        <r>  0.0635  0.0127  0.0412  0.0285  0.0000  0.0000  0.0000  0.0000  0.0000 </r>
       </set>
       <set comment="band 9">
        <r>  0.0001  0.0235  0.0283  0.0366  0.0000  0.0000  0.0000  0.0000  0.0000 </r>
        <r>  0.0000  0.0539  0.0454  0.0803  0.0000  0.0000  0.0000  0.0000  0.0000 </r>
       </set>
      </set>
     </set>
    </set>
   </array>
  </projected>
 </calculation>
 <structure name="finalpos" >
  <crystal>
   <varray name="basis" >
    <v>       3.34889828       0.00000000       1.93348733 </v>
    <v>       1.11629943       3.15737158       1.93348733 </v>
    <v>       0.00000000       0.00000000       3.86697465 </v>
   </varray>
   <i name="volume">     40.88829275 </i>
   <varray name="rec_basis" >
    <v>       0.29860567      -0.10557305       0.00000000 </v>
    <v>       0.00000000       0.31671914       0.00000000 </v>
    <v>      -0.14930283      -0.10557305       0.25860009 </v>
   </varray>
  </crystal>
  <varray name="positions" >
   <v>       0.25000000       0.25000000       0.25000000 </v>
   <v>       0.00000000       0.00000000       0.00000000 </v>
  </varray>
 </structure>
</modeling>
