2
Lattice="3.348898282690438 0.0 1.9334873250000004 1.1162994275634794 3.1573715802591895 1.9334873250000004 0.0 0.0 3.86697465" Properties=species:S:1:pos:R:3:forces:R:3:magmoms:R:1 energy=-10.6275053024292 free_energy=-10.6275053024292 stress="0.0016163771506398916 4.027308708742794e-09 7.313006644693587e-09 3.780080692905585e-09 0.0016164126573130488 -4.733832437153751e-09 8.263523199047995e-09 -3.811560400635017e-09 0.0016164042754098773" pbc="T T T"
Si       1.11629943       0.78934290       1.93348733       0.00000128       0.00000054       0.00000217       0.00303593
Si       0.00000000       0.00000000       0.00000000      -0.00000123      -0.00000052      -0.00000215       0.00303593
5
Lattice="4.036095543281477 8.287522100003646e-33 2.4713957440662793e-16 -3.763379955891097e-32 4.036095543281477 2.4983806543231e-16 -2.4713957440662793e-16 -2.4444108338094586e-16 4.036095543281477" Properties=species:S:1:pos:R:3:oxi_states:R:1:forces:R:3:magmoms:R:1 energy=-42.016892433166504 free_energy=-42.016892433166504 stress="-8.52626035339199e-05 8.329843126375636e-08 1.0102149872182054e-07 7.555173908713186e-08 -8.547665493097156e-05 -8.735759138289723e-08 9.550448254458388e-08 -7.906776744448507e-08 -8.548099867766723e-05" pbc="T T T"
Ba       2.01804777       2.01804777       2.01804777       2.00000000       0.00000077       0.00000060      -0.00000054       0.01604532
Ti       0.00000000       0.00000000       0.00000000       4.00000000       0.00000017      -0.00000004       0.00000005       0.10147791
O        2.01804777       0.00000000       0.00000000      -2.00000000       0.00000020      -0.00000010       0.00000089       0.00899076
O       -0.00000000       2.01804777       0.00000000      -2.00000000       0.00000042      -0.00000015      -0.00000027       0.00899090
O       -0.00000000      -0.00000000       2.01804777      -2.00000000      -0.00000139      -0.00000046       0.00000002       0.00899087
5
Lattice="4.1883088593916185 3.838844888010981e-06 7.389632306538722e-06 3.977986055520092e-06 4.00468341636625 1.442844881974897e-07 7.625628211733861e-06 1.4428462592790603e-07 4.004681974550854" Properties=species:S:1:pos:R:3:oxi_states:R:1:forces:R:3:magmoms:R:1 energy=-42.07599639892578 free_energy=-42.07599639892578 stress="-0.00044719374272972345 -4.367848305264488e-06 -1.4921670299372636e-05 -4.385250576888211e-06 8.884070120984688e-05 -2.1339987199553434e-07 -1.4933822967577726e-05 -2.048340519422709e-07 9.06121131265536e-05" pbc="T T T"
Ba       2.17491108       2.00235718       2.00238366       2.00000000       0.00704256       0.00013739       0.00037417       0.01453036
Ti       0.14168370       0.00010511       0.00030506       4.00000000       0.00566936       0.00111778       0.00323611       0.06393919
O        1.96946679      -0.00007682      -0.00022572      -2.00000000      -0.00385383      -0.00086482      -0.00247725       0.00131722
O       -0.04677662       2.00230242      -0.00000131      -2.00000000      -0.00440706      -0.00039077      -0.00000216       0.00577754
O       -0.04677617      -0.00000057       2.00222790      -2.00000000      -0.00445132       0.00000068      -0.00113061       0.00577763
5
Lattice="4.036095595961351 3.0759087385731083e-33 2.4713957763233983e-16 -1.0944452181633268e-32 4.036095595961351 2.4713957763233983e-16 -2.4713957763233983e-16 -2.471395776323398e-16 4.036095595961351" Properties=species:S:1:pos:R:3:oxi_states:R:1:forces:R:3:magmoms:R:1 energy=-42.016892433166504 free_energy=-42.016892433166504 stress="-8.558442641515285e-05 8.43561025476447e-08 7.9639477235105e-08 7.392235801262359e-08 -8.557413093512878e-05 1.9555406538529496e-07 7.257883538613896e-08 1.926383532691034e-07 -8.556935790693387e-05" pbc="T T T"
Ba       2.01804780       2.01804780       2.01804780       2.00000000      -0.00000116      -0.00000000       0.00000137       0.01604539
Ti       0.00000000       0.00000000       0.00000000       4.00000000      -0.00000004      -0.00000015      -0.00000017       0.10147783
O        2.01804780       0.00000000       0.00000000      -2.00000000      -0.00000132       0.00000173       0.00000175       0.00899090
O       -0.00000000       2.01804780       0.00000000      -2.00000000       0.00000123      -0.00000544      -0.00000312       0.00899085
O       -0.00000000      -0.00000000       2.01804780      -2.00000000       0.00000177       0.00000364       0.00000013       0.00899079
2
Lattice="3.3433856941434406 -0.007203811140551641 1.8936387477193726 1.1076700254840555 3.154574961928346 1.8936388523463905 -0.03761184238057015 -0.026595492487111926 3.856593806385055" Properties=species:S:1:pos:R:3:forces:R:3:magmoms:R:1 energy=-10.623318672180176 free_energy=-10.623318672180176 stress="0.0027944736648350954 0.000807223841547966 -0.004313268233090639 0.0008072232594713569 0.002223770599812269 -0.0030499035492539406 -0.004313270095735788 -0.0030499068088829517 0.0007361712050624192" pbc="T T T"
Si       1.10586010       0.78196105       2.11478910      -0.05335491      -0.03772673      -0.07799053       0.00251670
Si      -0.00626031      -0.00442668       0.18183812       0.05335493       0.03772674       0.07799055       0.00251670
2
Lattice="3.348898282690438 0.0 1.9334873250000004 1.1162994275634794 3.1573715802591895 1.9334873250000004 0.0 0.0 3.86697465" Properties=species:S:1:pos:R:3:forces:R:3:magmoms:R:1 energy=-10.62746810913086 free_energy=-10.62746810913086 stress="0.001611194689758122 -6.065644629416056e-05 2.5777258088055532e-06 -6.0657490394078195e-05 0.0016540243523195386 1.8041904468191206e-06 2.5755575734365266e-06 1.804686007744749e-06 0.0015116761205717921" pbc="T T T"
Si       1.11525230       0.78860243       2.12691738       0.02196105       0.01552795      -0.00188523       0.00303558
Si       0.00104714       0.00074046       0.19326743      -0.02196106      -0.01552793       0.00188525       0.00303556
32
Lattice="9.414879595439329 0.0 5.764951080456251e-16 -5.764951080456251e-16 9.414879595439329 5.764951080456251e-16 0.0 0.0 9.414879595439329" Properties=species:S:1:pos:R:3:stresses:R:6:energies:R:1:forces:R:3 stress="0.0005670723018091794 -1.1573522051913684e-19 1.139724565213325e-19 -1.1573522051913684e-19 0.0005670723018091794 1.2049131815858542e-19 1.139724565213325e-19 1.2049131815858542e-19 0.0005670723018091792" energy=-0.5468220043359697 free_energy=-0.5468220043359697 pbc="T T T"
Ne       0.00000000       0.00000000       0.00000000       0.00001772       0.00001772       0.00001772       0.00000000       0.00000000       0.00000000      -0.01708819      -0.00000000      -0.00000000       0.00000000
Ne       0.00000000       0.00000000       4.70743980       0.00001772       0.00001772       0.00001772      -0.00000000       0.00000000       0.00000000      -0.01708819      -0.00000000      -0.00000000      -0.00000000
Ne       9.41487960       4.70743980       0.00000000       0.00001772       0.00001772       0.00001772       0.00000000      -0.00000000      -0.00000000      -0.01708819      -0.00000000      -0.00000000      -0.00000000
Ne       9.41487960       4.70743980       4.70743980       0.00001772       0.00001772       0.00001772       0.00000000       0.00000000      -0.00000000      -0.01708819      -0.00000000      -0.00000000       0.00000000
Ne       4.70743980       0.00000000       0.00000000       0.00001772       0.00001772       0.00001772       0.00000000       0.00000000      -0.00000000      -0.01708819      -0.00000000      -0.00000000      -0.00000000
Ne       4.70743980       0.00000000       4.70743980       0.00001772       0.00001772       0.00001772       0.00000000       0.00000000      -0.00000000      -0.01708819      -0.00000000      -0.00000000       0.00000000
Ne       4.70743980       4.70743980       0.00000000       0.00001772       0.00001772       0.00001772       0.00000000       0.00000000      -0.00000000      -0.01708819      -0.00000000      -0.00000000       0.00000000
Ne       4.70743980       4.70743980       4.70743980       0.00001772       0.00001772       0.00001772      -0.00000000      -0.00000000      -0.00000000      -0.01708819      -0.00000000      -0.00000000      -0.00000000
Ne       9.41487960       2.35371990       2.35371990       0.00001772       0.00001772       0.00001772      -0.00000000       0.00000000      -0.00000000      -0.01708819      -0.00000000      -0.00000000       0.00000000
Ne       9.41487960       2.35371990       7.06115970       0.00001772       0.00001772       0.00001772      -0.00000000       0.00000000      -0.00000000      -0.01708819      -0.00000000      -0.00000000      -0.00000000
Ne       9.41487960       7.06115970       2.35371990       0.00001772       0.00001772       0.00001772       0.00000000       0.00000000       0.00000000      -0.01708819      -0.00000000       0.00000000      -0.00000000
Ne       9.41487960       7.06115970       7.06115970       0.00001772       0.00001772       0.00001772       0.00000000      -0.00000000       0.00000000      -0.01708819      -0.00000000       0.00000000      -0.00000000
Ne       4.70743980       2.35371990       2.35371990       0.00001772       0.00001772       0.00001772       0.00000000       0.00000000      -0.00000000      -0.01708819      -0.00000000       0.00000000      -0.00000000
Ne       4.70743980       2.35371990       7.06115970       0.00001772       0.00001772       0.00001772       0.00000000      -0.00000000      -0.00000000      -0.01708819      -0.00000000       0.00000000      -0.00000000
Ne       4.70743980       7.06115970       2.35371990       0.00001772       0.00001772       0.00001772      -0.00000000       0.00000000       0.00000000      -0.01708819      -0.00000000       0.00000000       0.00000000
Ne       4.70743980       7.06115970       7.06115970       0.00001772       0.00001772       0.00001772       0.00000000       0.00000000       0.00000000      -0.01708819      -0.00000000       0.00000000      -0.00000000
Ne       2.35371990       0.00000000       2.35371990       0.00001772       0.00001772       0.00001772       0.00000000       0.00000000      -0.00000000      -0.01708819       0.00000000      -0.00000000      -0.00000000
Ne       2.35371990       0.00000000       7.06115970       0.00001772       0.00001772       0.00001772       0.00000000      -0.00000000      -0.00000000      -0.01708819       0.00000000      -0.00000000      -0.00000000
Ne       2.35371990       4.70743980       2.35371990       0.00001772       0.00001772       0.00001772       0.00000000       0.00000000       0.00000000      -0.01708819       0.00000000      -0.00000000      -0.00000000
Ne       2.35371990       4.70743980       7.06115970       0.00001772       0.00001772       0.00001772      -0.00000000       0.00000000       0.00000000      -0.01708819       0.00000000      -0.00000000      -0.00000000
Ne       7.06115970       0.00000000       2.35371990       0.00001772       0.00001772       0.00001772      -0.00000000       0.00000000      -0.00000000      -0.01708819       0.00000000      -0.00000000      -0.00000000
Ne       7.06115970       0.00000000       7.06115970       0.00001772       0.00001772       0.00001772      -0.00000000       0.00000000      -0.00000000      -0.01708819       0.00000000      -0.00000000      -0.00000000
Ne       7.06115970       4.70743980       2.35371990       0.00001772       0.00001772       0.00001772       0.00000000      -0.00000000       0.00000000      -0.01708819       0.00000000      -0.00000000       0.00000000
Ne       7.06115970       4.70743980       7.06115970       0.00001772       0.00001772       0.00001772       0.00000000      -0.00000000       0.00000000      -0.01708819       0.00000000      -0.00000000      -0.00000000
Ne       2.35371990       2.35371990       0.00000000       0.00001772       0.00001772       0.00001772       0.00000000       0.00000000      -0.00000000      -0.01708819       0.00000000       0.00000000      -0.00000000
Ne       2.35371990       2.35371990       4.70743980       0.00001772       0.00001772       0.00001772       0.00000000       0.00000000      -0.00000000      -0.01708819       0.00000000      -0.00000000       0.00000000
Ne       2.35371990       7.06115970       0.00000000       0.00001772       0.00001772       0.00001772       0.00000000      -0.00000000      -0.00000000      -0.01708819       0.00000000       0.00000000       0.00000000
Ne       2.35371990       7.06115970       4.70743980       0.00001772       0.00001772       0.00001772       0.00000000      -0.00000000      -0.00000000      -0.01708819       0.00000000       0.00000000       0.00000000
Ne       7.06115970       2.35371990       0.00000000       0.00001772       0.00001772       0.00001772       0.00000000       0.00000000       0.00000000      -0.01708819       0.00000000       0.00000000       0.00000000
Ne       7.06115970       2.35371990       4.70743980       0.00001772       0.00001772       0.00001772       0.00000000      -0.00000000       0.00000000      -0.01708819       0.00000000       0.00000000       0.00000000
Ne       7.06115970       7.06115970       0.00000000       0.00001772       0.00001772       0.00001772       0.00000000       0.00000000      -0.00000000      -0.01708819       0.00000000       0.00000000      -0.00000000
Ne       7.06115970       7.06115970       4.70743980       0.00001772       0.00001772       0.00001772       0.00000000       0.00000000      -0.00000000      -0.01708819       0.00000000       0.00000000      -0.00000000
32
Lattice="9.910399574146663 0.0 6.068369558375002e-16 -6.068369558375002e-16 9.910399574146663 6.068369558375002e-16 0.0 0.0 9.910399574146663" Properties=species:S:1:pos:R:3:stresses:R:6:energies:R:1:forces:R:3 stress="0.0006196925951730416 -3.204273000957971e-20 3.503802141956312e-20 -3.204273000957971e-20 0.0006196925951730416 3.626274661187967e-20 3.503802141956312e-20 3.626274661187967e-20 0.0006196925951730416" energy=-0.4611376543660335 free_energy=-0.4611376543660335 pbc="T T T"
Ne       0.00000000       0.00000000       0.00000000       0.00001937       0.00001937       0.00001937       0.00000000      -0.00000000       0.00000000      -0.01441055      -0.00000000       0.00000000       0.00000000
Ne       0.00000000       0.00000000       4.95519979       0.00001937       0.00001937       0.00001937      -0.00000000       0.00000000       0.00000000      -0.01441055      -0.00000000       0.00000000      -0.00000000
Ne       9.91039957       4.95519979       0.00000000       0.00001937       0.00001937       0.00001937       0.00000000       0.00000000      -0.00000000      -0.01441055      -0.00000000      -0.00000000       0.00000000
Ne       9.91039957       4.95519979       4.95519979       0.00001937       0.00001937       0.00001937       0.00000000       0.00000000      -0.00000000      -0.01441055      -0.00000000      -0.00000000       0.00000000
Ne       4.95519979       0.00000000       0.00000000       0.00001937       0.00001937       0.00001937       0.00000000       0.00000000      -0.00000000      -0.01441055       0.00000000       0.00000000       0.00000000
Ne       4.95519979       0.00000000       4.95519979       0.00001937       0.00001937       0.00001937       0.00000000       0.00000000      -0.00000000      -0.01441055      -0.00000000       0.00000000       0.00000000
Ne       4.95519979       4.95519979       0.00000000       0.00001937       0.00001937       0.00001937       0.00000000       0.00000000      -0.00000000      -0.01441055      -0.00000000      -0.00000000       0.00000000
Ne       4.95519979       4.95519979       4.95519979       0.00001937       0.00001937       0.00001937       0.00000000       0.00000000      -0.00000000      -0.01441055      -0.00000000      -0.00000000      -0.00000000
Ne       9.91039957       2.47759989       2.47759989       0.00001937       0.00001937       0.00001937       0.00000000       0.00000000      -0.00000000      -0.01441055       0.00000000      -0.00000000       0.00000000
Ne       9.91039957       2.47759989       7.43279968       0.00001937       0.00001937       0.00001937       0.00000000       0.00000000      -0.00000000      -0.01441055       0.00000000       0.00000000      -0.00000000
Ne       9.91039957       7.43279968       2.47759989       0.00001937       0.00001937       0.00001937       0.00000000       0.00000000       0.00000000      -0.01441055      -0.00000000       0.00000000      -0.00000000
Ne       9.91039957       7.43279968       7.43279968       0.00001937       0.00001937       0.00001937       0.00000000      -0.00000000       0.00000000      -0.01441055      -0.00000000      -0.00000000       0.00000000
Ne       4.95519979       2.47759989       2.47759989       0.00001937       0.00001937       0.00001937       0.00000000       0.00000000      -0.00000000      -0.01441055      -0.00000000       0.00000000      -0.00000000
Ne       4.95519979       2.47759989       7.43279968       0.00001937       0.00001937       0.00001937       0.00000000       0.00000000      -0.00000000      -0.01441055      -0.00000000      -0.00000000      -0.00000000
Ne       4.95519979       7.43279968       2.47759989       0.00001937       0.00001937       0.00001937       0.00000000       0.00000000      -0.00000000      -0.01441055       0.00000000      -0.00000000       0.00000000
Ne       4.95519979       7.43279968       7.43279968       0.00001937       0.00001937       0.00001937       0.00000000       0.00000000      -0.00000000      -0.01441055       0.00000000      -0.00000000      -0.00000000
Ne       2.47759989       0.00000000       2.47759989       0.00001937       0.00001937       0.00001937       0.00000000       0.00000000      -0.00000000      -0.01441055      -0.00000000      -0.00000000      -0.00000000
Ne       2.47759989       0.00000000       7.43279968       0.00001937       0.00001937       0.00001937       0.00000000       0.00000000      -0.00000000      -0.01441055       0.00000000       0.00000000      -0.00000000
Ne       2.47759989       4.95519979       2.47759989       0.00001937       0.00001937       0.00001937       0.00000000       0.00000000      -0.00000000      -0.01441055       0.00000000       0.00000000      -0.00000000
Ne       2.47759989       4.95519979       7.43279968       0.00001937       0.00001937       0.00001937      -0.00000000       0.00000000      -0.00000000      -0.01441055       0.00000000       0.00000000      -0.00000000
Ne       7.43279968       0.00000000       2.47759989       0.00001937       0.00001937       0.00001937       0.00000000       0.00000000      -0.00000000      -0.01441055       0.00000000      -0.00000000      -0.00000000
Ne       7.43279968       0.00000000       7.43279968       0.00001937       0.00001937       0.00001937      -0.00000000       0.00000000      -0.00000000      -0.01441055      -0.00000000      -0.00000000      -0.00000000
Ne       7.43279968       4.95519979       2.47759989       0.00001937       0.00001937       0.00001937       0.00000000      -0.00000000      -0.00000000      -0.01441055      -0.00000000      -0.00000000       0.00000000
Ne       7.43279968       4.95519979       7.43279968       0.00001937       0.00001937       0.00001937       0.00000000       0.00000000      -0.00000000      -0.01441055      -0.00000000       0.00000000      -0.00000000
Ne       2.47759989       2.47759989       0.00000000       0.00001937       0.00001937       0.00001937       0.00000000       0.00000000      -0.00000000      -0.01441055      -0.00000000       0.00000000       0.00000000
Ne       2.47759989       2.47759989       4.95519979       0.00001937       0.00001937       0.00001937       0.00000000       0.00000000      -0.00000000      -0.01441055      -0.00000000      -0.00000000       0.00000000
Ne       2.47759989       7.43279968       0.00000000       0.00001937       0.00001937       0.00001937      -0.00000000       0.00000000      -0.00000000      -0.01441055      -0.00000000      -0.00000000       0.00000000
Ne       2.47759989       7.43279968       4.95519979       0.00001937       0.00001937       0.00001937       0.00000000       0.00000000      -0.00000000      -0.01441055       0.00000000      -0.00000000       0.00000000
Ne       7.43279968       2.47759989       0.00000000       0.00001937       0.00001937       0.00001937       0.00000000       0.00000000       0.00000000      -0.01441055       0.00000000      -0.00000000       0.00000000
Ne       7.43279968       2.47759989       4.95519979       0.00001937       0.00001937       0.00001937       0.00000000      -0.00000000      -0.00000000      -0.01441055       0.00000000       0.00000000       0.00000000
Ne       7.43279968       7.43279968       0.00000000       0.00001937       0.00001937       0.00001937       0.00000000       0.00000000      -0.00000000      -0.01441055       0.00000000       0.00000000      -0.00000000
Ne       7.43279968       7.43279968       4.95519979       0.00001937       0.00001937       0.00001937       0.00000000      -0.00000000      -0.00000000      -0.01441055       0.00000000      -0.00000000      -0.00000000
32
Lattice="10.405919552853996 0.0 6.371788036293752e-16 -6.371788036293752e-16 10.405919552853996 6.371788036293752e-16 0.0 0.0 10.405919552853996" Properties=species:S:1:pos:R:3:stresses:R:6:energies:R:1:forces:R:3 stress="0.0005162444869168554 -7.935669272141894e-21 7.447280094041498e-21 -7.935669272141894e-21 0.0005162444869168554 5.073969136405478e-21 7.447280094041498e-21 5.073969136405478e-21 0.0005162444869168554" energy=-0.3735370146616402 free_energy=-0.3735370146616402 pbc="T T T"
Ne       0.00000000       0.00000000       0.00000000       0.00001613       0.00001613       0.00001613      -0.00000000      -0.00000000      -0.00000000      -0.01167303      -0.00000000       0.00000000       0.00000000
Ne       0.00000000       0.00000000       5.20295978       0.00001613       0.00001613       0.00001613       0.00000000       0.00000000       0.00000000      -0.01167303      -0.00000000       0.00000000      -0.00000000
Ne      10.40591955       5.20295978       0.00000000       0.00001613       0.00001613       0.00001613      -0.00000000       0.00000000       0.00000000      -0.01167303       0.00000000      -0.00000000       0.00000000
Ne      10.40591955       5.20295978       5.20295978       0.00001613       0.00001613       0.00001613      -0.00000000       0.00000000       0.00000000      -0.01167303      -0.00000000      -0.00000000      -0.00000000
Ne       5.20295978       0.00000000       0.00000000       0.00001613       0.00001613       0.00001613       0.00000000       0.00000000      -0.00000000      -0.01167303      -0.00000000      -0.00000000       0.00000000
Ne       5.20295978       0.00000000       5.20295978       0.00001613       0.00001613       0.00001613       0.00000000       0.00000000       0.00000000      -0.01167303      -0.00000000      -0.00000000      -0.00000000
Ne       5.20295978       5.20295978       0.00000000       0.00001613       0.00001613       0.00001613       0.00000000       0.00000000      -0.00000000      -0.01167303      -0.00000000      -0.00000000       0.00000000
Ne       5.20295978       5.20295978       5.20295978       0.00001613       0.00001613       0.00001613       0.00000000       0.00000000      -0.00000000      -0.01167303      -0.00000000      -0.00000000      -0.00000000
Ne      10.40591955       2.60147989       2.60147989       0.00001613       0.00001613       0.00001613       0.00000000       0.00000000       0.00000000      -0.01167303      -0.00000000      -0.00000000      -0.00000000
Ne      10.40591955       2.60147989       7.80443966       0.00001613       0.00001613       0.00001613      -0.00000000       0.00000000       0.00000000      -0.01167303      -0.00000000      -0.00000000       0.00000000
Ne      10.40591955       7.80443966       2.60147989       0.00001613       0.00001613       0.00001613      -0.00000000      -0.00000000       0.00000000      -0.01167303       0.00000000       0.00000000      -0.00000000
Ne      10.40591955       7.80443966       7.80443966       0.00001613       0.00001613       0.00001613      -0.00000000       0.00000000      -0.00000000      -0.01167303       0.00000000       0.00000000       0.00000000
Ne       5.20295978       2.60147989       2.60147989       0.00001613       0.00001613       0.00001613       0.00000000       0.00000000       0.00000000      -0.01167303       0.00000000      -0.00000000      -0.00000000
Ne       5.20295978       2.60147989       7.80443966       0.00001613       0.00001613       0.00001613      -0.00000000      -0.00000000       0.00000000      -0.01167303       0.00000000      -0.00000000       0.00000000
Ne       5.20295978       7.80443966       2.60147989       0.00001613       0.00001613       0.00001613      -0.00000000       0.00000000      -0.00000000      -0.01167303      -0.00000000       0.00000000      -0.00000000
Ne       5.20295978       7.80443966       7.80443966       0.00001613       0.00001613       0.00001613       0.00000000      -0.00000000      -0.00000000      -0.01167303      -0.00000000       0.00000000       0.00000000
Ne       2.60147989       0.00000000       2.60147989       0.00001613       0.00001613       0.00001613       0.00000000       0.00000000      -0.00000000      -0.01167303       0.00000000       0.00000000      -0.00000000
Ne       2.60147989       0.00000000       7.80443966       0.00001613       0.00001613       0.00001613      -0.00000000       0.00000000      -0.00000000      -0.01167303      -0.00000000       0.00000000       0.00000000
Ne       2.60147989       5.20295978       2.60147989       0.00001613       0.00001613       0.00001613      -0.00000000      -0.00000000      -0.00000000      -0.01167303      -0.00000000       0.00000000       0.00000000
Ne       2.60147989       5.20295978       7.80443966       0.00001613       0.00001613       0.00001613       0.00000000       0.00000000      -0.00000000      -0.01167303       0.00000000       0.00000000      -0.00000000
Ne       7.80443966       0.00000000       2.60147989       0.00001613       0.00001613       0.00001613      -0.00000000       0.00000000       0.00000000      -0.01167303      -0.00000000       0.00000000      -0.00000000
Ne       7.80443966       0.00000000       7.80443966       0.00001613       0.00001613       0.00001613       0.00000000      -0.00000000      -0.00000000      -0.01167303       0.00000000       0.00000000      -0.00000000
Ne       7.80443966       5.20295978       2.60147989       0.00001613       0.00001613       0.00001613      -0.00000000       0.00000000      -0.00000000      -0.01167303      -0.00000000      -0.00000000       0.00000000
Ne       7.80443966       5.20295978       7.80443966       0.00001613       0.00001613       0.00001613       0.00000000       0.00000000      -0.00000000      -0.01167303      -0.00000000      -0.00000000       0.00000000
Ne       2.60147989       2.60147989       0.00000000       0.00001613       0.00001613       0.00001613       0.00000000       0.00000000      -0.00000000      -0.01167303      -0.00000000      -0.00000000       0.00000000
Ne       2.60147989       2.60147989       5.20295978       0.00001613       0.00001613       0.00001613      -0.00000000       0.00000000      -0.00000000      -0.01167303      -0.00000000      -0.00000000      -0.00000000
Ne       2.60147989       7.80443966       0.00000000       0.00001613       0.00001613       0.00001613      -0.00000000       0.00000000       0.00000000      -0.01167303      -0.00000000       0.00000000       0.00000000
Ne       2.60147989       7.80443966       5.20295978       0.00001613       0.00001613       0.00001613       0.00000000       0.00000000       0.00000000      -0.01167303      -0.00000000       0.00000000       0.00000000
Ne       7.80443966       2.60147989       0.00000000       0.00001613       0.00001613       0.00001613       0.00000000       0.00000000       0.00000000      -0.01167303       0.00000000      -0.00000000       0.00000000
Ne       7.80443966       2.60147989       5.20295978       0.00001613       0.00001613       0.00001613      -0.00000000      -0.00000000      -0.00000000      -0.01167303      -0.00000000      -0.00000000       0.00000000
Ne       7.80443966       7.80443966       0.00000000       0.00001613       0.00001613       0.00001613       0.00000000      -0.00000000      -0.00000000      -0.01167303       0.00000000       0.00000000       0.00000000
Ne       7.80443966       7.80443966       5.20295978       0.00001613       0.00001613       0.00001613       0.00000000      -0.00000000      -0.00000000      -0.01167303      -0.00000000      -0.00000000      -0.00000000
32
Lattice="8.853639149693764 0.0 5.421290422739082e-16 -5.421290422739082e-16 8.853639149693764 5.421290422739082e-16 0.0 0.0 8.853639149693764" Properties=species:S:1:pos:R:3:stresses:R:6:energies:R:1:forces:R:3 stress="-0.00019532831366410615 -4.772153291993979e-19 3.593009894220615e-19 -4.772153291993979e-19 -0.00019532831366410598 3.99248673174065e-19 3.593009894220615e-19 3.99248673174065e-19 -0.00019532831366410636" energy=-0.5901742325622779 free_energy=-0.5901742325622779 pbc="T T T"
Ne       0.00000000       0.00000000       0.00000000      -0.00000610      -0.00000610      -0.00000610       0.00000000      -0.00000000      -0.00000000      -0.01844294       0.00000000       0.00000000       0.00000000
Ne       0.00000000       0.00000000       4.42681957      -0.00000610      -0.00000610      -0.00000610      -0.00000000       0.00000000       0.00000000      -0.01844294       0.00000000       0.00000000       0.00000000