Ne
1.0
13.799999999999999 -8.450062914116737e-16 8.450062914116737e-16
0.0 13.799999999999999 8.450062914116737e-16
0.0 0.0 13.799999999999999
Ne
108
Direct configuration=     1
-0.001125 -0.000414 -0.001152 Ne
0.001156 -0.000830 0.333658 Ne
-0.000276 0.000280 0.667115 Ne
-0.000022 0.333321 0.999845 Ne
-0.000293 0.334194 0.332532 Ne
0.001671 0.332996 0.664082 Ne
0.001390 0.666515 1.000032 Ne
-0.000822 0.666581 0.333576 Ne
-0.000506 0.667634 0.665897 Ne
0.331616 -0.000479 0.998886 Ne
0.334722 -0.001060 0.333610 Ne
0.333575 -0.000305 0.666785 Ne
0.332517 0.334398 1.001957 Ne
0.332594 0.333460 0.332501 Ne
0.334517 0.331831 0.667340 Ne
0.334914 0.666291 0.999728 Ne
0.333119 0.668309 0.334618 Ne
0.332187 0.665717 0.667521 Ne
0.666992 0.000908 1.000101 Ne
0.666280 0.001328 0.334763 Ne
0.665550 -0.000180 0.667260 Ne
0.667654 0.333813 1.000323 Ne
0.665121 0.333402 0.333618 Ne
0.664661 0.332594 0.666820 Ne
0.665718 0.665690 0.999581 Ne
0.667165 0.664724 0.332941 Ne
0.666980 0.666223 0.664825 Ne
0.000553 0.167428 0.167026 Ne
0.000931 0.165067 0.500764 Ne
-0.000679 0.166873 0.832584 Ne
0.000379 0.498473 0.166342 Ne
0.000471 0.499651 0.499184 Ne
0.000521 0.500407 0.831731 Ne
0.001059 0.833110 0.166708 Ne
-0.000633 0.833111 0.499706 Ne
-0.001037 0.833166 0.833006 Ne
0.333570 0.167846 0.167248 Ne
0.332262 0.166816 0.499487 Ne
0.334204 0.165952 0.833546 Ne
0.333755 0.500402 0.169035 Ne
0.333431 0.500507 0.500679 Ne
0.335397 0.500483 0.832942 Ne
0.333597 0.832847 0.166647 Ne
0.332132 0.833166 0.498272 Ne
0.332652 0.834583 0.833407 Ne
0.667201 0.166012 0.166750 Ne
0.668624 0.168037 0.498619 Ne
0.668679 0.166895 0.834159 Ne
0.665857 0.500407 0.166229 Ne
0.665873 0.499369 0.501338 Ne
0.665974 0.499665 0.832660 Ne
0.666671 0.833268 0.167837 Ne
0.667601 0.832795 0.500954 Ne
0.667251 0.834196 0.833060 Ne
0.167236 -0.000148 0.166991 Ne
0.165562 0.000382 0.500635 Ne
0.165318 0.000475 0.833315 Ne
0.165876 0.333807 0.166870 Ne
0.168019 0.332947 0.499546 Ne
0.168273 0.334426 0.833539 Ne
0.166262 0.666876 0.165905 Ne
0.167615 0.666867 0.501270 Ne
0.167037 0.665703 0.832700 Ne
0.499218 0.000382 0.167680 Ne
0.499644 0.000360 0.500053 Ne
0.500562 0.000218 0.833377 Ne
0.499622 0.333872 0.167022 Ne
0.500148 0.334677 0.499628 Ne
0.499019 0.333082 0.833431 Ne
0.500142 0.667735 0.164233 Ne
0.500822 0.665851 0.500857 Ne
0.500162 0.667514 0.833240 Ne
0.835845 -0.000757 0.164174 Ne
0.833201 0.000121 0.499534 Ne
0.833481 -0.000255 0.833679 Ne
0.832768 0.334179 0.166859 Ne
0.832925 0.334024 0.500280 Ne
0.835115 0.334271 0.832671 Ne
0.832580 0.669396 0.165652 Ne
0.834013 0.665670 0.499969 Ne
0.833548 0.667138 0.832433 Ne
0.164414 0.166456 1.000003 Ne
0.166884 0.166557 0.332928 Ne
0.165274 0.166900 0.666563 Ne
0.166992 0.497423 0.999639 Ne
0.165355 0.501269 0.332989 Ne
0.166494 0.500339 0.666225 Ne
0.165314 0.833936 0.999632 Ne
0.166625 0.833628 0.335857 Ne
0.167058 0.834331 0.667713 Ne
0.500567 0.168358 1.000292 Ne
0.499441 0.165791 0.333385 Ne
0.498898 0.165734 0.666991 Ne
0.500977 0.499196 1.000329 Ne
0.502132 0.498221 0.333352 Ne
0.497969 0.500136 0.666345 Ne
0.498666 0.832569 0.999769 Ne
0.501110 0.833576 0.334461 Ne
0.498355 0.832356 0.667496 Ne
0.834382 0.167636 1.000567 Ne
0.832907 0.166248 0.333904 Ne
0.833692 0.166006 0.666067 Ne
0.833758 0.499833 1.000888 Ne
0.835183 0.499268 0.333010 Ne
0.833766 0.500020 0.667119 Ne
0.831042 0.831624 0.999209 Ne
0.832274 0.832685 0.332108 Ne
0.833112 0.833622 0.668929 Ne
Ne
1.0
13.799999999999999 -8.450062914116737e-16 8.450062914116737e-16
0.0 13.799999999999999 8.450062914116737e-16
0.0 0.0 13.799999999999999
Ne
108
Direct configuration=     2
-0.002251 -0.000828 -0.002303 Ne
0.002312 -0.001661 0.333982 Ne
-0.000552 0.000560 0.667563 Ne
-0.000044 0.333310 0.999690 Ne
-0.000587 0.335055 0.331730 Ne
0.003342 0.332658 0.661497 Ne
0.002779 0.666363 1.000065 Ne
-0.001644 0.666496 0.333818 Ne
-0.001012 0.668602 0.665127 Ne
0.329899 -0.000958 0.997772 Ne
0.336111 -0.002120 0.333886 Ne
0.333817 -0.000610 0.666903 Ne
0.331701 0.335463 1.003915 Ne
0.331855 0.333586 0.331668 Ne
0.335701 0.330329 0.668013 Ne
0.336494 0.665916 0.999457 Ne
0.332905 0.669952 0.335903 Ne
0.331041 0.664768 0.668376 Ne
0.667318 0.001817 1.000201 Ne
0.665893 0.002655 0.336193 Ne
0.664434 -0.000361 0.667853 Ne
0.668640 0.334293 1.000646 Ne
0.663576 0.333471 0.333902 Ne
0.662655 0.331855 0.666973 Ne
0.664769 0.664713 0.999163 Ne
0.667662 0.662781 0.332548 Ne
0.667293 0.665779 0.662984 Ne
0.001105 0.168189 0.167386 Ne
0.001862 0.163468 0.501527 Ne
-0.001358 0.167080 0.831835 Ne
0.000757 0.496945 0.166017 Ne
0.000942 0.499302 0.498368 Ne
0.001042 0.500815 0.830129 Ne
0.002119 0.832888 0.166749 Ne
-0.001267 0.832889 0.499411 Ne
-0.002074 0.832999 0.832679 Ne
0.333806 0.169025 0.167829 Ne
0.331191 0.166966 0.498973 Ne
0.335074 0.165238 0.833758 Ne
0.334177 0.500804 0.171403 Ne
0.333528 0.501015 0.501359 Ne
0.337460 0.500965 0.832551 Ne
0.333861 0.832360 0.166628 Ne
0.330931 0.832998 0.496544 Ne
0.331971 0.835833 0.833480 Ne
0.667734 0.165357 0.166833 Ne
0.670582 0.169407 0.497239 Ne
0.670690 0.167124 0.834986 Ne
0.665047 0.500814 0.165791 Ne
0.665080 0.498738 0.502675 Ne
0.665282 0.499331 0.831986 Ne
0.666675 0.833202 0.169007 Ne
0.668536 0.832257 0.501909 Ne
0.667834 0.835059 0.832787 Ne
0.167805 -0.000297 0.167315 Ne
0.164458 0.000764 0.501269 Ne
0.163970 0.000951 0.833298 Ne
0.165085 0.334281 0.167073 Ne
0.169370 0.332561 0.499091 Ne
0.169879 0.335518 0.833745 Ne
0.165857 0.667085 0.165144 Ne
0.168564 0.667067 0.502539 Ne
0.167407 0.664740 0.832067 Ne
0.498436 0.000764 0.168692 Ne
0.499289 0.000720 0.500106 Ne
0.501125 0.000436 0.833422 Ne
0.499244 0.334411 0.167378 Ne
0.500296 0.336020 0.499257 Ne
0.498038 0.332831 0.833529 Ne
0.500283 0.668804 0.161799 Ne
0.501645 0.665035 0.501713 Ne
0.500323 0.668360 0.833147 Ne
0.838357 -0.001514 0.161682 Ne
0.833068 0.000241 0.499068 Ne
0.833628 -0.000510 0.834025 Ne
0.832202 0.335024 0.167052 Ne
0.832517 0.334714 0.500561 Ne
0.836897 0.335209 0.832009 Ne
0.831828 0.672124 0.164637 Ne
0.834692 0.664673 0.499939 Ne
0.833762 0.667609 0.831534 Ne
0.162161 0.166245 1.000006 Ne
0.167102 0.166448 0.332522 Ne
0.163882 0.167132 0.666459 Ne
0.167317 0.494846 0.999278 Ne
0.164043 0.502537 0.332645 Ne
0.166322 0.500678 0.665784 Ne
0.163961 0.834538 0.999264 Ne
0.166582 0.833922 0.338381 Ne
0.167448 0.835328 0.668759 Ne
0.501134 0.170049 1.000583 Ne
0.498881 0.164915 0.333438 Ne
0.497795 0.164802 0.667316 Ne
0.501953 0.498393 1.000659 Ne
0.504263 0.496443 0.333370 Ne
0.495938 0.500271 0.666023 Ne
0.497331 0.831805 0.999538 Ne
0.502221 0.833819 0.335589 Ne
0.496710 0.831378 0.668326 Ne
0.835431 0.168605 1.001135 Ne
0.832482 0.165829 0.334475 Ne
0.834050 0.165346 0.665467 Ne
0.834182 0.499666 1.001776 Ne
0.837032 0.498537 0.332688 Ne
0.834198 0.500039 0.667572 Ne
0.828750 0.829914 0.998417 Ne
0.831215 0.832037 0.330883 Ne
0.832890 0.833912 0.671191 Ne
Ne
1.0
13.799999999999999 -8.450062914116737e-16 8.450062914116737e-16
0.0 13.799999999999999 8.450062914116737e-16
0.0 0.0 13.799999999999999
Ne
108
Direct configuration=     3
-0.003376 -0.001242 -0.003455 Ne
0.003468 -0.002491 0.334307 Ne
-0.000828 0.000840 0.668011 Ne
-0.000066 0.333298 0.999535 Ne
-0.000880 0.335915 0.330929 Ne
0.005012 0.332320 0.658913 Ne
0.004168 0.666211 1.000097 Ne
-0.002466 0.666410 0.334061 Ne
-0.001518 0.669569 0.664358 Ne
0.328183 -0.001437 0.996658 Ne
0.337500 -0.003180 0.334162 Ne
0.334058 -0.000916 0.667021 Ne
0.330885 0.336527 1.005871 Ne
0.331117 0.333712 0.330836 Ne
0.336885 0.328827 0.668686 Ne
0.338074 0.665540 0.999185 Ne
0.332691 0.671594 0.337187 Ne
0.329895 0.663819 0.669230 Ne
0.667643 0.002725 1.000302 Ne
0.665506 0.003982 0.337622 Ne
0.663319 -0.000541 0.668446 Ne
0.669627 0.334773 1.000969 Ne
0.662032 0.333539 0.334187 Ne
0.660650 0.331115 0.667126 Ne
0.663821 0.663736 0.998744 Ne
0.668160 0.660838 0.332155 Ne
0.667605 0.665336 0.661144 Ne
0.001658 0.168950 0.167746 Ne
0.002793 0.161868 0.502290 Ne
-0.002037 0.167286 0.831086 Ne
0.001136 0.495419 0.165692 Ne
0.001413 0.498953 0.497552 Ne
0.001563 0.501222 0.828528 Ne
0.003178 0.832665 0.166791 Ne
-0.001900 0.832668 0.499117 Ne
-0.003110 0.832832 0.832352 Ne
0.334042 0.170203 0.168409 Ne
0.330120 0.167116 0.498460 Ne
0.335944 0.164524 0.833971 Ne
0.334598 0.501207 0.173771 Ne
0.333626 0.501522 0.502037 Ne
0.339524 0.501447 0.832161 Ne
0.334124 0.831874 0.166608 Ne
0.329730 0.832831 0.494818 Ne
0.331290 0.837082 0.833554 Ne
0.668268 0.164702 0.166916 Ne
0.672539 0.170777 0.495859 Ne
0.672702 0.167352 0.835812 Ne
0.664238 0.501221 0.165353 Ne
0.664288 0.498107 0.504013 Ne
0.664590 0.498996 0.831312 Ne
0.666679 0.833137 0.170177 Ne
0.669471 0.831719 0.502863 Ne
0.668418 0.835921 0.832514 Ne
0.168374 -0.000445 0.167640 Ne
0.163353 0.001146 0.501904 Ne
0.162622 0.001426 0.833280 Ne
0.164294 0.334755 0.167276 Ne
0.170722 0.332175 0.498637 Ne
0.171485 0.336610 0.833950 Ne
0.165452 0.667294 0.164383 Ne
0.169512 0.667268 0.503809 Ne
0.167777 0.663777 0.831434 Ne
0.497653 0.001146 0.169705 Ne
0.498933 0.001080 0.500160 Ne
0.501687 0.000654 0.833466 Ne
0.498866 0.334949 0.167734 Ne
0.500443 0.337362 0.498885 Ne
0.497058 0.332579 0.833627 Ne
0.500424 0.669872 0.159367 Ne
0.502467 0.664219 0.502570 Ne
0.500485 0.669207 0.833054 Ne
0.840868 -0.002271 0.159190 Ne
0.832936 0.000362 0.498602 Ne
0.833776 -0.000765 0.834370 Ne
0.831637 0.335869 0.167245 Ne
0.832109 0.335404 0.500841 Ne
0.838678 0.336146 0.831347 Ne
0.831075 0.674852 0.163622 Ne
0.835371 0.663677 0.499908 Ne
0.833977 0.668080 0.830634 Ne
0.159909 0.166035 1.000009 Ne
0.167319 0.166338 0.332116 Ne
0.162490 0.167365 0.666355 Ne
0.167642 0.492270 0.998918 Ne
0.162732 0.503805 0.332301 Ne
0.166150 0.501017 0.665342 Ne
0.162609 0.835140 0.998896 Ne
0.166540 0.834216 0.340905 Ne
0.167839 0.836325 0.669805 Ne
0.501700 0.171739 1.000875 Ne
0.498322 0.164039 0.333490 Ne
0.496693 0.163870 0.667640 Ne
0.502930 0.497589 1.000988 Ne
0.506394 0.494665 0.333388 Ne
0.493907 0.500407 0.665701 Ne
0.495997 0.831042 0.999307 Ne
0.503331 0.834061 0.336717 Ne
0.495065 0.830400 0.669155 Ne
0.836480 0.169575 1.001702 Ne
0.832056 0.165410 0.335046 Ne
0.834409 0.164685 0.664868 Ne
0.834607 0.499499 1.002664 Ne
0.838881 0.497806 0.332365 Ne
0.834630 0.500059 0.668025 Ne
0.826459 0.828205 0.997626 Ne
0.830156 0.831389 0.329659 Ne
0.832669 0.834201 0.673452 Ne
Ne
1.0
13.799999999999999 -8.450062914116737e-16 8.450062914116737e-16
0.0 13.799999999999999 8.450062914116737e-16
0.0 0.0 13.799999999999999
Ne
108
Direct configuration=     4
-0.004501 -0.001656 -0.004606 Ne
0.004623 -0.003321 0.334631 Ne
-0.001104 0.001119 0.668458 Ne
-0.000088 0.333286 0.999380 Ne
-0.001173 0.336774 0.330128 Ne
0.006683 0.331983 0.656329 Ne
0.005557 0.666058 1.000129 Ne
-0.003288 0.666325 0.334303 Ne
-0.002024 0.670537 0.663588 Ne
0.326467 -0.001915 0.995545 Ne
0.338888 -0.004240 0.334438 Ne
0.334299 -0.001221 0.667139 Ne
0.330070 0.337591 1.007828 Ne
0.330378 0.333839 0.330004 Ne
0.338068 0.327325 0.669358 Ne
0.339652 0.665165 0.998913 Ne
0.332478 0.673235 0.338471 Ne
0.328749 0.662870 0.670084 Ne
0.667968 0.003633 1.000403 Ne
0.665119 0.005309 0.339051 Ne
0.662203 -0.000721 0.669039 Ne
0.670614 0.335253 1.001292 Ne
0.660488 0.333608 0.334470 Ne
0.658644 0.330376 0.667280 Ne
0.662873 0.662759 0.998325 Ne
0.668658 0.658896 0.331763 Ne
0.667918 0.664893 0.659304 Ne
0.002210 0.169711 0.168106 Ne
0.003723 0.160270 0.503052 Ne
-0.002715 0.167493 0.830337 Ne
0.001514 0.493893 0.165367 Ne
0.001885 0.498604 0.496736 Ne
0.002084 0.501629 0.826926 Ne
0.004237 0.832442 0.166832 Ne
-0.002534 0.832446 0.498823 Ne
-0.004147 0.832665 0.832025 Ne
0.334277 0.171381 0.168990 Ne
0.329050 0.167266 0.497946 Ne
0.336814 0.163810 0.834184 Ne
0.335020 0.501609 0.176139 Ne
0.333723 0.502029 0.502716 Ne
0.341586 0.501930 0.831770 Ne
0.334388 0.831388 0.166589 Ne
0.328530 0.832663 0.493092 Ne
0.330609 0.838331 0.833628 Ne
0.668802 0.164047 0.167000 Ne
0.674495 0.172147 0.494480 Ne
0.674713 0.167581 0.836637 Ne
0.663429 0.501627 0.164915 Ne
0.663495 0.497476 0.505350 Ne
0.663898 0.498662 0.830639 Ne
0.666683 0.833072 0.171346 Ne
0.670405 0.831182 0.503817 Ne
0.669001 0.836783 0.832241 Ne
0.168943 -0.000594 0.167964 Ne
0.162250 0.001528 0.502538 Ne
0.161274 0.001901 0.833262 Ne
0.163503 0.335228 0.167479 Ne
0.172073 0.331789 0.498182 Ne
0.173090 0.337702 0.834156 Ne
0.165048 0.667503 0.163621 Ne
0.170460 0.667468 0.505078 Ne
0.168147 0.662814 0.830802 Ne
0.496872 0.001528 0.170717 Ne
0.498578 0.001439 0.500213 Ne
0.502249 0.000872 0.833511 Ne
0.498488 0.335488 0.168089 Ne
0.500591 0.338704 0.498514 Ne
0.496078 0.332328 0.833726 Ne
0.500566 0.670940 0.156935 Ne
0.503288 0.663403 0.503426 Ne
0.500647 0.670054 0.832960 Ne
0.843379 -0.003028 0.156699 Ne
0.832803 0.000482 0.498137 Ne
0.833923 -0.001020 0.834716 Ne
0.831071 0.336714 0.167438 Ne
0.831701 0.336094 0.501122 Ne
0.840459 0.337084 0.830684 Ne
0.830323 0.677579 0.162608 Ne
0.836050 0.662680 0.499877 Ne
0.834191 0.668550 0.829735 Ne
0.157658 0.165824 1.000011 Ne
0.167537 0.166229 0.331710 Ne
0.161099 0.167598 0.666252 Ne
0.167967 0.489695 0.998557 Ne
0.161421 0.505074 0.331957 Ne
0.165978 0.501356 0.664901 Ne
0.161257 0.835742 0.998528 Ne
0.166498 0.834510 0.343427 Ne
0.168230 0.837322 0.670851 Ne
0.502267 0.173430 1.001167 Ne
0.497763 0.163164 0.333542 Ne
0.495592 0.162938 0.667964 Ne
0.503906 0.496786 1.001317 Ne
0.508523 0.492888 0.333406 Ne
0.491878 0.500542 0.665379 Ne
0.494664 0.830279 0.999075 Ne
0.504441 0.834303 0.337845 Ne
0.493421 0.829423 0.669984 Ne
0.837528 0.170544 1.002270 Ne
0.831631 0.164991 0.335616 Ne
0.834767 0.164025 0.664268 Ne
0.835031 0.499333 1.003552 Ne
0.840729 0.497075 0.332042 Ne
0.835062 0.500079 0.668477 Ne
0.824168 0.826496 0.996835 Ne
0.829097 0.830741 0.328435 Ne
0.832447 0.834490 0.675712 Ne
Ne
1.0
13.799999999999999 -8.450062914116737e-16 8.450062914116737e-16
0.0 13.799999999999999 8.450062914116737e-16
0.0 0.0 13.799999999999999
Ne
108
Direct configuration=     5
-0.005625 -0.002070 -0.005757 Ne
0.005778 -0.004150 0.334955 Ne
-0.001380 0.001398 0.668906 Ne
-0.000111 0.333274 0.999225 Ne
-0.001465 0.337633 0.329328 Ne
0.008352 0.331646 0.653746 Ne
0.006945 0.665906 1.000161 Ne
-0.004109 0.666240 0.334544 Ne
-0.002529 0.671504 0.662819 Ne
0.324751 -0.002393 0.994432 Ne
0.340275 -0.005299 0.334714 Ne
0.334540 -0.001525 0.667257 Ne
0.329255 0.338655 1.009784 Ne
0.329640 0.333966 0.329173 Ne
0.339251 0.325824 0.670031 Ne
0.341230 0.664789 0.998641 Ne
0.332265 0.674876 0.339754 Ne
0.327604 0.661922 0.670938 Ne
0.668293 0.004540 1.000504 Ne
0.664733 0.006634 0.340479 Ne
0.661088 -0.000901 0.669631 Ne
0.671600 0.335733 1.001615 Ne
0.658945 0.333676 0.334754 Ne
0.656640 0.329637 0.667433 Ne
0.661925 0.661783 0.997905 Ne
0.669156 0.656954 0.331371 Ne
0.668231 0.664449 0.657466 Ne
0.002762 0.170471 0.168466 Ne
0.004653 0.158672 0.503814 Ne
-0.003394 0.167700 0.829588 Ne
0.001892 0.492368 0.165042 Ne
0.002356 0.498255 0.495921 Ne
0.002606 0.502036 0.825326 Ne
0.005295 0.832219 0.166873 Ne
-0.003167 0.832224 0.498530 Ne
-0.005182 0.832498 0.831699 Ne
0.334513 0.172559 0.169570 Ne
0.327980 0.167415 0.497433 Ne
0.337682 0.163096 0.834397 Ne
0.335441 0.502012 0.178506 Ne
0.333821 0.502536 0.503394 Ne
0.343648 0.502411 0.831381 Ne
0.334651 0.830902 0.166569 Ne
0.327331 0.832497 0.491368 Ne
0.329927 0.839579 0.833701 Ne
0.669336 0.163393 0.167083 Ne
0.676450 0.173516 0.493102 Ne
0.676723 0.167810 0.837463 Ne
0.662620 0.502034 0.164478 Ne
0.662704 0.496845 0.506687 Ne
0.663206 0.498327 0.829965 Ne
0.666686 0.833007 0.172515 Ne
0.671340 0.830644 0.504771 Ne
0.669583 0.837644 0.831968 Ne
0.169512 -0.000742 0.168288 Ne
0.161147 0.001910 0.503173 Ne
0.159926 0.002377 0.833243 Ne
0.162713 0.335701 0.167682 Ne
0.173425 0.331404 0.497727 Ne
0.174696 0.338792 0.834361 Ne
0.164644 0.667712 0.162861 Ne
0.171407 0.667668 0.506347 Ne
0.168517 0.661852 0.830170 Ne
0.496090 0.001909 0.171728 Ne
0.498222 0.001799 0.500267 Ne
0.502811 0.001090 0.833556 Ne
0.498111 0.336026 0.168445 Ne
0.500737 0.340045 0.498143 Ne
0.495098 0.332076 0.833824 Ne
0.500708 0.672008 0.154505 Ne
0.504109 0.662588 0.504281 Ne
0.500809 0.670900 0.832867 Ne
0.845889 -0.003785 0.154209 Ne
0.832671 0.000601 0.497671 Ne
0.834070 -0.001275 0.835061 Ne
0.830506 0.337558 0.167631 Ne
0.831294 0.336784 0.501402 Ne
0.842240 0.338021 0.830022 Ne
0.829571 0.680305 0.161594 Ne
0.836729 0.661684 0.499846 Ne
0.834405 0.669020 0.828836 Ne
0.155407 0.165614 1.000014 Ne
0.167754 0.166119 0.331305 Ne
0.159709 0.167830 0.666149 Ne
0.168292 0.487121 0.998197 Ne
0.160111 0.506342 0.331613 Ne
0.165806 0.501694 0.664460 Ne
0.159905 0.836344 0.998160 Ne
0.166455 0.834804 0.345948 Ne
0.168620 0.838319 0.671896 Ne
0.502833 0.175120 1.001458 Ne
0.497204 0.162289 0.333595 Ne
0.494491 0.162006 0.668287 Ne
0.504881 0.495983 1.001646 Ne
0.510652 0.491112 0.333425 Ne
0.489849 0.500678 0.665058 Ne
0.493331 0.829518 0.998844 Ne
0.505552 0.834545 0.338973 Ne
0.491776 0.828446 0.670813 Ne
0.838577 0.171513 1.002837 Ne
0.831207 0.164572 0.336186 Ne
0.835125 0.163366 0.663669 Ne
0.835456 0.499167 1.004439 Ne
0.842576 0.496344 0.331719 Ne
0.835494 0.500098 0.668929 Ne
0.821879 0.824788 0.996043 Ne
0.828038 0.830095 0.327211 Ne
0.832226 0.834779 0.677971 Ne
Ne
1.0
13.799999999999999 -8.450062914116737e-16 8.450062914116737e-16
0.0 13.799999999999999 8.450062914116737e-16
0.0 0.0 13.799999999999999
Ne
108
Direct configuration=     6
-0.006748 -0.002484 -0.006908 Ne
0.006931 -0.004980 0.335278 Ne
-0.001656 0.001677 0.669354 Ne
-0.000133 0.333263 0.999070 Ne
-0.001758 0.338490 0.328529 Ne
0.010021 0.331309 0.651164 Ne
0.008333 0.665753 1.000192 Ne
-0.004930 0.666156 0.334786 Ne
-0.003034 0.672471 0.662049 Ne
0.323036 -0.002871 0.993320 Ne
0.341661 -0.006357 0.334990 Ne
0.334780 -0.001830 0.667374 Ne
0.328441 0.339718 1.011739 Ne
0.328902 0.334092 0.328342 Ne
0.340432 0.324323 0.670702 Ne
0.342807 0.664412 0.998369 Ne
0.332052 0.676515 0.341036 Ne
0.326460 0.660976 0.671792 Ne
0.668618 0.005447 1.000606 Ne
0.664347 0.007960 0.341907 Ne
0.659973 -0.001081 0.670223 Ne
0.672587 0.336212 1.001937 Ne
0.657404 0.333743 0.335037 Ne
0.654636 0.328897 0.667587 Ne
0.660978 0.660806 0.997486 Ne
0.669653 0.655013 0.330979 Ne
0.668544 0.664006 0.655628 Ne
0.003313 0.171232 0.168826 Ne
0.005582 0.157075 0.504574 Ne
-0.004072 0.167908 0.828839 Ne
0.002270 0.490844 0.164716 Ne
0.002827 0.497907 0.495106 Ne
0.003127 0.502443 0.823725 Ne
0.006354 0.831997 0.166915 Ne
-0.003801 0.832003 0.498237 Ne
-0.006217 0.832331 0.831373 Ne
0.334748 0.173736 0.170150 Ne
0.326910 0.167564 0.496920 Ne
0.338550 0.162382 0.834610 Ne
0.335862 0.502416 0.180872 Ne
0.333918 0.503043 0.504071 Ne
0.345709 0.502893 0.830992 Ne
0.334913 0.830416 0.166550 Ne
0.326133 0.832330 0.489646 Ne
0.329246 0.840827 0.833775 Ne
0.669869 0.162739 0.167167 Ne
0.678404 0.174885 0.491725 Ne
0.678734 0.168039 0.838288 Ne
0.661813 0.502441 0.164040 Ne
0.661913 0.496214 0.508023 Ne
0.662515 0.497993 0.829291 Ne
0.666688 0.832944 0.173683 Ne
0.672274 0.830107 0.505724 Ne
0.670164 0.838506 0.831695 Ne
0.170081 -0.000890 0.168612 Ne
0.160045 0.002291 0.503808 Ne
0.158579 0.002852 0.833225 Ne
0.161923 0.336174 0.167885 Ne
0.174775 0.331019 0.497272 Ne
0.176301 0.339883 0.834565 Ne
0.164240 0.667920 0.162100 Ne
0.172353 0.667869 0.507616 Ne
0.168887 0.660890 0.829539 Ne
0.495309 0.002290 0.172738 Ne
0.497867 0.002158 0.500321 Ne
0.503373 0.001308 0.833601 Ne
0.497734 0.336563 0.168800 Ne
0.500883 0.341385 0.497772 Ne
0.494119 0.331825 0.833923 Ne
0.500849 0.673074 0.152076 Ne
0.504930 0.661773 0.505136 Ne
0.500971 0.671746 0.832773 Ne
0.848398 -0.004541 0.151720 Ne
0.832539 0.000720 0.497207 Ne
0.834217 -0.001529 0.835407 Ne
0.829940 0.338402 0.167824 Ne
0.830887 0.337474 0.501682 Ne
0.844020 0.338958 0.829359 Ne
0.828820 0.683028 0.160580 Ne
0.837407 0.660688 0.499815 Ne
0.834618 0.669488 0.827938 Ne
0.153157 0.165404 1.000017 Ne
0.167971 0.166009 0.330899 Ne
0.158320 0.168062 0.666046 Ne
0.168617 0.484549 0.997837 Ne
0.158802 0.507610 0.331270 Ne
0.165635 0.502032 0.664018 Ne
0.158554 0.836945 0.997792 Ne
0.166411 0.835097 0.348467 Ne
0.169010 0.839315 0.672941 Ne
0.503400 0.176809 1.001750 Ne
0.496645 0.161416 0.333648 Ne
0.493391 0.161075 0.668611 Ne
0.505856 0.495179 1.001975 Ne
0.512779 0.489338 0.333443 Ne
0.487821 0.500813 0.664736 Ne
0.491999 0.828757 0.998612 Ne
0.506662 0.834786 0.340100 Ne
0.490133 0.827469 0.671641 Ne
0.839625 0.172482 1.003404 Ne
0.830784 0.164154 0.336755 Ne
0.835482 0.162706 0.663070 Ne
0.835880 0.499001 1.005325 Ne
0.844421 0.495614 0.331396 Ne
0.835926 0.500117 0.669380 Ne
0.819590 0.823080 0.995252 Ne
0.826980 0.829448 0.325989 Ne
0.832004 0.835069 0.680229 Ne
Ne
1.0
13.799999999999999 -8.450062914116737e-16 8.450062914116737e-16
0.0 13.799999999999999 8.450062914116737e-16
0.0 0.0 13.799999999999999
Ne
108
Direct configuration=     7
-0.007871 -0.002898 -0.008060 Ne
0.008084 -0.005808 0.335601 Ne
-0.001933 0.001954 0.669801 Ne
-0.000155 0.333251 0.998914 Ne
-0.002049 0.339346 0.327730 Ne
0.011688 0.330973 0.648584 Ne
0.009719 0.665600 1.000223 Ne
-0.005750 0.666072 0.335027 Ne
-0.003539 0.673437 0.661280 Ne
0.321322 -0.003347 0.992209 Ne
0.343046 -0.007415 0.335266 Ne
0.335020 -0.002134 0.667492 Ne
0.327629 0.340779 1.013694 Ne
0.328164 0.334219 0.327512 Ne
0.341613 0.322823 0.671373 Ne
0.344381 0.664035 0.998096 Ne
0.331839 0.678153 0.342317 Ne
0.325316 0.660030 0.672645 Ne
0.668942 0.006354 1.000707 Ne
0.663961 0.009283 0.343334 Ne
0.658859 -0.001260 0.670814 Ne
0.673573 0.336692 1.002259 Ne
0.655865 0.333809 0.335319 Ne
0.652633 0.328158 0.667741 Ne
0.660031 0.659831 0.997065 Ne
0.670151 0.653072 0.330588 Ne
0.668857 0.663563 0.653793 Ne
0.003864 0.171991 0.169186 Ne
0.006509 0.155480 0.505333 Ne
-0.004751 0.168115 0.828091 Ne
0.002648 0.489322 0.164390 Ne
0.003299 0.497558 0.494292 Ne
0.003648 0.502850 0.822126 Ne
0.007412 0.831774 0.166957 Ne
-0.004435 0.831781 0.497944 Ne
-0.007251 0.832163 0.831047 Ne
0.334983 0.174912 0.170728 Ne
0.325841 0.167712 0.496408 Ne
0.339417 0.161668 0.834824 Ne
0.336284 0.502820 0.183238 Ne
0.334014 0.503549 0.504747 Ne
0.347768 0.503374 0.830604 Ne
0.335175 0.829930 0.166531 Ne
0.324937 0.832165 0.487927 Ne
0.328565 0.842073 0.833849 Ne
0.670403 0.162085 0.167251 Ne
0.680355 0.176254 0.490350 Ne
0.680743 0.168268 0.839113 Ne
0.661006 0.502847 0.163603 Ne
0.661123 0.495583 0.509359 Ne
0.661823 0.497658 0.828618 Ne
0.666690 0.832881 0.174850 Ne
0.673208 0.829570 0.506677 Ne
0.670743 0.839366 0.831422 Ne
0.170650 -0.001039 0.168937 Ne
0.158944 0.002671 0.504443 Ne
0.157231 0.003328 0.833207 Ne
0.161134 0.336646 0.168089 Ne
0.176126 0.330634 0.496817 Ne
0.177905 0.340971 0.834768 Ne
0.163838 0.668129 0.161340 Ne
0.173298 0.668069 0.508884 Ne
0.169256 0.659928 0.828908 Ne
0.494528 0.002671 0.173747 Ne
0.497513 0.002517 0.500376 Ne
0.503935 0.001525 0.833647 Ne
0.497357 0.337100 0.169155 Ne
0.501028 0.342723 0.497402 Ne
0.493141 0.331573 0.834022 Ne
0.500991 0.674140 0.149650 Ne
0.505750 0.660959 0.505990 Ne
0.501133 0.672591 0.832679 Ne
0.850905 -0.005298 0.149233 Ne
0.832407 0.000839 0.496742 Ne
0.834364 -0.001782 0.835753 Ne
0.829375 0.339245 0.168017 Ne
0.830480 0.338164 0.501962 Ne
0.845799 0.339894 0.828697 Ne
0.828069 0.685749 0.159566 Ne
0.838084 0.659692 0.499784 Ne
0.834832 0.669956 0.827040 Ne
0.150908 0.165193 1.000019 Ne
0.168188 0.165899 0.330494 Ne
0.156933 0.168294 0.665945 Ne
0.168941 0.481981 0.997477 Ne
0.157493 0.508877 0.330927 Ne
0.165463 0.502369 0.663577 Ne
0.157204 0.837546 0.997423 Ne
0.166367 0.835390 0.350985 Ne
0.169399 0.840311 0.673985 Ne
0.503965 0.178497 1.002042 Ne
0.496086 0.160543 0.333701 Ne
0.492292 0.160143 0.668933 Ne
0.506830 0.494376 1.002303 Ne
0.514903 0.487567 0.333462 Ne
0.485795 0.500948 0.664415 Ne
0.490669 0.827999 0.998379 Ne
0.507773 0.835027 0.341227 Ne
0.488490 0.826492 0.672468 Ne
0.840673 0.173451 1.003970 Ne
0.830363 0.163737 0.337322 Ne
0.835840 0.162048 0.662471 Ne
0.836305 0.498836 1.006211 Ne
0.846265 0.494885 0.331073 Ne
0.836358 0.500136 0.669831 Ne
0.817302 0.821374 0.994460 Ne
0.825923 0.828803 0.324768 Ne
0.831783 0.835359 0.682484 Ne
Ne
1.0
13.799999999999999 -8.450062914116737e-16 8.450062914116737e-16
0.0 13.799999999999999 8.450062914116737e-16
0.0 0.0 13.799999999999999
Ne
108
Direct configuration=     8
-0.008991 -0.003311 -0.009212 Ne
0.009236 -0.006637 0.335923 Ne
-0.002209 0.002231 0.670249 Ne
-0.000178 0.333240 0.998758 Ne
-0.002340 0.340200 0.326933 Ne
0.013355 0.330637 0.646004 Ne
0.011104 0.665446 1.000254 Ne
-0.006570 0.665988 0.335267 Ne
-0.004042 0.674403 0.660512 Ne
0.319608 -0.003823 0.991100 Ne
0.344429 -0.008473 0.335541 Ne
0.335259 -0.002438 0.667608 Ne
0.326817 0.341840 1.015648 Ne
0.327427 0.334346 0.326684 Ne
0.342792 0.321324 0.672043 Ne
0.345953 0.663658 0.997823 Ne
0.331628 0.679788 0.343596 Ne
0.324174 0.659086 0.673498 Ne
0.669267 0.007260 1.000809 Ne
0.663575 0.010606 0.344760 Ne
0.657745 -0.001439 0.671405 Ne
0.674559 0.337171 1.002581 Ne
0.654329 0.333874 0.335601 Ne
0.650630 0.327419 0.667895 Ne
0.659085 0.658855 0.996644 Ne
0.670648 0.651132 0.330197 Ne
0.669170 0.663120 0.651960 Ne
0.004414 0.172750 0.169547 Ne
0.007435 0.153886 0.506091 Ne
-0.005429 0.168323 0.827343 Ne
0.003025 0.487802 0.164064 Ne
0.003770 0.497211 0.493479 Ne
0.004169 0.503257 0.820527 Ne
0.008470 0.831552 0.166999 Ne
-0.005070 0.831560 0.497653 Ne
-0.008284 0.831995 0.830722 Ne
0.335217 0.176087 0.171307 Ne
0.324773 0.167860 0.495895 Ne
0.340283 0.160955 0.835038 Ne
0.336705 0.503225 0.185602 Ne
0.334110 0.504054 0.505421 Ne
0.349826 0.503855 0.830217 Ne
0.335437 0.829445 0.166513 Ne
0.323743 0.832001 0.486213 Ne
0.327884 0.843319 0.833923 Ne
0.670937 0.161431 0.167335 Ne
0.682305 0.177622 0.488977 Ne
0.682752 0.168498 0.839937 Ne
0.660200 0.503253 0.163166 Ne
0.660334 0.494952 0.510695 Ne
0.661132 0.497324 0.827944 Ne
0.666689 0.832819 0.176016 Ne
0.674142 0.829034 0.507630 Ne
0.671321 0.840226 0.831150 Ne
0.171219 -0.001187 0.169261 Ne
0.157845 0.003051 0.505078 Ne
0.155885 0.003804 0.833188 Ne
0.160346 0.337117 0.168293 Ne
0.177475 0.330250 0.496362 Ne
0.179509 0.342059 0.834970 Ne
0.163436 0.668336 0.160581 Ne
0.174242 0.668269 0.510152 Ne
0.169625 0.658967 0.828278 Ne
0.493748 0.003052 0.174755 Ne
0.497158 0.002875 0.500432 Ne
0.504496 0.001743 0.833694 Ne
0.496981 0.337636 0.169510 Ne
0.501172 0.344059 0.497033 Ne
0.492164 0.331322 0.834122 Ne
0.501133 0.675205 0.147228 Ne
0.506568 0.660145 0.506843 Ne
0.501296 0.673436 0.832584 Ne
0.853410 -0.006054 0.146748 Ne
0.832275 0.000957 0.496278 Ne
0.834510 -0.002035 0.836098 Ne
0.828809 0.340087 0.168211 Ne
0.830074 0.338854 0.502243 Ne
0.847577 0.340830 0.828035 Ne
0.827320 0.688466 0.158553 Ne
0.838761 0.658696 0.499753 Ne
0.835044 0.670422 0.826143 Ne
0.148660 0.164983 1.000022 Ne
0.168405 0.165789 0.330089 Ne
0.155547 0.168526 0.665844 Ne
0.169264 0.479415 0.997118 Ne
0.156186 0.510145 0.330584 Ne
0.165292 0.502705 0.663135 Ne
0.155855 0.838147 0.997054 Ne
0.166321 0.835683 0.353499 Ne
0.169788 0.841306 0.675028 Ne
0.504531 0.180185 1.002334 Ne
0.495527 0.159672 0.333754 Ne
0.491194 0.159212 0.669255 Ne
0.507803 0.493572 1.002631 Ne
0.517025 0.485798 0.333480 Ne
0.483771 0.501083 0.664095 Ne
0.489339 0.827243 0.998146 Ne
0.508883 0.835267 0.342354 Ne
0.486847 0.825516 0.673294 Ne
0.841721 0.174419 1.004537 Ne
0.829943 0.163319 0.337888 Ne
0.836196 0.161389 0.661872 Ne
0.836729 0.498672 1.007096 Ne
0.848107 0.494157 0.330750 Ne
0.836789 0.500156 0.670281 Ne
0.815016 0.819670 0.993668 Ne
0.824867 0.828159 0.323549 Ne
0.831561 0.835649 0.684736 Ne
Ne
1.0
13.799999999999999 -8.450062914116737e-16 8.450062914116737e-16
0.0 13.799999999999999 8.450062914116737e-16
0.0 0.0 13.799999999999999
Ne
108
Direct configuration=     9
-0.010110 -0.003725 -0.010365 Ne
0.010387 -0.007464 0.336245 Ne
-0.002487 0.002507 0.670696 Ne
-0.000200 0.333229 0.998601 Ne
-0.002630 0.341052 0.326137 Ne
0.015019 0.330303 0.643426 Ne
0.012489 0.665292 1.000284 Ne
-0.007390 0.665905 0.335507 Ne
-0.004545 0.675369 0.659743 Ne
0.317896 -0.004299 0.989991 Ne
0.345810 -0.009529 0.335817 Ne
0.335498 -0.002742 0.667725 Ne
0.326008 0.342899 1.017601 Ne
0.326690 0.334474 0.325856 Ne
0.343970 0.319826 0.672712 Ne
0.347523 0.663279 0.997549 Ne
0.331417 0.681421 0.344873 Ne
0.323032 0.658143 0.674350 Ne
0.669591 0.008165 1.000911 Ne
0.663189 0.011927 0.346184 Ne
0.656632 -0.001618 0.671994 Ne
0.675544 0.337649 1.002902 Ne
0.652797 0.333936 0.335882 Ne
0.648629 0.326679 0.668049 Ne
0.658141 0.657880 0.996223 Ne
0.671146 0.649193 0.329807 Ne
0.669484 0.662677 0.650129 Ne
0.004964 0.173509 0.169908 Ne
0.008359 0.152293 0.506846 Ne
-0.006107 0.168531 0.826595 Ne
0.003402 0.486284 0.163737 Ne
0.004242 0.496863 0.492667 Ne
0.004690 0.503663 0.818930 Ne
0.009527 0.831329 0.167041 Ne
-0.005704 0.831339 0.497361 Ne
-0.009315 0.831828 0.830399 Ne
0.335451 0.177261 0.171884 Ne
0.323707 0.168007 0.495383 Ne
0.341148 0.160242 0.835253 Ne
0.337126 0.503631 0.187966 Ne
0.334206 0.504559 0.506095 Ne
0.351882 0.504335 0.829832 Ne
0.335697 0.828960 0.166494 Ne
0.322552 0.831839 0.484504 Ne
0.327202 0.844563 0.833997 Ne
0.671470 0.160778 0.167419 Ne
0.684252 0.178989 0.487607 Ne
0.684760 0.168728 0.840761 Ne
0.659396 0.503659 0.162729 Ne
0.659547 0.494321 0.512030 Ne
0.660441 0.496990 0.827270 Ne
0.666687 0.832759 0.177181 Ne
0.675075 0.828498 0.508581 Ne
0.671897 0.841084 0.830878 Ne
0.171788 -0.001335 0.169585 Ne
0.156748 0.003430 0.505713 Ne
0.154538 0.004280 0.833169 Ne
0.159559 0.337588 0.168498 Ne
0.178824 0.329868 0.495906 Ne
0.181113 0.343145 0.835171 Ne
0.163035 0.668544 0.159822 Ne
0.175184 0.668469 0.511419 Ne
0.169994 0.658007 0.827650 Ne
0.492969 0.003432 0.175761 Ne
0.496804 0.003234 0.500488 Ne
0.505057 0.001960 0.833742 Ne
0.496605 0.338172 0.169864 Ne
0.501314 0.345393 0.496664 Ne
0.491187 0.331070 0.834223 Ne
0.501276 0.676268 0.144808 Ne
0.507385 0.659333 0.507695 Ne
0.501459 0.674280 0.832490 Ne
0.855912 -0.006810 0.144267 Ne
0.832144 0.001074 0.495815 Ne
0.834656 -0.002287 0.836444 Ne
0.828244 0.340928 0.168405 Ne