 vasp.6.2.1 16May21 (build Dec 17 2021 11:21:50) complex                         
 executed on             LinuxGNU date 2022.09.17  10:49:44
 running on  192 total cores
 distrk:  each k-point on  192 cores,    1 groups
 distr:  one band on NCORE=  24 cores,    8 groups


--------------------------------------------------------------------------------------------------------


 INCAR:
   ALGO = Normal
   EDIFF = 1e-07
   ENAUG = 1360
   ENCUT = 700
   GGA = Ps
   IBRION = 2
   ISIF = 3
   ISMEAR = 0
   ISPIN = 2
   LAECHG = False
   LASPH = True
   LCHARG = False
   LELF = False
   LMAXMIX = 4
   LMIXTAU = True
   LORBIT = 11
   LREAL = False
   LVTOT = True
   LWAVE = False
   MAGMOM = 10*0.6
   NELM = 200
   NPAR = 8
   NSW = 0
   PREC = Accurate
   SIGMA = 0.05

 POTCAR:    PAW_PBE Mg 13Apr2007                  
 POTCAR:    PAW_PBE Sb 06Sep2000                  
 WARNING: For LVTOT=.TRUE., VASP.5.x writes the TOTAL local potential to the
     file LOCPOT. If you want only the Hartree contributions, use LVHAR=.TRUE.
     instead. 

 POTCAR:    PAW_PBE Mg 13Apr2007                  
   VRHFIN =Mg: s2p0                                                                                 
   LEXCH  = PE                                                                                      
   EATOM  =    23.0369 eV,    1.6932 Ry                                                             
                                                                                                    
   TITEL  = PAW_PBE Mg 13Apr2007                                                                    
   LULTRA =        F    use ultrasoft PP ?                                                          
   IUNSCR =        1    unscreen: 0-lin 1-nonlin 2-no                                               
   RPACOR =    1.500    partial core radius                                                         
   POMASS =   24.305; ZVAL   =    2.000    mass and valenz                                          
   RCORE  =    2.000    outmost cutoff radius                                                       
   RWIGS  =    2.880; RWIGS  =    1.524    wigner-seitz radius (au A)                               
   ENMAX  =  200.000; ENMIN  =  100.000 eV                                                          
   RCLOC  =    1.506    cutoff for local pot                                                        
   LCOR   =        T    correct aug charges                                                         
   LPAW   =        T    paw PP                                                                      
   EAUG   =  454.734                                                                                
   DEXC   =    0.000                                                                                
   RMAX   =    2.045    core radius for proj-oper                                                   
   RAUG   =    1.300    factor for augmentation sphere                                              
   RDEP   =    2.025    radius for radial grids                                                     
   RDEPT  =    1.942    core radius for aug-charge                                                  
                                                                                                    
   Atomic configuration                                                                             
    6 entries                                                                                       
     n  l   j            E        occ.                                                              
     1  0  0.50     -1259.6230   2.0000                                                             
     2  0  0.50       -79.8442   2.0000                                                             
     2  1  1.50       -46.6121   6.0000                                                             
     3  0  0.50        -4.7055   2.0000                                                             
     3  1  0.50        -1.3660   0.0000                                                             
     3  2  1.50        -1.3606   0.0000                                                             
   Description                                                                                      
     l       E           TYP  RCUT    TYP  RCUT                                                     
     0     -4.7054661     23  2.000                                                                 
     0     27.2116520     23  2.000                                                                 
     1      1.3605826     23  2.000                                                                 
     1     27.2116520     23  2.000                                                                 
     2     -1.3605826     23  2.000                                                                 
  local pseudopotential read in
  partial core-charges read in
  partial kinetic energy density read in
  atomic valenz-charges read in
  non local Contribution for L=           0  read in
    real space projection operators read in
  non local Contribution for L=           0  read in
    real space projection operators read in
  non local Contribution for L=           1  read in
    real space projection operators read in
  non local Contribution for L=           1  read in
    real space projection operators read in
  non local Contribution for L=           2  read in
    real space projection operators read in
    PAW grid and wavefunctions read in

   number of l-projection  operators is LMAX  =           5
   number of lm-projection operators is LMMAX =          13

 POTCAR:    PAW_PBE Sb 06Sep2000                  
   VRHFIN =Sb: s2p3                                                                                 
   LEXCH  = PE                                                                                      
   EATOM  =   149.9515 eV,   11.0211 Ry                                                             
                                                                                                    
   TITEL  = PAW_PBE Sb 06Sep2000                                                                    
   LULTRA =        F    use ultrasoft PP ?                                                          
   IUNSCR =        1    unscreen: 0-lin 1-nonlin 2-no                                               
   RPACOR =    2.200    partial core radius                                                         
   POMASS =  121.750; ZVAL   =    5.000    mass and valenz                                          
   RCORE  =    2.300    outmost cutoff radius                                                       
   RWIGS  =    2.980; RWIGS  =    1.577    wigner-seitz radius (au A)                               
   ENMAX  =  172.069; ENMIN  =  129.052 eV                                                          
   ICORE  =        3    local potential                                                             
   LCOR   =        T    correct aug charges                                                         
   LPAW   =        T    paw PP                                                                      
   EAUG   =  380.513                                                                                
   DEXC   =    0.000                                                                                
   RMAX   =    2.346    core radius for proj-oper                                                   
   RAUG   =    1.300    factor for augmentation sphere                                              
   RDEP   =    2.360    radius for radial grids                                                     
   RDEPT  =    2.192    core radius for aug-charge                                                  
                                                                                                    
   Atomic configuration                                                                             
   13 entries                                                                                       
     n  l   j            E        occ.                                                              
     1  0  0.50    -30298.2797   2.0000                                                             
     2  0  0.50     -4610.2252   2.0000                                                             
     2  1  1.50     -4138.3407   6.0000                                                             
     3  0  0.50      -903.8815   2.0000                                                             
     3  1  1.50      -750.1337   6.0000                                                             
     3  2  2.50      -515.7092  10.0000                                                             
     4  0  0.50      -148.8034   2.0000                                                             
     4  1  1.50      -101.7581   6.0000                                                             
     4  2  2.50       -33.5048  10.0000                                                             
     5  0  0.50       -12.8298   2.0000                                                             
     5  1  0.50        -4.8276   3.0000                                                             
     5  2  1.50        -4.0817   0.0000                                                             
     4  3  2.50        -4.0817   0.0000                                                             
   Description                                                                                      
     l       E           TYP  RCUT    TYP  RCUT                                                     
     0    -12.8297861     23  2.300                                                                 
     0     13.6058260     23  2.300                                                                 
     1     -4.8275512     23  2.300                                                                 
     1     -0.7245443     23  2.300                                                                 
     2     -4.0817478     23  2.300                                                                 
     3     -1.3605826     23  2.300                                                                 
  local pseudopotential read in
  partial core-charges read in
  partial kinetic energy density read in
  atomic valenz-charges read in
  non local Contribution for L=           0  read in
    real space projection operators read in
  non local Contribution for L=           0  read in
    real space projection operators read in
  non local Contribution for L=           1  read in
    real space projection operators read in
  non local Contribution for L=           1  read in
    real space projection operators read in
  non local Contribution for L=           2  read in
    real space projection operators read in
    PAW grid and wavefunctions read in

   number of l-projection  operators is LMAX  =           5
   number of lm-projection operators is LMMAX =          13

 -----------------------------------------------------------------------------
|                                                                             |
|               ----> ADVICE to this user running VASP <----                  |
|                                                                             |
|     You enforced a specific xc type in the INCAR file but a different       |
|     type was found in the POTCAR file.                                      |
|     I HOPE YOU KNOW WHAT YOU ARE DOING!                                     |
|                                                                             |
 -----------------------------------------------------------------------------

  PAW_PBE Mg 13Apr2007                  :
 energy of atom  1       EATOM=  -23.0369
 kinetic energy error for atom=    0.0000 (will be added to EATOM!!)
  PAW_PBE Sb 06Sep2000                  :
 energy of atom  2       EATOM= -149.9515
 kinetic energy error for atom=    0.0002 (will be added to EATOM!!)


 POSCAR: Mg6 Sb4
  positions in direct lattice
  No initial velocities read in
 exchange correlation table for  LEXCH =       14
   RHO(1)=    0.500       N(1)  =     2000
   RHO(2)=  100.500       N(2)  =     4000



--------------------------------------------------------------------------------------------------------


 ion  position               nearest neighbor table
   1  0.000  0.000  0.000-   7 3.11   9 3.12   9 3.12  10 3.12   8 3.12   7 3.12
   2  0.500  0.500  0.000-   8 3.12  10 3.12   8 3.12  10 3.12   9 3.12   7 3.13
   3  0.833  0.500  0.368-   9 2.85  10 2.85  10 2.85   7 2.96   5 3.28   6 3.28   6 3.28
   4  0.333  0.000  0.368-  10 2.85   9 2.85   9 2.85   8 2.96   6 3.28   5 3.28   5 3.28
   5  0.167  0.500  0.632-   7 2.85   8 2.85   8 2.85   9 2.96   3 3.28   4 3.28   4 3.28
   6  0.667  0.000  0.632-   8 2.85   7 2.85   7 2.86  10 2.96   4 3.28   3 3.28   3 3.28
   7  0.834  0.501  0.775-   5 2.85   6 2.85   6 2.86   3 2.96   1 3.11   1 3.12   2 3.13
   8  0.333  0.000  0.775-   6 2.85   5 2.85   5 2.85   4 2.96   2 3.12   2 3.12   1 3.12
   9  0.167  0.500  0.225-   3 2.85   4 2.85   4 2.85   5 2.96   1 3.12   1 3.12   2 3.12
  10  0.667  0.000  0.225-   4 2.85   3 2.85   3 2.85   6 2.96   2 3.12   2 3.12   1 3.12

  LATTYP: Found a simple orthorhombic cell.
 ALAT       =     4.6007429778
 B/A-ratio  =     1.5826422026
 C/A-ratio  =     1.7320508076
  
  Lattice vectors:
  
 A1 = (   4.6007429778,   0.0000000000,   0.0000000000)
 A2 = (   0.0000000000,   0.0000000000,   7.2813300000)
 A3 = (   0.0000000000,  -7.9687205902,   0.0000000000)


Analysis of symmetry for initial positions (statically):
=====================================================================
 Subroutine PRICEL returns:
 Original cell was already a primitive cell.
 

 Routine SETGRP: Setting up the symmetry group for a 
 simple orthorhombic supercell.


 Subroutine GETGRP returns: Found  1 space group operations
 (whereof  1 operations were pure point group operations)
 out of a pool of  8 trial point group operations.


The static configuration has the point symmetry C_1 .


Analysis of symmetry for dynamics (positions and initial velocities):
=====================================================================
 Subroutine PRICEL returns:
 Original cell was already a primitive cell.
 

 Routine SETGRP: Setting up the symmetry group for a 
 simple orthorhombic supercell.


 Subroutine GETGRP returns: Found  1 space group operations
 (whereof  1 operations were pure point group operations)
 out of a pool of  8 trial point group operations.


The dynamic configuration has the point symmetry C_1 .


Analysis of structural, dynamic, and magnetic symmetry:
=====================================================================
 Subroutine PRICEL returns:
 Original cell was already a primitive cell.
 

 Routine SETGRP: Setting up the symmetry group for a 
 simple orthorhombic supercell.


 Subroutine GETGRP returns: Found  1 space group operations
 (whereof  1 operations were pure point group operations)
 out of a pool of  8 trial point group operations.


The overall configuration has the point symmetry C_1 .


 Subroutine INISYM returns: Found  1 space group operations
 (whereof  1 operations are pure point group operations),
 and found     1 'primitive' translations


----------------------------------------------------------------------------------------

                                     Primitive cell                                     

  volume of cell :     266.9484

  direct lattice vectors                    reciprocal lattice vectors
     0.000000000 -7.968720590  0.000000000     0.000000000 -0.125490659  0.000000000
     4.600742978  0.000000000  0.000000000     0.217356198  0.000000000 -0.000000000
     0.000000000  0.000000000  7.281330000    -0.000000000  0.000000000  0.137337547

  length of vectors
     7.968720590  4.600742978  7.281330000     0.125490659  0.217356198  0.137337547

  position of ions in fractional coordinates (direct lattice)
     0.000000000  0.000000000  0.000000000
     0.500000000  0.500000000  0.000000000
     0.833333333  0.500000000  0.368325000
     0.333333333  0.000000000  0.368325000
     0.166666667  0.500000000  0.631675000
     0.666666667  0.000000000  0.631675000
     0.834420114  0.501086781  0.774749000
     0.333333333  0.000000000  0.774749000
     0.166666667  0.500000000  0.225251000
     0.666666667  0.000000000  0.225251000

  ion indices of the primitive-cell ions
   primitive index   ion index
                 1           1
                 2           2
                 3           3
                 4           4
                 5           5
                 6           6
                 7           7
                 8           8
                 9           9
                10          10

----------------------------------------------------------------------------------------



 KPOINTS: pymatgen with grid density = 7000 / numb

Automatic generation of k-mesh.
 Grid dimensions read from file:
 generate k-points for:    7   12    7

 Generating k-lattice:

  Cartesian coordinates                     Fractional coordinates (reciprocal lattice)
     0.000000000 -0.017927237  0.000000000     0.142857143  0.000000000  0.000000000
     0.018113016  0.000000000 -0.000000000     0.000000000  0.083333333  0.000000000
    -0.000000000  0.000000000  0.019619650     0.000000000  0.000000000  0.142857143

  Length of vectors
     0.017927237  0.018113016  0.019619650

  Shift w.r.t. Gamma in fractional coordinates (k-lattice)
     0.000000000  0.000000000  0.000000000

 
 Subroutine IBZKPT returns following result:
 ===========================================
 
 Found    295 irreducible k-points:
 
 Following reciprocal coordinates:
            Coordinates               Weight
  0.000000  0.000000  0.000000      1.000000
  0.142857  0.000000  0.000000      2.000000
  0.285714  0.000000  0.000000      2.000000
  0.428571  0.000000  0.000000      2.000000
  0.000000  0.083333  0.000000      2.000000
  0.142857  0.083333  0.000000      2.000000
 -0.142857  0.083333  0.000000      2.000000
  0.285714  0.083333  0.000000      2.000000
 -0.285714  0.083333  0.000000      2.000000
  0.428571  0.083333  0.000000      2.000000
 -0.428571  0.083333  0.000000      2.000000
  0.000000  0.166667  0.000000      2.000000
  0.142857  0.166667  0.000000      2.000000
 -0.142857  0.166667  0.000000      2.000000
  0.285714  0.166667  0.000000      2.000000
 -0.285714  0.166667  0.000000      2.000000
  0.428571  0.166667  0.000000      2.000000
 -0.428571  0.166667  0.000000      2.000000
  0.000000  0.250000  0.000000      2.000000
  0.142857  0.250000  0.000000      2.000000
 -0.142857  0.250000  0.000000      2.000000
  0.285714  0.250000  0.000000      2.000000
 -0.285714  0.250000  0.000000      2.000000
  0.428571  0.250000  0.000000      2.000000
 -0.428571  0.250000  0.000000      2.000000
  0.000000  0.333333  0.000000      2.000000
  0.142857  0.333333  0.000000      2.000000
 -0.142857  0.333333  0.000000      2.000000
  0.285714  0.333333  0.000000      2.000000
 -0.285714  0.333333  0.000000      2.000000
  0.428571  0.333333  0.000000      2.000000
 -0.428571  0.333333  0.000000      2.000000
  0.000000  0.416667  0.000000      2.000000
  0.142857  0.416667  0.000000      2.000000
 -0.142857  0.416667  0.000000      2.000000
  0.285714  0.416667  0.000000      2.000000
 -0.285714  0.416667  0.000000      2.000000
  0.428571  0.416667  0.000000      2.000000
 -0.428571  0.416667  0.000000      2.000000
  0.000000  0.500000  0.000000      1.000000
  0.142857  0.500000  0.000000      2.000000
  0.285714  0.500000  0.000000      2.000000
  0.428571  0.500000  0.000000      2.000000
  0.000000  0.000000  0.142857      2.000000
  0.142857  0.000000  0.142857      2.000000
 -0.142857  0.000000  0.142857      2.000000
  0.285714  0.000000  0.142857      2.000000
 -0.285714  0.000000  0.142857      2.000000
  0.428571  0.000000  0.142857      2.000000
 -0.428571  0.000000  0.142857      2.000000
  0.000000  0.083333  0.142857      2.000000
  0.000000  0.083333 -0.142857      2.000000
  0.142857  0.083333  0.142857      2.000000
 -0.142857  0.083333 -0.142857      2.000000
 -0.142857 -0.083333  0.142857      2.000000
  0.142857 -0.083333 -0.142857      2.000000
  0.285714  0.083333  0.142857      2.000000
 -0.285714  0.083333 -0.142857      2.000000
 -0.285714 -0.083333  0.142857      2.000000
  0.285714 -0.083333 -0.142857      2.000000
  0.428571  0.083333  0.142857      2.000000
 -0.428571  0.083333 -0.142857      2.000000
 -0.428571 -0.083333  0.142857      2.000000
  0.428571 -0.083333 -0.142857      2.000000
  0.000000  0.166667  0.142857      2.000000
  0.000000  0.166667 -0.142857      2.000000
  0.142857  0.166667  0.142857      2.000000
 -0.142857  0.166667 -0.142857      2.000000
 -0.142857 -0.166667  0.142857      2.000000
  0.142857 -0.166667 -0.142857      2.000000
  0.285714  0.166667  0.142857      2.000000
 -0.285714  0.166667 -0.142857      2.000000
 -0.285714 -0.166667  0.142857      2.000000
  0.285714 -0.166667 -0.142857      2.000000
  0.428571  0.166667  0.142857      2.000000
 -0.428571  0.166667 -0.142857      2.000000
 -0.428571 -0.166667  0.142857      2.000000
  0.428571 -0.166667 -0.142857      2.000000
  0.000000  0.250000  0.142857      2.000000
  0.000000  0.250000 -0.142857      2.000000
  0.142857  0.250000  0.142857      2.000000
 -0.142857  0.250000 -0.142857      2.000000
 -0.142857 -0.250000  0.142857      2.000000
  0.142857 -0.250000 -0.142857      2.000000
  0.285714  0.250000  0.142857      2.000000
 -0.285714  0.250000 -0.142857      2.000000
 -0.285714 -0.250000  0.142857      2.000000
  0.285714 -0.250000 -0.142857      2.000000
  0.428571  0.250000  0.142857      2.000000
 -0.428571  0.250000 -0.142857      2.000000
 -0.428571 -0.250000  0.142857      2.000000
  0.428571 -0.250000 -0.142857      2.000000
  0.000000  0.333333  0.142857      2.000000
  0.000000  0.333333 -0.142857      2.000000
  0.142857  0.333333  0.142857      2.000000
 -0.142857  0.333333 -0.142857      2.000000
 -0.142857 -0.333333  0.142857      2.000000
  0.142857 -0.333333 -0.142857      2.000000
  0.285714  0.333333  0.142857      2.000000
 -0.285714  0.333333 -0.142857      2.000000
 -0.285714 -0.333333  0.142857      2.000000
  0.285714 -0.333333 -0.142857      2.000000
  0.428571  0.333333  0.142857      2.000000
 -0.428571  0.333333 -0.142857      2.000000
 -0.428571 -0.333333  0.142857      2.000000
  0.428571 -0.333333 -0.142857      2.000000
  0.000000  0.416667  0.142857      2.000000
  0.000000  0.416667 -0.142857      2.000000
  0.142857  0.416667  0.142857      2.000000
 -0.142857  0.416667 -0.142857      2.000000
 -0.142857 -0.416667  0.142857      2.000000
  0.142857 -0.416667 -0.142857      2.000000
  0.285714  0.416667  0.142857      2.000000
 -0.285714  0.416667 -0.142857      2.000000
 -0.285714 -0.416667  0.142857      2.000000
  0.285714 -0.416667 -0.142857      2.000000
  0.428571  0.416667  0.142857      2.000000
 -0.428571  0.416667 -0.142857      2.000000
 -0.428571 -0.416667  0.142857      2.000000
  0.428571 -0.416667 -0.142857      2.000000
  0.000000  0.500000  0.142857      2.000000
  0.142857  0.500000  0.142857      2.000000
 -0.142857  0.500000  0.142857      2.000000
  0.285714  0.500000  0.142857      2.000000
 -0.285714  0.500000  0.142857      2.000000
  0.428571  0.500000  0.142857      2.000000
 -0.428571  0.500000  0.142857      2.000000
  0.000000  0.000000  0.285714      2.000000
  0.142857  0.000000  0.285714      2.000000
 -0.142857  0.000000  0.285714      2.000000
  0.285714  0.000000  0.285714      2.000000
 -0.285714  0.000000  0.285714      2.000000
  0.428571  0.000000  0.285714      2.000000
 -0.428571  0.000000  0.285714      2.000000
  0.000000  0.083333  0.285714      2.000000
  0.000000  0.083333 -0.285714      2.000000
  0.142857  0.083333  0.285714      2.000000
 -0.142857  0.083333 -0.285714      2.000000
 -0.142857 -0.083333  0.285714      2.000000
  0.142857 -0.083333 -0.285714      2.000000
  0.285714  0.083333  0.285714      2.000000
 -0.285714  0.083333 -0.285714      2.000000
 -0.285714 -0.083333  0.285714      2.000000
  0.285714 -0.083333 -0.285714      2.000000
  0.428571  0.083333  0.285714      2.000000
 -0.428571  0.083333 -0.285714      2.000000
 -0.428571 -0.083333  0.285714      2.000000
  0.428571 -0.083333 -0.285714      2.000000
  0.000000  0.166667  0.285714      2.000000
  0.000000  0.166667 -0.285714      2.000000
  0.142857  0.166667  0.285714      2.000000
 -0.142857  0.166667 -0.285714      2.000000
 -0.142857 -0.166667  0.285714      2.000000
  0.142857 -0.166667 -0.285714      2.000000
  0.285714  0.166667  0.285714      2.000000
 -0.285714  0.166667 -0.285714      2.000000
 -0.285714 -0.166667  0.285714      2.000000
  0.285714 -0.166667 -0.285714      2.000000
  0.428571  0.166667  0.285714      2.000000
 -0.428571  0.166667 -0.285714      2.000000
 -0.428571 -0.166667  0.285714      2.000000
  0.428571 -0.166667 -0.285714      2.000000
  0.000000  0.250000  0.285714      2.000000
  0.000000  0.250000 -0.285714      2.000000
  0.142857  0.250000  0.285714      2.000000
 -0.142857  0.250000 -0.285714      2.000000
 -0.142857 -0.250000  0.285714      2.000000
  0.142857 -0.250000 -0.285714      2.000000
  0.285714  0.250000  0.285714      2.000000
 -0.285714  0.250000 -0.285714      2.000000
 -0.285714 -0.250000  0.285714      2.000000
  0.285714 -0.250000 -0.285714      2.000000
  0.428571  0.250000  0.285714      2.000000
 -0.428571  0.250000 -0.285714      2.000000
 -0.428571 -0.250000  0.285714      2.000000
  0.428571 -0.250000 -0.285714      2.000000
  0.000000  0.333333  0.285714      2.000000
  0.000000  0.333333 -0.285714      2.000000
  0.142857  0.333333  0.285714      2.000000
 -0.142857  0.333333 -0.285714      2.000000
 -0.142857 -0.333333  0.285714      2.000000
  0.142857 -0.333333 -0.285714      2.000000
  0.285714  0.333333  0.285714      2.000000
 -0.285714  0.333333 -0.285714      2.000000
 -0.285714 -0.333333  0.285714      2.000000
  0.285714 -0.333333 -0.285714      2.000000
  0.428571  0.333333  0.285714      2.000000
 -0.428571  0.333333 -0.285714      2.000000
 -0.428571 -0.333333  0.285714      2.000000
  0.428571 -0.333333 -0.285714      2.000000
  0.000000  0.416667  0.285714      2.000000
  0.000000  0.416667 -0.285714      2.000000
  0.142857  0.416667  0.285714      2.000000
 -0.142857  0.416667 -0.285714      2.000000
 -0.142857 -0.416667  0.285714      2.000000
  0.142857 -0.416667 -0.285714      2.000000
  0.285714  0.416667  0.285714      2.000000
 -0.285714  0.416667 -0.285714      2.000000
 -0.285714 -0.416667  0.285714      2.000000
  0.285714 -0.416667 -0.285714      2.000000
  0.428571  0.416667  0.285714      2.000000
 -0.428571  0.416667 -0.285714      2.000000
 -0.428571 -0.416667  0.285714      2.000000
  0.428571 -0.416667 -0.285714      2.000000
  0.000000  0.500000  0.285714      2.000000
  0.142857  0.500000  0.285714      2.000000
 -0.142857  0.500000  0.285714      2.000000
  0.285714  0.500000  0.285714      2.000000
 -0.285714  0.500000  0.285714      2.000000
  0.428571  0.500000  0.285714      2.000000
 -0.428571  0.500000  0.285714      2.000000
  0.000000  0.000000  0.428571      2.000000
  0.142857  0.000000  0.428571      2.000000
 -0.142857  0.000000  0.428571      2.000000
  0.285714  0.000000  0.428571      2.000000
 -0.285714  0.000000  0.428571      2.000000
  0.428571  0.000000  0.428571      2.000000
 -0.428571  0.000000  0.428571      2.000000
  0.000000  0.083333  0.428571      2.000000
  0.000000  0.083333 -0.428571      2.000000
  0.142857  0.083333  0.428571      2.000000
 -0.142857  0.083333 -0.428571      2.000000
 -0.142857 -0.083333  0.428571      2.000000
  0.142857 -0.083333 -0.428571      2.000000
  0.285714  0.083333  0.428571      2.000000
 -0.285714  0.083333 -0.428571      2.000000
 -0.285714 -0.083333  0.428571      2.000000
  0.285714 -0.083333 -0.428571      2.000000
  0.428571  0.083333  0.428571      2.000000
 -0.428571  0.083333 -0.428571      2.000000
 -0.428571 -0.083333  0.428571      2.000000
  0.428571 -0.083333 -0.428571      2.000000
  0.000000  0.166667  0.428571      2.000000
  0.000000  0.166667 -0.428571      2.000000
  0.142857  0.166667  0.428571      2.000000
 -0.142857  0.166667 -0.428571      2.000000
 -0.142857 -0.166667  0.428571      2.000000
  0.142857 -0.166667 -0.428571      2.000000
  0.285714  0.166667  0.428571      2.000000
 -0.285714  0.166667 -0.428571      2.000000
 -0.285714 -0.166667  0.428571      2.000000
  0.285714 -0.166667 -0.428571      2.000000
  0.428571  0.166667  0.428571      2.000000
 -0.428571  0.166667 -0.428571      2.000000
 -0.428571 -0.166667  0.428571      2.000000
  0.428571 -0.166667 -0.428571      2.000000
  0.000000  0.250000  0.428571      2.000000
  0.000000  0.250000 -0.428571      2.000000
  0.142857  0.250000  0.428571      2.000000
 -0.142857  0.250000 -0.428571      2.000000
 -0.142857 -0.250000  0.428571      2.000000
  0.142857 -0.250000 -0.428571      2.000000
  0.285714  0.250000  0.428571      2.000000
 -0.285714  0.250000 -0.428571      2.000000
 -0.285714 -0.250000  0.428571      2.000000
  0.285714 -0.250000 -0.428571      2.000000
  0.428571  0.250000  0.428571      2.000000
 -0.428571  0.250000 -0.428571      2.000000
 -0.428571 -0.250000  0.428571      2.000000
  0.428571 -0.250000 -0.428571      2.000000
  0.000000  0.333333  0.428571      2.000000
  0.000000  0.333333 -0.428571      2.000000
  0.142857  0.333333  0.428571      2.000000
 -0.142857  0.333333 -0.428571      2.000000
 -0.142857 -0.333333  0.428571      2.000000
  0.142857 -0.333333 -0.428571      2.000000
  0.285714  0.333333  0.428571      2.000000
 -0.285714  0.333333 -0.428571      2.000000
 -0.285714 -0.333333  0.428571      2.000000
  0.285714 -0.333333 -0.428571      2.000000
  0.428571  0.333333  0.428571      2.000000
 -0.428571  0.333333 -0.428571      2.000000
 -0.428571 -0.333333  0.428571      2.000000
  0.428571 -0.333333 -0.428571      2.000000
  0.000000  0.416667  0.428571      2.000000
  0.000000  0.416667 -0.428571      2.000000
  0.142857  0.416667  0.428571      2.000000
 -0.142857  0.416667 -0.428571      2.000000
 -0.142857 -0.416667  0.428571      2.000000
  0.142857 -0.416667 -0.428571      2.000000
  0.285714  0.416667  0.428571      2.000000
 -0.285714  0.416667 -0.428571      2.000000
 -0.285714 -0.416667  0.428571      2.000000
  0.285714 -0.416667 -0.428571      2.000000
  0.428571  0.416667  0.428571      2.000000
 -0.428571  0.416667 -0.428571      2.000000
 -0.428571 -0.416667  0.428571      2.000000
  0.428571 -0.416667 -0.428571      2.000000
  0.000000  0.500000  0.428571      2.000000
  0.142857  0.500000  0.428571      2.000000
 -0.142857  0.500000  0.428571      2.000000
  0.285714  0.500000  0.428571      2.000000
 -0.285714  0.500000  0.428571      2.000000
  0.428571  0.500000  0.428571      2.000000
 -0.428571  0.500000  0.428571      2.000000
 
 Following cartesian coordinates:
            Coordinates               Weight
  0.000000 -0.000000  0.000000      1.000000
  0.000000 -0.017927  0.000000      2.000000
  0.000000 -0.035854  0.000000      2.000000
  0.000000 -0.053782  0.000000      2.000000
  0.018113 -0.000000  0.000000      2.000000
  0.018113 -0.017927  0.000000      2.000000
  0.018113  0.017927  0.000000      2.000000
  0.018113 -0.035854  0.000000      2.000000
  0.018113  0.035854  0.000000      2.000000
  0.018113 -0.053782  0.000000      2.000000
  0.018113  0.053782  0.000000      2.000000
  0.036226 -0.000000  0.000000      2.000000
  0.036226 -0.017927  0.000000      2.000000
  0.036226  0.017927  0.000000      2.000000
  0.036226 -0.035854  0.000000      2.000000
  0.036226  0.035854  0.000000      2.000000
  0.036226 -0.053782  0.000000      2.000000
  0.036226  0.053782  0.000000      2.000000
  0.054339 -0.000000  0.000000      2.000000
  0.054339 -0.017927  0.000000      2.000000
  0.054339  0.017927  0.000000      2.000000
  0.054339 -0.035854  0.000000      2.000000
  0.054339  0.035854  0.000000      2.000000
  0.054339 -0.053782  0.000000      2.000000
  0.054339  0.053782  0.000000      2.000000
  0.072452 -0.000000  0.000000      2.000000
  0.072452 -0.017927  0.000000      2.000000
  0.072452  0.017927  0.000000      2.000000
  0.072452 -0.035854  0.000000      2.000000
  0.072452  0.035854  0.000000      2.000000
  0.072452 -0.053782  0.000000      2.000000
  0.072452  0.053782  0.000000      2.000000
  0.090565 -0.000000  0.000000      2.000000
  0.090565 -0.017927  0.000000      2.000000
  0.090565  0.017927  0.000000      2.000000
  0.090565 -0.035854  0.000000      2.000000
  0.090565  0.035854  0.000000      2.000000
  0.090565 -0.053782  0.000000      2.000000
  0.090565  0.053782  0.000000      2.000000
  0.108678 -0.000000  0.000000      1.000000
  0.108678 -0.017927  0.000000      2.000000
  0.108678 -0.035854  0.000000      2.000000
  0.108678 -0.053782  0.000000      2.000000
  0.000000 -0.000000  0.019620      2.000000
  0.000000 -0.017927  0.019620      2.000000
  0.000000  0.017927  0.019620      2.000000
  0.000000 -0.035854  0.019620      2.000000
  0.000000  0.035854  0.019620      2.000000
  0.000000 -0.053782  0.019620      2.000000
  0.000000  0.053782  0.019620      2.000000
  0.018113 -0.000000  0.019620      2.000000
  0.018113 -0.000000 -0.019620      2.000000
  0.018113 -0.017927  0.019620      2.000000
  0.018113  0.017927 -0.019620      2.000000
 -0.018113  0.017927  0.019620      2.000000
 -0.018113 -0.017927 -0.019620      2.000000
  0.018113 -0.035854  0.019620      2.000000
  0.018113  0.035854 -0.019620      2.000000
 -0.018113  0.035854  0.019620      2.000000
 -0.018113 -0.035854 -0.019620      2.000000
  0.018113 -0.053782  0.019620      2.000000
  0.018113  0.053782 -0.019620      2.000000
 -0.018113  0.053782  0.019620      2.000000
 -0.018113 -0.053782 -0.019620      2.000000
  0.036226 -0.000000  0.019620      2.000000
  0.036226 -0.000000 -0.019620      2.000000
  0.036226 -0.017927  0.019620      2.000000
  0.036226  0.017927 -0.019620      2.000000
 -0.036226  0.017927  0.019620      2.000000
 -0.036226 -0.017927 -0.019620      2.000000
  0.036226 -0.035854  0.019620      2.000000
  0.036226  0.035854 -0.019620      2.000000
 -0.036226  0.035854  0.019620      2.000000
 -0.036226 -0.035854 -0.019620      2.000000
  0.036226 -0.053782  0.019620      2.000000
  0.036226  0.053782 -0.019620      2.000000
 -0.036226  0.053782  0.019620      2.000000
 -0.036226 -0.053782 -0.019620      2.000000
  0.054339 -0.000000  0.019620      2.000000
  0.054339 -0.000000 -0.019620      2.000000
  0.054339 -0.017927  0.019620      2.000000
  0.054339  0.017927 -0.019620      2.000000
 -0.054339  0.017927  0.019620      2.000000
 -0.054339 -0.017927 -0.019620      2.000000
  0.054339 -0.035854  0.019620      2.000000
  0.054339  0.035854 -0.019620      2.000000
 -0.054339  0.035854  0.019620      2.000000
 -0.054339 -0.035854 -0.019620      2.000000
  0.054339 -0.053782  0.019620      2.000000
  0.054339  0.053782 -0.019620      2.000000
 -0.054339  0.053782  0.019620      2.000000
 -0.054339 -0.053782 -0.019620      2.000000
  0.072452 -0.000000  0.019620      2.000000
  0.072452 -0.000000 -0.019620      2.000000
  0.072452 -0.017927  0.019620      2.000000
  0.072452  0.017927 -0.019620      2.000000
 -0.072452  0.017927  0.019620      2.000000
 -0.072452 -0.017927 -0.019620      2.000000
  0.072452 -0.035854  0.019620      2.000000
  0.072452  0.035854 -0.019620      2.000000
 -0.072452  0.035854  0.019620      2.000000
 -0.072452 -0.035854 -0.019620      2.000000
  0.072452 -0.053782  0.019620      2.000000
  0.072452  0.053782 -0.019620      2.000000
 -0.072452  0.053782  0.019620      2.000000
 -0.072452 -0.053782 -0.019620      2.000000
  0.090565 -0.000000  0.019620      2.000000
  0.090565 -0.000000 -0.019620      2.000000
  0.090565 -0.017927  0.019620      2.000000
  0.090565  0.017927 -0.019620      2.000000
 -0.090565  0.017927  0.019620      2.000000
 -0.090565 -0.017927 -0.019620      2.000000
  0.090565 -0.035854  0.019620      2.000000
  0.090565  0.035854 -0.019620      2.000000
 -0.090565  0.035854  0.019620      2.000000
 -0.090565 -0.035854 -0.019620      2.000000
  0.090565 -0.053782  0.019620      2.000000
  0.090565  0.053782 -0.019620      2.000000
 -0.090565  0.053782  0.019620      2.000000
 -0.090565 -0.053782 -0.019620      2.000000
  0.108678 -0.000000  0.019620      2.000000
  0.108678 -0.017927  0.019620      2.000000
  0.108678  0.017927  0.019620      2.000000
  0.108678 -0.035854  0.019620      2.000000
  0.108678  0.035854  0.019620      2.000000
  0.108678 -0.053782  0.019620      2.000000
  0.108678  0.053782  0.019620      2.000000
  0.000000 -0.000000  0.039239      2.000000
  0.000000 -0.017927  0.039239      2.000000
  0.000000  0.017927  0.039239      2.000000
  0.000000 -0.035854  0.039239      2.000000
  0.000000  0.035854  0.039239      2.000000
  0.000000 -0.053782  0.039239      2.000000
  0.000000  0.053782  0.039239      2.000000
  0.018113 -0.000000  0.039239      2.000000
  0.018113 -0.000000 -0.039239      2.000000
  0.018113 -0.017927  0.039239      2.000000
  0.018113  0.017927 -0.039239      2.000000
 -0.018113  0.017927  0.039239      2.000000
 -0.018113 -0.017927 -0.039239      2.000000
  0.018113 -0.035854  0.039239      2.000000
  0.018113  0.035854 -0.039239      2.000000
 -0.018113  0.035854  0.039239      2.000000
 -0.018113 -0.035854 -0.039239      2.000000
  0.018113 -0.053782  0.039239      2.000000
  0.018113  0.053782 -0.039239      2.000000
 -0.018113  0.053782  0.039239      2.000000
 -0.018113 -0.053782 -0.039239      2.000000
  0.036226 -0.000000  0.039239      2.000000
  0.036226 -0.000000 -0.039239      2.000000
  0.036226 -0.017927  0.039239      2.000000
  0.036226  0.017927 -0.039239      2.000000
 -0.036226  0.017927  0.039239      2.000000
 -0.036226 -0.017927 -0.039239      2.000000
  0.036226 -0.035854  0.039239      2.000000
  0.036226  0.035854 -0.039239      2.000000
 -0.036226  0.035854  0.039239      2.000000
 -0.036226 -0.035854 -0.039239      2.000000
  0.036226 -0.053782  0.039239      2.000000
  0.036226  0.053782 -0.039239      2.000000
 -0.036226  0.053782  0.039239      2.000000
 -0.036226 -0.053782 -0.039239      2.000000
  0.054339 -0.000000  0.039239      2.000000
  0.054339 -0.000000 -0.039239      2.000000
  0.054339 -0.017927  0.039239      2.000000
  0.054339  0.017927 -0.039239      2.000000
 -0.054339  0.017927  0.039239      2.000000
 -0.054339 -0.017927 -0.039239      2.000000
  0.054339 -0.035854  0.039239      2.000000
  0.054339  0.035854 -0.039239      2.000000
 -0.054339  0.035854  0.039239      2.000000
 -0.054339 -0.035854 -0.039239      2.000000
  0.054339 -0.053782  0.039239      2.000000
  0.054339  0.053782 -0.039239      2.000000
 -0.054339  0.053782  0.039239      2.000000
 -0.054339 -0.053782 -0.039239      2.000000
  0.072452 -0.000000  0.039239      2.000000
  0.072452 -0.000000 -0.039239      2.000000
  0.072452 -0.017927  0.039239      2.000000
  0.072452  0.017927 -0.039239      2.000000
 -0.072452  0.017927  0.039239      2.000000
 -0.072452 -0.017927 -0.039239      2.000000
  0.072452 -0.035854  0.039239      2.000000
  0.072452  0.035854 -0.039239      2.000000
 -0.072452  0.035854  0.039239      2.000000
 -0.072452 -0.035854 -0.039239      2.000000
  0.072452 -0.053782  0.039239      2.000000
  0.072452  0.053782 -0.039239      2.000000
 -0.072452  0.053782  0.039239      2.000000
 -0.072452 -0.053782 -0.039239      2.000000
  0.090565 -0.000000  0.039239      2.000000
  0.090565 -0.000000 -0.039239      2.000000
  0.090565 -0.017927  0.039239      2.000000
  0.090565  0.017927 -0.039239      2.000000
 -0.090565  0.017927  0.039239      2.000000
 -0.090565 -0.017927 -0.039239      2.000000
  0.090565 -0.035854  0.039239      2.000000
  0.090565  0.035854 -0.039239      2.000000
 -0.090565  0.035854  0.039239      2.000000
 -0.090565 -0.035854 -0.039239      2.000000
  0.090565 -0.053782  0.039239      2.000000
  0.090565  0.053782 -0.039239      2.000000
 -0.090565  0.053782  0.039239      2.000000
 -0.090565 -0.053782 -0.039239      2.000000
  0.108678 -0.000000  0.039239      2.000000
  0.108678 -0.017927  0.039239      2.000000
  0.108678  0.017927  0.039239      2.000000
  0.108678 -0.035854  0.039239      2.000000
  0.108678  0.035854  0.039239      2.000000
  0.108678 -0.053782  0.039239      2.000000
  0.108678  0.053782  0.039239      2.000000
  0.000000 -0.000000  0.058859      2.000000
  0.000000 -0.017927  0.058859      2.000000
  0.000000  0.017927  0.058859      2.000000
  0.000000 -0.035854  0.058859      2.000000
  0.000000  0.035854  0.058859      2.000000
  0.000000 -0.053782  0.058859      2.000000
  0.000000  0.053782  0.058859      2.000000
  0.018113 -0.000000  0.058859      2.000000
  0.018113 -0.000000 -0.058859      2.000000
  0.018113 -0.017927  0.058859      2.000000
  0.018113  0.017927 -0.058859      2.000000
 -0.018113  0.017927  0.058859      2.000000
 -0.018113 -0.017927 -0.058859      2.000000
  0.018113 -0.035854  0.058859      2.000000
  0.018113  0.035854 -0.058859      2.000000
 -0.018113  0.035854  0.058859      2.000000
 -0.018113 -0.035854 -0.058859      2.000000
  0.018113 -0.053782  0.058859      2.000000
  0.018113  0.053782 -0.058859      2.000000
 -0.018113  0.053782  0.058859      2.000000
 -0.018113 -0.053782 -0.058859      2.000000
  0.036226 -0.000000  0.058859      2.000000
  0.036226 -0.000000 -0.058859      2.000000
  0.036226 -0.017927  0.058859      2.000000
  0.036226  0.017927 -0.058859      2.000000
 -0.036226  0.017927  0.058859      2.000000
 -0.036226 -0.017927 -0.058859      2.000000
  0.036226 -0.035854  0.058859      2.000000
  0.036226  0.035854 -0.058859      2.000000
 -0.036226  0.035854  0.058859      2.000000
 -0.036226 -0.035854 -0.058859      2.000000
  0.036226 -0.053782  0.058859      2.000000
  0.036226  0.053782 -0.058859      2.000000
 -0.036226  0.053782  0.058859      2.000000
 -0.036226 -0.053782 -0.058859      2.000000
  0.054339 -0.000000  0.058859      2.000000
  0.054339 -0.000000 -0.058859      2.000000
  0.054339 -0.017927  0.058859      2.000000
  0.054339  0.017927 -0.058859      2.000000
 -0.054339  0.017927  0.058859      2.000000
 -0.054339 -0.017927 -0.058859      2.000000
  0.054339 -0.035854  0.058859      2.000000
  0.054339  0.035854 -0.058859      2.000000
 -0.054339  0.035854  0.058859      2.000000
 -0.054339 -0.035854 -0.058859      2.000000
  0.054339 -0.053782  0.058859      2.000000
  0.054339  0.053782 -0.058859      2.000000
 -0.054339  0.053782  0.058859      2.000000
 -0.054339 -0.053782 -0.058859      2.000000
  0.072452 -0.000000  0.058859      2.000000
  0.072452 -0.000000 -0.058859      2.000000
  0.072452 -0.017927  0.058859      2.000000
  0.072452  0.017927 -0.058859      2.000000
 -0.072452  0.017927  0.058859      2.000000
 -0.072452 -0.017927 -0.058859      2.000000
  0.072452 -0.035854  0.058859      2.000000
  0.072452  0.035854 -0.058859      2.000000
 -0.072452  0.035854  0.058859      2.000000
 -0.072452 -0.035854 -0.058859      2.000000
  0.072452 -0.053782  0.058859      2.000000
  0.072452  0.053782 -0.058859      2.000000
 -0.072452  0.053782  0.058859      2.000000
 -0.072452 -0.053782 -0.058859      2.000000
  0.090565 -0.000000  0.058859      2.000000
  0.090565 -0.000000 -0.058859      2.000000
  0.090565 -0.017927  0.058859      2.000000
  0.090565  0.017927 -0.058859      2.000000
 -0.090565  0.017927  0.058859      2.000000
 -0.090565 -0.017927 -0.058859      2.000000
  0.090565 -0.035854  0.058859      2.000000
  0.090565  0.035854 -0.058859      2.000000
 -0.090565  0.035854  0.058859      2.000000
 -0.090565 -0.035854 -0.058859      2.000000
  0.090565 -0.053782  0.058859      2.000000
  0.090565  0.053782 -0.058859      2.000000
 -0.090565  0.053782  0.058859      2.000000
 -0.090565 -0.053782 -0.058859      2.000000
  0.108678 -0.000000  0.058859      2.000000
  0.108678 -0.017927  0.058859      2.000000
  0.108678  0.017927  0.058859      2.000000
  0.108678 -0.035854  0.058859      2.000000
  0.108678  0.035854  0.058859      2.000000
  0.108678 -0.053782  0.058859      2.000000
  0.108678  0.053782  0.058859      2.000000
 


--------------------------------------------------------------------------------------------------------




 Dimension of arrays:
   k-points           NKPTS =    295   k-points in BZ     NKDIM =    295   number of bands    NBANDS=     32
   number of dos      NEDOS =    301   number of ions     NIONS =     10
   non local maximal  LDIM  =      5   non local SUM 2l+1 LMDIM =     13
   total plane-waves  NPLWV = 179200
   max r-space proj   IRMAX =      1   max aug-charges    IRDMAX=  37449
   dimension x,y,z NGX =    70 NGY =   40 NGZ =   64
   dimension x,y,z NGXF=   140 NGYF=   80 NGZF=  128
   support grid    NGXF=   140 NGYF=   80 NGZF=  128
   ions per type =               6   4
   NGX,Y,Z   is equivalent  to a cutoff of  14.60, 14.45, 14.61 a.u.
   NGXF,Y,Z  is equivalent  to a cutoff of  29.21, 28.91, 29.22 a.u.

 SYSTEM =  unknown system                          
 POSCAR =  Mg6 Sb4                                 

 Startparameter for this run:
   NWRITE =      2    write-flag & timer
   PREC   = accura    normal or accurate (medium, high low for compatibility)
   ISTART =      0    job   : 0-new  1-cont  2-samecut
   ICHARG =      2    charge: 1-file 2-atom 10-const
   ISPIN  =      2    spin polarized calculation?
   LNONCOLLINEAR =      F non collinear calculations
   LSORBIT =      F    spin-orbit coupling
   INIWAV =      1    electr: 0-lowe 1-rand  2-diag
   LASPH  =      T    aspherical Exc in radial PAW
 Electronic Relaxation 1
   ENCUT  =  700.0 eV  51.45 Ry    7.17 a.u.  17.19  9.93 15.71*2*pi/ulx,y,z
   ENINI  =  700.0     initial cutoff
   ENAUG  = 1360.0 eV  augmentation charge cutoff
   NELM   =    200;   NELMIN=  2; NELMDL= -5     # of ELM steps 
   EDIFF  = 0.1E-06   stopping-criterion for ELM
   LREAL  =      F    real-space projection
   NLSPLINE    = F    spline interpolate recip. space projectors
   LCOMPAT=      F    compatible to vasp.4.4
   GGA_COMPAT  = T    GGA compatible to vasp.4.4-vasp.4.6
   LMAXPAW     = -100 max onsite density
   LMAXMIX     =    4 max onsite mixed and CHGCAR
   VOSKOWN=      0    Vosko Wilk Nusair interpolation
   ROPT   =    0.00000   0.00000
 Ionic relaxation
   EDIFFG = 0.1E-05   stopping-criterion for IOM
   NSW    =      0    number of steps for IOM
   NBLOCK =      1;   KBLOCK =      1    inner block; outer block 
   IBRION =     -1    ionic relax: 0-MD 1-quasi-New 2-CG
   NFREE  =      1    steps in history (QN), initial steepest desc. (CG)
   ISIF   =      3    stress and relaxation
   IWAVPR =     10    prediction:  0-non 1-charg 2-wave 3-comb
   ISYM   =      2    0-nonsym 1-usesym 2-fastsym
   LCORR  =      T    Harris-Foulkes like correction to forces

   POTIM  = 0.5000    time-step for ionic-motion
   TEIN   =    0.0    initial temperature
   TEBEG  =    0.0;   TEEND  =   0.0 temperature during run
   SMASS  =  -3.00    Nose mass-parameter (am)
   estimated Nose-frequenzy (Omega)   =  0.10E-29 period in steps = 0.13E+47 mass=  -0.145E-26a.u.
   SCALEE = 1.0000    scale energy and forces
   NPACO  =    256;   APACO  = 16.0  distance and # of slots for P.C.
   PSTRESS=    0.0 pullay stress

  Mass of Ions in am
   POMASS =  24.30121.75
  Ionic Valenz
   ZVAL   =   2.00  5.00
  Atomic Wigner-Seitz radii
   RWIGS  =  -1.00 -1.00
  virtual crystal weights 
   VCA    =   1.00  1.00
   NELECT =      32.0000    total number of electrons
   NUPDOWN=      -1.0000    fix difference up-down

 DOS related values:
   EMIN   =  10.00;   EMAX   =-10.00  energy-range for DOS
   EFERMI =   0.00
   ISMEAR =     0;   SIGMA  =   0.05  broadening in eV -4-tet -1-fermi 0-gaus

 Electronic relaxation 2 (details)
   IALGO  =     38    algorithm
   LDIAG  =      T    sub-space diagonalisation (order eigenvalues)
   LSUBROT=      F    optimize rotation matrix (better conditioning)
   TURBO    =      0    0=normal 1=particle mesh
   IRESTART =      0    0=no restart 2=restart with 2 vectors
   NREBOOT  =      0    no. of reboots
   NMIN     =      0    reboot dimension
   EREF     =   0.00    reference energy to select bands
   IMIX   =      4    mixing-type and parameters
     AMIX     =   0.40;   BMIX     =  1.00
     AMIX_MAG =   1.60;   BMIX_MAG =  1.00
     AMIN     =   0.10
     WC   =   100.;   INIMIX=   1;  MIXPRE=   1;  MAXMIX= -45

 Intra band minimization:
   WEIMIN = 0.0000     energy-eigenvalue tresh-hold
   EBREAK =  0.78E-09  absolut break condition
   DEPER  =   0.30     relativ break condition  

   TIME   =   0.40     timestep for ELM

  volume/ion in A,a.u.               =      26.69       180.15
  Fermi-wavevector in a.u.,A,eV,Ry     =   0.807202  1.525391  8.865224  0.651576
  Thomas-Fermi vector in A             =   1.915778

 Write flags
   LWAVE        =      F    write WAVECAR
   LDOWNSAMPLE  =      F    k-point downsampling of WAVECAR
   LCHARG       =      F    write CHGCAR
   LVTOT        =      T    write LOCPOT, total local potential
   LVHAR        =      F    write LOCPOT, Hartree potential only
   LELF         =      F    write electronic localiz. function (ELF)
   LORBIT       =     11    0 simple, 1 ext, 2 COOP (PROOUT), +10 PAW based schemes


 Dipole corrections
   LMONO  =      F    monopole corrections only (constant potential shift)
   LDIPOL =      F    correct potential (dipole corrections)
   IDIPOL =      0    1-x, 2-y, 3-z, 4-all directions 
   EPSILON=  1.0000000 bulk dielectric constant

 Exchange correlation treatment:
   GGA     =    PS    GGA type
   LEXCH   =    14    internal setting for exchange type
   VOSKOWN=      0    Vosko Wilk Nusair interpolation
   LHFCALC =     F    Hartree Fock is set to
   LHFONE  =     F    Hartree Fock one center treatment
   AEXX    =    0.0000 exact exchange contribution

 Linear response parameters
   LEPSILON=     F    determine dielectric tensor
   LRPA    =     F    only Hartree local field effects (RPA)
   LNABLA  =     F    use nabla operator in PAW spheres
   LVEL    =     F    velocity operator in full k-point grid
   LINTERFAST=   F  fast interpolation
   KINTER  =     0    interpolate to denser k-point grid
   CSHIFT  =0.1000    complex shift for real part using Kramers Kronig
   OMEGAMAX=  -1.0    maximum frequency
   DEG_THRESHOLD= 0.2000000E-02 threshold for treating states as degnerate
   RTIME   =   -0.100 relaxation time in fs
  (WPLASMAI=    0.000 imaginary part of plasma frequency in eV, 0.658/RTIME)
   DFIELD  = 0.0000000 0.0000000 0.0000000 field for delta impulse in time

 Orbital magnetization related:
   ORBITALMAG=     F  switch on orbital magnetization
   LCHIMAG   =     F  perturbation theory with respect to B field
   DQ        =  0.001000  dq finite difference perturbation B field
   LLRAUG    =     F  two centre corrections for induced B field



--------------------------------------------------------------------------------------------------------


 Static calculation
 charge density and potential will be updated during run
 spin polarized calculation
 Variant of blocked Davidson
 Davidson routine will perform the subspace rotation
 perform sub-space diagonalisation
    after iterative eigenvector-optimisation
 modified Broyden-mixing scheme, WC =      100.0
 initial mixing is a Kerker type mixing with AMIX =  0.4000 and BMIX =      1.0000
 Hartree-type preconditioning will be used
 using additional bands           16
 reciprocal scheme for non local part
 use partial core corrections
 calculate Harris-corrections to forces   (improved forces if not selfconsistent)
 use gradient corrections 
 use of overlap-Matrix (Vanderbilt PP)
 Gauss-broadening in eV      SIGMA  =   0.05


--------------------------------------------------------------------------------------------------------


  energy-cutoff  :      700.00
  volume of cell :      266.95
      direct lattice vectors                 reciprocal lattice vectors
     0.000000000 -7.968720590  0.000000000     0.000000000 -0.125490659  0.000000000
     4.600742978  0.000000000  0.000000000     0.217356198  0.000000000 -0.000000000
     0.000000000  0.000000000  7.281330000    -0.000000000  0.000000000  0.137337547

  length of vectors
     7.968720590  4.600742978  7.281330000     0.125490659  0.217356198  0.137337547



 k-points in units of 2pi/SCALE and weight: pymatgen with grid density = 7000 / numb
   0.00000000 -0.00000000  0.00000000       0.002
   0.00000000 -0.01792724  0.00000000       0.003
   0.00000000 -0.03585447  0.00000000       0.003
   0.00000000 -0.05378171  0.00000000       0.003
   0.01811302 -0.00000000  0.00000000       0.003
   0.01811302 -0.01792724  0.00000000       0.003
   0.01811302  0.01792724  0.00000000       0.003
   0.01811302 -0.03585447  0.00000000       0.003
   0.01811302  0.03585447  0.00000000       0.003
   0.01811302 -0.05378171  0.00000000       0.003
   0.01811302  0.05378171  0.00000000       0.003
   0.03622603 -0.00000000  0.00000000       0.003
   0.03622603 -0.01792724  0.00000000       0.003
   0.03622603  0.01792724  0.00000000       0.003
   0.03622603 -0.03585447  0.00000000       0.003
   0.03622603  0.03585447  0.00000000       0.003
   0.03622603 -0.05378171  0.00000000       0.003
   0.03622603  0.05378171  0.00000000       0.003
   0.05433905 -0.00000000  0.00000000       0.003
   0.05433905 -0.01792724  0.00000000       0.003
   0.05433905  0.01792724  0.00000000       0.003
   0.05433905 -0.03585447  0.00000000       0.003
   0.05433905  0.03585447  0.00000000       0.003
   0.05433905 -0.05378171  0.00000000       0.003
   0.05433905  0.05378171  0.00000000       0.003
   0.07245207 -0.00000000  0.00000000       0.003
   0.07245207 -0.01792724  0.00000000       0.003
   0.07245207  0.01792724  0.00000000       0.003
   0.07245207 -0.03585447  0.00000000       0.003
   0.07245207  0.03585447  0.00000000       0.003
   0.07245207 -0.05378171  0.00000000       0.003
   0.07245207  0.05378171  0.00000000       0.003
   0.09056508 -0.00000000  0.00000000       0.003
   0.09056508 -0.01792724  0.00000000       0.003
   0.09056508  0.01792724  0.00000000       0.003
   0.09056508 -0.03585447  0.00000000       0.003
   0.09056508  0.03585447  0.00000000       0.003
   0.09056508 -0.05378171  0.00000000       0.003
   0.09056508  0.05378171  0.00000000       0.003
   0.10867810 -0.00000000  0.00000000       0.002
   0.10867810 -0.01792724  0.00000000       0.003
   0.10867810 -0.03585447  0.00000000       0.003
   0.10867810 -0.05378171  0.00000000       0.003
   0.00000000 -0.00000000  0.01961965       0.003
   0.00000000 -0.01792724  0.01961965       0.003
   0.00000000  0.01792724  0.01961965       0.003
   0.00000000 -0.03585447  0.01961965       0.003
   0.00000000  0.03585447  0.01961965       0.003
   0.00000000 -0.05378171  0.01961965       0.003
   0.00000000  0.05378171  0.01961965       0.003
   0.01811302 -0.00000000  0.01961965       0.003
   0.01811302 -0.00000000 -0.01961965       0.003
   0.01811302 -0.01792724  0.01961965       0.003
   0.01811302  0.01792724 -0.01961965       0.003
  -0.01811302  0.01792724  0.01961965       0.003
  -0.01811302 -0.01792724 -0.01961965       0.003
   0.01811302 -0.03585447  0.01961965       0.003
   0.01811302  0.03585447 -0.01961965       0.003
  -0.01811302  0.03585447  0.01961965       0.003
  -0.01811302 -0.03585447 -0.01961965       0.003
   0.01811302 -0.05378171  0.01961965       0.003
   0.01811302  0.05378171 -0.01961965       0.003
  -0.01811302  0.05378171  0.01961965       0.003
  -0.01811302 -0.05378171 -0.01961965       0.003
   0.03622603 -0.00000000  0.01961965       0.003
   0.03622603 -0.00000000 -0.01961965       0.003
   0.03622603 -0.01792724  0.01961965       0.003
   0.03622603  0.01792724 -0.01961965       0.003
  -0.03622603  0.01792724  0.01961965       0.003
  -0.03622603 -0.01792724 -0.01961965       0.003
   0.03622603 -0.03585447  0.01961965       0.003
   0.03622603  0.03585447 -0.01961965       0.003
  -0.03622603  0.03585447  0.01961965       0.003
  -0.03622603 -0.03585447 -0.01961965       0.003
   0.03622603 -0.05378171  0.01961965       0.003
   0.03622603  0.05378171 -0.01961965       0.003
  -0.03622603  0.05378171  0.01961965       0.003
  -0.03622603 -0.05378171 -0.01961965       0.003
   0.05433905 -0.00000000  0.01961965       0.003
   0.05433905 -0.00000000 -0.01961965       0.003
   0.05433905 -0.01792724  0.01961965       0.003
   0.05433905  0.01792724 -0.01961965       0.003
  -0.05433905  0.01792724  0.01961965       0.003
  -0.05433905 -0.01792724 -0.01961965       0.003
   0.05433905 -0.03585447  0.01961965       0.003
   0.05433905  0.03585447 -0.01961965       0.003
  -0.05433905  0.03585447  0.01961965       0.003
  -0.05433905 -0.03585447 -0.01961965       0.003
   0.05433905 -0.05378171  0.01961965       0.003
   0.05433905  0.05378171 -0.01961965       0.003
  -0.05433905  0.05378171  0.01961965       0.003
  -0.05433905 -0.05378171 -0.01961965       0.003
   0.07245207 -0.00000000  0.01961965       0.003
   0.07245207 -0.00000000 -0.01961965       0.003
   0.07245207 -0.01792724  0.01961965       0.003
   0.07245207  0.01792724 -0.01961965       0.003
  -0.07245207  0.01792724  0.01961965       0.003
  -0.07245207 -0.01792724 -0.01961965       0.003
   0.07245207 -0.03585447  0.01961965       0.003
   0.07245207  0.03585447 -0.01961965       0.003
  -0.07245207  0.03585447  0.01961965       0.003
  -0.07245207 -0.03585447 -0.01961965       0.003
   0.07245207 -0.05378171  0.01961965       0.003
   0.07245207  0.05378171 -0.01961965       0.003
  -0.07245207  0.05378171  0.01961965       0.003
  -0.07245207 -0.05378171 -0.01961965       0.003
   0.09056508 -0.00000000  0.01961965       0.003
   0.09056508 -0.00000000 -0.01961965       0.003
   0.09056508 -0.01792724  0.01961965       0.003
   0.09056508  0.01792724 -0.01961965       0.003
  -0.09056508  0.01792724  0.01961965       0.003
  -0.09056508 -0.01792724 -0.01961965       0.003
   0.09056508 -0.03585447  0.01961965       0.003
   0.09056508  0.03585447 -0.01961965       0.003
  -0.09056508  0.03585447  0.01961965       0.003
  -0.09056508 -0.03585447 -0.01961965       0.003
   0.09056508 -0.05378171  0.01961965       0.003
   0.09056508  0.05378171 -0.01961965       0.003
  -0.09056508  0.05378171  0.01961965       0.003
  -0.09056508 -0.05378171 -0.01961965       0.003
   0.10867810 -0.00000000  0.01961965       0.003
   0.10867810 -0.01792724  0.01961965       0.003
   0.10867810  0.01792724  0.01961965       0.003
   0.10867810 -0.03585447  0.01961965       0.003
   0.10867810  0.03585447  0.01961965       0.003
   0.10867810 -0.05378171  0.01961965       0.003
   0.10867810  0.05378171  0.01961965       0.003
   0.00000000 -0.00000000  0.03923930       0.003
   0.00000000 -0.01792724  0.03923930       0.003
   0.00000000  0.01792724  0.03923930       0.003
   0.00000000 -0.03585447  0.03923930       0.003
   0.00000000  0.03585447  0.03923930       0.003
   0.00000000 -0.05378171  0.03923930       0.003
   0.00000000  0.05378171  0.03923930       0.003
   0.01811302 -0.00000000  0.03923930       0.003
   0.01811302 -0.00000000 -0.03923930       0.003
   0.01811302 -0.01792724  0.03923930       0.003
   0.01811302  0.01792724 -0.03923930       0.003
  -0.01811302  0.01792724  0.03923930       0.003
  -0.01811302 -0.01792724 -0.03923930       0.003
   0.01811302 -0.03585447  0.03923930       0.003
   0.01811302  0.03585447 -0.03923930       0.003
  -0.01811302  0.03585447  0.03923930       0.003
  -0.01811302 -0.03585447 -0.03923930       0.003
   0.01811302 -0.05378171  0.03923930       0.003
   0.01811302  0.05378171 -0.03923930       0.003
  -0.01811302  0.05378171  0.03923930       0.003
  -0.01811302 -0.05378171 -0.03923930       0.003
   0.03622603 -0.00000000  0.03923930       0.003
   0.03622603 -0.00000000 -0.03923930       0.003
   0.03622603 -0.01792724  0.03923930       0.003
   0.03622603  0.01792724 -0.03923930       0.003
  -0.03622603  0.01792724  0.03923930       0.003
  -0.03622603 -0.01792724 -0.03923930       0.003
   0.03622603 -0.03585447  0.03923930       0.003
   0.03622603  0.03585447 -0.03923930       0.003
  -0.03622603  0.03585447  0.03923930       0.003
  -0.03622603 -0.03585447 -0.03923930       0.003
   0.03622603 -0.05378171  0.03923930       0.003
   0.03622603  0.05378171 -0.03923930       0.003
  -0.03622603  0.05378171  0.03923930       0.003
  -0.03622603 -0.05378171 -0.03923930       0.003
   0.05433905 -0.00000000  0.03923930       0.003
   0.05433905 -0.00000000 -0.03923930       0.003
   0.05433905 -0.01792724  0.03923930       0.003
   0.05433905  0.01792724 -0.03923930       0.003
  -0.05433905  0.01792724  0.03923930       0.003
  -0.05433905 -0.01792724 -0.03923930       0.003
   0.05433905 -0.03585447  0.03923930       0.003
   0.05433905  0.03585447 -0.03923930       0.003
  -0.05433905  0.03585447  0.03923930       0.003
  -0.05433905 -0.03585447 -0.03923930       0.003
   0.05433905 -0.05378171  0.03923930       0.003
   0.05433905  0.05378171 -0.03923930       0.003
  -0.05433905  0.05378171  0.03923930       0.003
  -0.05433905 -0.05378171 -0.03923930       0.003
   0.07245207 -0.00000000  0.03923930       0.003
   0.07245207 -0.00000000 -0.03923930       0.003
   0.07245207 -0.01792724  0.03923930       0.003
   0.07245207  0.01792724 -0.03923930       0.003
  -0.07245207  0.01792724  0.03923930       0.003
  -0.07245207 -0.01792724 -0.03923930       0.003
   0.07245207 -0.03585447  0.03923930       0.003
   0.07245207  0.03585447 -0.03923930       0.003
  -0.07245207  0.03585447  0.03923930       0.003
  -0.07245207 -0.03585447 -0.03923930       0.003
   0.07245207 -0.05378171  0.03923930       0.003
   0.07245207  0.05378171 -0.03923930       0.003
  -0.07245207  0.05378171  0.03923930       0.003
  -0.07245207 -0.05378171 -0.03923930       0.003
   0.09056508 -0.00000000  0.03923930       0.003
   0.09056508 -0.00000000 -0.03923930       0.003
   0.09056508 -0.01792724  0.03923930       0.003
   0.09056508  0.01792724 -0.03923930       0.003
  -0.09056508  0.01792724  0.03923930       0.003
  -0.09056508 -0.01792724 -0.03923930       0.003
   0.09056508 -0.03585447  0.03923930       0.003
   0.09056508  0.03585447 -0.03923930       0.003
  -0.09056508  0.03585447  0.03923930       0.003
  -0.09056508 -0.03585447 -0.03923930       0.003
   0.09056508 -0.05378171  0.03923930       0.003
   0.09056508  0.05378171 -0.03923930       0.003
  -0.09056508  0.05378171  0.03923930       0.003
  -0.09056508 -0.05378171 -0.03923930       0.003
   0.10867810 -0.00000000  0.03923930       0.003
   0.10867810 -0.01792724  0.03923930       0.003
   0.10867810  0.01792724  0.03923930       0.003
   0.10867810 -0.03585447  0.03923930       0.003
   0.10867810  0.03585447  0.03923930       0.003
   0.10867810 -0.05378171  0.03923930       0.003
   0.10867810  0.05378171  0.03923930       0.003
   0.00000000 -0.00000000  0.05885895       0.003
   0.00000000 -0.01792724  0.05885895       0.003
   0.00000000  0.01792724  0.05885895       0.003
   0.00000000 -0.03585447  0.05885895       0.003
   0.00000000  0.03585447  0.05885895       0.003
   0.00000000 -0.05378171  0.05885895       0.003
   0.00000000  0.05378171  0.05885895       0.003
   0.01811302 -0.00000000  0.05885895       0.003
   0.01811302 -0.00000000 -0.05885895       0.003
   0.01811302 -0.01792724  0.05885895       0.003
   0.01811302  0.01792724 -0.05885895       0.003
  -0.01811302  0.01792724  0.05885895       0.003
  -0.01811302 -0.01792724 -0.05885895       0.003
   0.01811302 -0.03585447  0.05885895       0.003
   0.01811302  0.03585447 -0.05885895       0.003
  -0.01811302  0.03585447  0.05885895       0.003
  -0.01811302 -0.03585447 -0.05885895       0.003
   0.01811302 -0.05378171  0.05885895       0.003
   0.01811302  0.05378171 -0.05885895       0.003
  -0.01811302  0.05378171  0.05885895       0.003
  -0.01811302 -0.05378171 -0.05885895       0.003
   0.03622603 -0.00000000  0.05885895       0.003
   0.03622603 -0.00000000 -0.05885895       0.003
   0.03622603 -0.01792724  0.05885895       0.003
   0.03622603  0.01792724 -0.05885895       0.003
  -0.03622603  0.01792724  0.05885895       0.003
  -0.03622603 -0.01792724 -0.05885895       0.003
   0.03622603 -0.03585447  0.05885895       0.003
   0.03622603  0.03585447 -0.05885895       0.003
  -0.03622603  0.03585447  0.05885895       0.003
  -0.03622603 -0.03585447 -0.05885895       0.003
   0.03622603 -0.05378171  0.05885895       0.003
   0.03622603  0.05378171 -0.05885895       0.003
  -0.03622603  0.05378171  0.05885895       0.003
  -0.03622603 -0.05378171 -0.05885895       0.003
   0.05433905 -0.00000000  0.05885895       0.003
   0.05433905 -0.00000000 -0.05885895       0.003
   0.05433905 -0.01792724  0.05885895       0.003
   0.05433905  0.01792724 -0.05885895       0.003
  -0.05433905  0.01792724  0.05885895       0.003
  -0.05433905 -0.01792724 -0.05885895       0.003
   0.05433905 -0.03585447  0.05885895       0.003
   0.05433905  0.03585447 -0.05885895       0.003
  -0.05433905  0.03585447  0.05885895       0.003
  -0.05433905 -0.03585447 -0.05885895       0.003
   0.05433905 -0.05378171  0.05885895       0.003
   0.05433905  0.05378171 -0.05885895       0.003
  -0.05433905  0.05378171  0.05885895       0.003
  -0.05433905 -0.05378171 -0.05885895       0.003
   0.07245207 -0.00000000  0.05885895       0.003
   0.07245207 -0.00000000 -0.05885895       0.003
   0.07245207 -0.01792724  0.05885895       0.003
   0.07245207  0.01792724 -0.05885895       0.003
  -0.07245207  0.01792724  0.05885895       0.003
  -0.07245207 -0.01792724 -0.05885895       0.003
   0.07245207 -0.03585447  0.05885895       0.003
   0.07245207  0.03585447 -0.05885895       0.003
  -0.07245207  0.03585447  0.05885895       0.003
  -0.07245207 -0.03585447 -0.05885895       0.003
   0.07245207 -0.05378171  0.05885895       0.003
   0.07245207  0.05378171 -0.05885895       0.003
  -0.07245207  0.05378171  0.05885895       0.003
  -0.07245207 -0.05378171 -0.05885895       0.003
   0.09056508 -0.00000000  0.05885895       0.003
   0.09056508 -0.00000000 -0.05885895       0.003
   0.09056508 -0.01792724  0.05885895       0.003
   0.09056508  0.01792724 -0.05885895       0.003
  -0.09056508  0.01792724  0.05885895       0.003
  -0.09056508 -0.01792724 -0.05885895       0.003
   0.09056508 -0.03585447  0.05885895       0.003
   0.09056508  0.03585447 -0.05885895       0.003
  -0.09056508  0.03585447  0.05885895       0.003
  -0.09056508 -0.03585447 -0.05885895       0.003
   0.09056508 -0.05378171  0.05885895       0.003
   0.09056508  0.05378171 -0.05885895       0.003
  -0.09056508  0.05378171  0.05885895       0.003
  -0.09056508 -0.05378171 -0.05885895       0.003
   0.10867810 -0.00000000  0.05885895       0.003
   0.10867810 -0.01792724  0.05885895       0.003
   0.10867810  0.01792724  0.05885895       0.003
   0.10867810 -0.03585447  0.05885895       0.003
   0.10867810  0.03585447  0.05885895       0.003
   0.10867810 -0.05378171  0.05885895       0.003
   0.10867810  0.05378171  0.05885895       0.003

 k-points in reciprocal lattice and weights: pymatgen with grid density = 7000 / numb
   0.00000000  0.00000000  0.00000000       0.002
   0.14285714  0.00000000  0.00000000       0.003
   0.28571429  0.00000000  0.00000000       0.003
   0.42857143  0.00000000  0.00000000       0.003
   0.00000000  0.08333333  0.00000000       0.003
   0.14285714  0.08333333  0.00000000       0.003
  -0.14285714  0.08333333  0.00000000       0.003
   0.28571429  0.08333333  0.00000000       0.003
  -0.28571429  0.08333333  0.00000000       0.003
   0.42857143  0.08333333  0.00000000       0.003
  -0.42857143  0.08333333  0.00000000       0.003
   0.00000000  0.16666667  0.00000000       0.003
   0.14285714  0.16666667  0.00000000       0.003
  -0.14285714  0.16666667  0.00000000       0.003
   0.28571429  0.16666667  0.00000000       0.003
  -0.28571429  0.16666667  0.00000000       0.003
   0.42857143  0.16666667  0.00000000       0.003
  -0.42857143  0.16666667  0.00000000       0.003
   0.00000000  0.25000000  0.00000000       0.003
   0.14285714  0.25000000  0.00000000       0.003
  -0.14285714  0.25000000  0.00000000       0.003
   0.28571429  0.25000000  0.00000000       0.003
  -0.28571429  0.25000000  0.00000000       0.003
   0.42857143  0.25000000  0.00000000       0.003
  -0.42857143  0.25000000  0.00000000       0.003
   0.00000000  0.33333333  0.00000000       0.003
   0.14285714  0.33333333  0.00000000       0.003
  -0.14285714  0.33333333  0.00000000       0.003
   0.28571429  0.33333333  0.00000000       0.003
  -0.28571429  0.33333333  0.00000000       0.003
   0.42857143  0.33333333  0.00000000       0.003
  -0.42857143  0.33333333  0.00000000       0.003
   0.00000000  0.41666667  0.00000000       0.003
   0.14285714  0.41666667  0.00000000       0.003
  -0.14285714  0.41666667  0.00000000       0.003
   0.28571429  0.41666667  0.00000000       0.003
  -0.28571429  0.41666667  0.00000000       0.003
   0.42857143  0.41666667  0.00000000       0.003
  -0.42857143  0.41666667  0.00000000       0.003
   0.00000000  0.50000000  0.00000000       0.002
   0.14285714  0.50000000  0.00000000       0.003
   0.28571429  0.50000000  0.00000000       0.003
   0.42857143  0.50000000  0.00000000       0.003
   0.00000000  0.00000000  0.14285714       0.003
   0.14285714  0.00000000  0.14285714       0.003
  -0.14285714  0.00000000  0.14285714       0.003
   0.28571429  0.00000000  0.14285714       0.003
  -0.28571429  0.00000000  0.14285714       0.003
   0.42857143  0.00000000  0.14285714       0.003
  -0.42857143  0.00000000  0.14285714       0.003
   0.00000000  0.08333333  0.14285714       0.003
   0.00000000  0.08333333 -0.14285714       0.003
   0.14285714  0.08333333  0.14285714       0.003
  -0.14285714  0.08333333 -0.14285714       0.003
  -0.14285714 -0.08333333  0.14285714       0.003
   0.14285714 -0.08333333 -0.14285714       0.003
   0.28571429  0.08333333  0.14285714       0.003
  -0.28571429  0.08333333 -0.14285714       0.003
  -0.28571429 -0.08333333  0.14285714       0.003
   0.28571429 -0.08333333 -0.14285714       0.003
   0.42857143  0.08333333  0.14285714       0.003
  -0.42857143  0.08333333 -0.14285714       0.003
  -0.42857143 -0.08333333  0.14285714       0.003
   0.42857143 -0.08333333 -0.14285714       0.003
   0.00000000  0.16666667  0.14285714       0.003
   0.00000000  0.16666667 -0.14285714       0.003
   0.14285714  0.16666667  0.14285714       0.003
  -0.14285714  0.16666667 -0.14285714       0.003
  -0.14285714 -0.16666667  0.14285714       0.003
   0.14285714 -0.16666667 -0.14285714       0.003
   0.28571429  0.16666667  0.14285714       0.003
  -0.28571429  0.16666667 -0.14285714       0.003
  -0.28571429 -0.16666667  0.14285714       0.003
   0.28571429 -0.16666667 -0.14285714       0.003
   0.42857143  0.16666667  0.14285714       0.003
  -0.42857143  0.16666667 -0.14285714       0.003
  -0.42857143 -0.16666667  0.14285714       0.003
   0.42857143 -0.16666667 -0.14285714       0.003
   0.00000000  0.25000000  0.14285714       0.003
   0.00000000  0.25000000 -0.14285714       0.003
   0.14285714  0.25000000  0.14285714       0.003
  -0.14285714  0.25000000 -0.14285714       0.003
  -0.14285714 -0.25000000  0.14285714       0.003
   0.14285714 -0.25000000 -0.14285714       0.003
   0.28571429  0.25000000  0.14285714       0.003
  -0.28571429  0.25000000 -0.14285714       0.003
  -0.28571429 -0.25000000  0.14285714       0.003
   0.28571429 -0.25000000 -0.14285714       0.003
   0.42857143  0.25000000  0.14285714       0.003
  -0.42857143  0.25000000 -0.14285714       0.003
  -0.42857143 -0.25000000  0.14285714       0.003
   0.42857143 -0.25000000 -0.14285714       0.003
   0.00000000  0.33333333  0.14285714       0.003
   0.00000000  0.33333333 -0.14285714       0.003
   0.14285714  0.33333333  0.14285714       0.003
  -0.14285714  0.33333333 -0.14285714       0.003
  -0.14285714 -0.33333333  0.14285714       0.003
   0.14285714 -0.33333333 -0.14285714       0.003
   0.28571429  0.33333333  0.14285714       0.003
  -0.28571429  0.33333333 -0.14285714       0.003
  -0.28571429 -0.33333333  0.14285714       0.003
   0.28571429 -0.33333333 -0.14285714       0.003
   0.42857143  0.33333333  0.14285714       0.003
  -0.42857143  0.33333333 -0.14285714       0.003
  -0.42857143 -0.33333333  0.14285714       0.003
   0.42857143 -0.33333333 -0.14285714       0.003
   0.00000000  0.41666667  0.14285714       0.003
   0.00000000  0.41666667 -0.14285714       0.003
   0.14285714  0.41666667  0.14285714       0.003
  -0.14285714  0.41666667 -0.14285714       0.003
  -0.14285714 -0.41666667  0.14285714       0.003
   0.14285714 -0.41666667 -0.14285714       0.003
   0.28571429  0.41666667  0.14285714       0.003
  -0.28571429  0.41666667 -0.14285714       0.003
  -0.28571429 -0.41666667  0.14285714       0.003
   0.28571429 -0.41666667 -0.14285714       0.003
   0.42857143  0.41666667  0.14285714       0.003
  -0.42857143  0.41666667 -0.14285714       0.003
  -0.42857143 -0.41666667  0.14285714       0.003
   0.42857143 -0.41666667 -0.14285714       0.003
   0.00000000  0.50000000  0.14285714       0.003
   0.14285714  0.50000000  0.14285714       0.003
  -0.14285714  0.50000000  0.14285714       0.003
   0.28571429  0.50000000  0.14285714       0.003
  -0.28571429  0.50000000  0.14285714       0.003
   0.42857143  0.50000000  0.14285714       0.003
  -0.42857143  0.50000000  0.14285714       0.003
   0.00000000  0.00000000  0.28571429       0.003
   0.14285714  0.00000000  0.28571429       0.003
  -0.14285714  0.00000000  0.28571429       0.003
   0.28571429  0.00000000  0.28571429       0.003
  -0.28571429  0.00000000  0.28571429       0.003
   0.42857143  0.00000000  0.28571429       0.003
  -0.42857143  0.00000000  0.28571429       0.003
   0.00000000  0.08333333  0.28571429       0.003
   0.00000000  0.08333333 -0.28571429       0.003
   0.14285714  0.08333333  0.28571429       0.003
  -0.14285714  0.08333333 -0.28571429       0.003
  -0.14285714 -0.08333333  0.28571429       0.003
   0.14285714 -0.08333333 -0.28571429       0.003
   0.28571429  0.08333333  0.28571429       0.003
  -0.28571429  0.08333333 -0.28571429       0.003
  -0.28571429 -0.08333333  0.28571429       0.003
   0.28571429 -0.08333333 -0.28571429       0.003
   0.42857143  0.08333333  0.28571429       0.003
  -0.42857143  0.08333333 -0.28571429       0.003
  -0.42857143 -0.08333333  0.28571429       0.003
   0.42857143 -0.08333333 -0.28571429       0.003
   0.00000000  0.16666667  0.28571429       0.003
   0.00000000  0.16666667 -0.28571429       0.003
   0.14285714  0.16666667  0.28571429       0.003
  -0.14285714  0.16666667 -0.28571429       0.003
  -0.14285714 -0.16666667  0.28571429       0.003
   0.14285714 -0.16666667 -0.28571429       0.003
   0.28571429  0.16666667  0.28571429       0.003
  -0.28571429  0.16666667 -0.28571429       0.003
  -0.28571429 -0.16666667  0.28571429       0.003
   0.28571429 -0.16666667 -0.28571429       0.003
   0.42857143  0.16666667  0.28571429       0.003
  -0.42857143  0.16666667 -0.28571429       0.003
  -0.42857143 -0.16666667  0.28571429       0.003
   0.42857143 -0.16666667 -0.28571429       0.003
   0.00000000  0.25000000  0.28571429       0.003
   0.00000000  0.25000000 -0.28571429       0.003
   0.14285714  0.25000000  0.28571429       0.003
  -0.14285714  0.25000000 -0.28571429       0.003
  -0.14285714 -0.25000000  0.28571429       0.003
   0.14285714 -0.25000000 -0.28571429       0.003
   0.28571429  0.25000000  0.28571429       0.003
  -0.28571429  0.25000000 -0.28571429       0.003
  -0.28571429 -0.25000000  0.28571429       0.003
   0.28571429 -0.25000000 -0.28571429       0.003
   0.42857143  0.25000000  0.28571429       0.003
  -0.42857143  0.25000000 -0.28571429       0.003
  -0.42857143 -0.25000000  0.28571429       0.003
   0.42857143 -0.25000000 -0.28571429       0.003
   0.00000000  0.33333333  0.28571429       0.003
   0.00000000  0.33333333 -0.28571429       0.003
   0.14285714  0.33333333  0.28571429       0.003
  -0.14285714  0.33333333 -0.28571429       0.003
  -0.14285714 -0.33333333  0.28571429       0.003
   0.14285714 -0.33333333 -0.28571429       0.003
   0.28571429  0.33333333  0.28571429       0.003
  -0.28571429  0.33333333 -0.28571429       0.003
  -0.28571429 -0.33333333  0.28571429       0.003
   0.28571429 -0.33333333 -0.28571429       0.003
   0.42857143  0.33333333  0.28571429       0.003
  -0.42857143  0.33333333 -0.28571429       0.003
  -0.42857143 -0.33333333  0.28571429       0.003
   0.42857143 -0.33333333 -0.28571429       0.003
   0.00000000  0.41666667  0.28571429       0.003
   0.00000000  0.41666667 -0.28571429       0.003
   0.14285714  0.41666667  0.28571429       0.003
  -0.14285714  0.41666667 -0.28571429       0.003
  -0.14285714 -0.41666667  0.28571429       0.003
   0.14285714 -0.41666667 -0.28571429       0.003
   0.28571429  0.41666667  0.28571429       0.003
  -0.28571429  0.41666667 -0.28571429       0.003
  -0.28571429 -0.41666667  0.28571429       0.003
   0.28571429 -0.41666667 -0.28571429       0.003
   0.42857143  0.41666667  0.28571429       0.003
  -0.42857143  0.41666667 -0.28571429       0.003
  -0.42857143 -0.41666667  0.28571429       0.003
   0.42857143 -0.41666667 -0.28571429       0.003
   0.00000000  0.50000000  0.28571429       0.003
   0.14285714  0.50000000  0.28571429       0.003
  -0.14285714  0.50000000  0.28571429       0.003
   0.28571429  0.50000000  0.28571429       0.003
  -0.28571429  0.50000000  0.28571429       0.003
   0.42857143  0.50000000  0.28571429       0.003
  -0.42857143  0.50000000  0.28571429       0.003
   0.00000000  0.00000000  0.42857143       0.003
   0.14285714  0.00000000  0.42857143       0.003
  -0.14285714  0.00000000  0.42857143       0.003
   0.28571429  0.00000000  0.42857143       0.003
  -0.28571429  0.00000000  0.42857143       0.003
   0.42857143  0.00000000  0.42857143       0.003
  -0.42857143  0.00000000  0.42857143       0.003
   0.00000000  0.08333333  0.42857143       0.003
   0.00000000  0.08333333 -0.42857143       0.003
   0.14285714  0.08333333  0.42857143       0.003
  -0.14285714  0.08333333 -0.42857143       0.003
  -0.14285714 -0.08333333  0.42857143       0.003
   0.14285714 -0.08333333 -0.42857143       0.003
   0.28571429  0.08333333  0.42857143       0.003
  -0.28571429  0.08333333 -0.42857143       0.003
  -0.28571429 -0.08333333  0.42857143       0.003
   0.28571429 -0.08333333 -0.42857143       0.003
   0.42857143  0.08333333  0.42857143       0.003
  -0.42857143  0.08333333 -0.42857143       0.003
  -0.42857143 -0.08333333  0.42857143       0.003
   0.42857143 -0.08333333 -0.42857143       0.003
   0.00000000  0.16666667  0.42857143       0.003
   0.00000000  0.16666667 -0.42857143       0.003
   0.14285714  0.16666667  0.42857143       0.003
  -0.14285714  0.16666667 -0.42857143       0.003
  -0.14285714 -0.16666667  0.42857143       0.003
   0.14285714 -0.16666667 -0.42857143       0.003
   0.28571429  0.16666667  0.42857143       0.003
  -0.28571429  0.16666667 -0.42857143       0.003
  -0.28571429 -0.16666667  0.42857143       0.003
   0.28571429 -0.16666667 -0.42857143       0.003
   0.42857143  0.16666667  0.42857143       0.003
[...]
     18       5.7437      0.00000
     19       5.8515      0.00000
     20       5.8548      0.00000
     21       6.9286      0.00000
     22       6.9319      0.00000
     23       7.1487      0.00000
     24       7.1540      0.00000
     25       7.5021      0.00000
     26       7.5036      0.00000
     27       8.4759      0.00000
     28       8.4788      0.00000
     29       9.4344      0.00000
     30       9.4389      0.00000
     31       9.6936      0.00000
     32       9.6978      0.00000

 k-point   292 :       0.2857    0.5000    0.4286
  band No.  band energies     occupation 
      1      -4.7996      1.00000
      2      -4.7978      1.00000
      3      -4.6728      1.00000
      4      -4.6712      1.00000
      5      -0.5133      1.00000
      6      -0.5117      1.00000
      7      -0.1231      1.00000
      8      -0.1202      1.00000
      9       1.6408      1.00000
     10       1.6455      1.00000
     11       2.1076      1.00000
     12       2.1118      1.00000
     13       2.6713      1.00000
     14       2.6750      1.00000
     15       3.1232      1.00000
     16       3.1241      1.00000
     17       4.8894      0.00000
     18       4.8937      0.00000
     19       6.0045      0.00000
     20       6.0080      0.00000
     21       6.4232      0.00000
     22       6.4258      0.00000
     23       6.7119      0.00000
     24       6.7151      0.00000
     25       7.8230      0.00000
     26       7.8256      0.00000
     27       8.7552      0.00000
     28       8.7593      0.00000
     29      10.4674      0.00000
     30      10.4714      0.00000
     31      10.6057      0.00000
     32      10.6102      0.00000

 k-point   293 :      -0.2857    0.5000    0.4286
  band No.  band energies     occupation 
      1      -4.7909      1.00000
      2      -4.7893      1.00000
      3      -4.6827      1.00000
      4      -4.6808      1.00000
      5      -0.4634      1.00000
      6      -0.4608      1.00000
      7      -0.1747      1.00000
      8      -0.1726      1.00000
      9       1.6265      1.00000
     10       1.6314      1.00000
     11       2.1064      1.00000
     12       2.1099      1.00000
     13       2.6536      1.00000
     14       2.6579      1.00000
     15       3.1461      1.00000
     16       3.1471      1.00000
     17       5.1606      0.00000
     18       5.1634      0.00000
     19       5.6546      0.00000
     20       5.6575      0.00000
     21       6.2917      0.00000
     22       6.2957      0.00000
     23       6.9483      0.00000
     24       6.9501      0.00000
     25       7.7160      0.00000
     26       7.7209      0.00000
     27       8.9080      0.00000
     28       8.9113      0.00000
     29      10.2523      0.00000
     30      10.2573      0.00000
     31      10.7581      0.00000
     32      10.7630      0.00000

 k-point   294 :       0.4286    0.5000    0.4286
  band No.  band energies     occupation 
      1      -4.7866      1.00000
      2      -4.7855      1.00000
      3      -4.6778      1.00000
      4      -4.6761      1.00000
      5      -0.6219      1.00000
      6      -0.6207      1.00000
      7      -0.2361      1.00000
      8      -0.2339      1.00000
      9       2.1319      1.00000
     10       2.1361      1.00000
     11       2.4969      1.00000
     12       2.5004      1.00000
     13       2.5702      1.00000
     14       2.5724      1.00000
     15       2.9534      1.00000
     16       2.9552      1.00000
     17       4.5674      0.00000
     18       4.5719      0.00000
     19       5.6024      0.00000
     20       5.6066      0.00000
     21       6.0750      0.00000
     22       6.0782      0.00000
     23       6.5211      0.00000
     24       6.5239      0.00000
     25       8.3707      0.00000
     26       8.3729      0.00000
     27       9.4059      0.00000
     28       9.4107      0.00000
     29       9.7012      0.00000
     30       9.7039      0.00000
     31      10.6631      0.00000
     32      10.6660      0.00000

 k-point   295 :      -0.4286    0.5000    0.4286
  band No.  band energies     occupation 
      1      -4.7821      1.00000
      2      -4.7812      1.00000
      3      -4.6828      1.00000
      4      -4.6809      1.00000
      5      -0.6052      1.00000
      6      -0.6034      1.00000
      7      -0.2527      1.00000
      8      -0.2508      1.00000
      9       2.1214      1.00000
     10       2.1256      1.00000
     11       2.4699      1.00000
     12       2.4735      1.00000
     13       2.5852      1.00000
     14       2.5879      1.00000
     15       2.9653      1.00000
     16       2.9678      1.00000
     17       4.6681      0.00000
     18       4.6718      0.00000
     19       5.5079      0.00000
     20       5.5118      0.00000
     21       5.9785      0.00000
     22       5.9821      0.00000
     23       6.6245      0.00000
     24       6.6272      0.00000
     25       8.3381      0.00000
     26       8.3416      0.00000
     27       9.4419      0.00000
     28       9.4449      0.00000
     29       9.6909      0.00000
     30       9.6941      0.00000
     31      10.6937      0.00000
     32      10.6980      0.00000


--------------------------------------------------------------------------------------------------------


 soft charge-density along one line, spin component           1
         0         1         2         3         4         5         6         7         8         9
 total charge-density along one line

 soft charge-density along one line, spin component           2
         0         1         2         3         4         5         6         7         8         9
 total charge-density along one line

 pseudopotential strength for first ion, spin component:           1
  3.000   9.585   0.000   0.000   0.000  -0.000   0.000   0.000
  9.585  30.445  -0.000   0.000   0.000  -0.000   0.000   0.000
  0.000  -0.000   7.106   0.000   0.000  10.459   0.000   0.000
  0.000   0.000   0.000   7.106  -0.000   0.000  10.460  -0.000
  0.000   0.000   0.000  -0.000   7.106   0.000  -0.000  10.459
 -0.000  -0.000  10.459   0.000   0.000  14.541   0.000   0.000
  0.000   0.000   0.000  10.460  -0.000   0.000  14.543  -0.000
  0.000   0.000   0.000  -0.000  10.459   0.000  -0.000  14.541
  0.000   0.000   0.000  -0.000  -0.000   0.000  -0.000  -0.000
  0.000   0.000   0.000  -0.000  -0.000   0.000  -0.000  -0.000
  0.000   0.001   0.000   0.000  -0.000   0.000   0.000  -0.000
 -0.000  -0.000  -0.000   0.000   0.000  -0.000   0.000   0.000
 -0.000  -0.000   0.000   0.000   0.000   0.000   0.000   0.000
 pseudopotential strength for first ion, spin component:           2
  3.000   9.585   0.000   0.000   0.000  -0.000   0.000   0.000
  9.585  30.445  -0.000   0.000   0.000  -0.000   0.000   0.000
  0.000  -0.000   7.106   0.000   0.000  10.459   0.000   0.000
  0.000   0.000   0.000   7.106  -0.000   0.000  10.460  -0.000
  0.000   0.000   0.000  -0.000   7.106   0.000  -0.000  10.459
 -0.000  -0.000  10.459   0.000   0.000  14.541   0.000   0.000
  0.000   0.000   0.000  10.460  -0.000   0.000  14.543  -0.000
  0.000   0.000   0.000  -0.000  10.459   0.000  -0.000  14.541
  0.000   0.000   0.000  -0.000  -0.000   0.000  -0.000  -0.000
  0.000   0.000   0.000  -0.000  -0.000   0.000  -0.000  -0.000
  0.000   0.001   0.000   0.000  -0.000   0.000   0.000  -0.000
 -0.000  -0.000  -0.000   0.000   0.000  -0.000   0.000   0.000
 -0.000  -0.000   0.000   0.000   0.000   0.000   0.000   0.000
 total augmentation occupancy for first ion, spin component:           1
  0.910  -0.018   0.000  -0.000  -0.000  -0.000   0.000   0.000  -0.000  -0.000  -0.005   0.000   0.000
 -0.018   0.000  -0.000   0.000   0.000   0.000  -0.000  -0.000   0.000   0.000   0.000  -0.000  -0.000
  0.000  -0.000   0.060  -0.000  -0.000  -0.005   0.000   0.000  -0.000  -0.000   0.000   0.000   0.000
 -0.000   0.000  -0.000   0.058   0.000   0.000  -0.004  -0.000   0.000   0.000  -0.000  -0.000  -0.000
 -0.000   0.000  -0.000   0.000   0.061   0.000  -0.000  -0.005   0.000   0.000  -0.000  -0.000  -0.000
 -0.000   0.000  -0.005   0.000   0.000   0.000  -0.000  -0.000   0.000   0.000  -0.000  -0.000  -0.000
  0.000  -0.000   0.000  -0.004  -0.000  -0.000   0.000   0.000  -0.000  -0.000   0.000   0.000   0.000
  0.000  -0.000   0.000  -0.000  -0.005  -0.000   0.000   0.000  -0.000  -0.000  -0.000   0.000   0.000
 -0.000   0.000  -0.000   0.000   0.000   0.000  -0.000  -0.000   0.006   0.000   0.000  -0.004  -0.000
 -0.000   0.000  -0.000   0.000   0.000   0.000  -0.000  -0.000   0.000   0.009  -0.000  -0.000  -0.004
 -0.005   0.000   0.000  -0.000  -0.000  -0.000   0.000  -0.000   0.000  -0.000   0.002   0.000  -0.000
  0.000  -0.000   0.000  -0.000  -0.000  -0.000   0.000   0.000  -0.004  -0.000   0.000   0.009   0.000
  0.000  -0.000   0.000  -0.000  -0.000  -0.000   0.000   0.000  -0.000  -0.004  -0.000   0.000   0.006
 total augmentation occupancy for first ion, spin component:           2
  0.000  -0.000  -0.000   0.000   0.000   0.000  -0.000  -0.000   0.000  -0.000   0.000  -0.000  -0.000
 -0.000   0.000   0.000  -0.000  -0.000  -0.000   0.000   0.000   0.000   0.000  -0.000  -0.000   0.000
 -0.000   0.000  -0.000  -0.000   0.000   0.000   0.000  -0.000   0.000   0.000  -0.000  -0.000  -0.000
  0.000  -0.000  -0.000  -0.000  -0.000   0.000  -0.000   0.000  -0.000  -0.000   0.000   0.000   0.000
  0.000  -0.000   0.000  -0.000  -0.000  -0.000   0.000   0.000   0.000  -0.000  -0.000   0.000   0.000
  0.000  -0.000   0.000   0.000  -0.000   0.000  -0.000  -0.000  -0.000  -0.000  -0.000   0.000   0.000
 -0.000   0.000   0.000  -0.000   0.000  -0.000   0.000  -0.000   0.000   0.000  -0.000  -0.000  -0.000
 -0.000   0.000  -0.000   0.000   0.000  -0.000  -0.000   0.000   0.000   0.000   0.000  -0.000  -0.000
  0.000   0.000   0.000  -0.000   0.000  -0.000   0.000   0.000  -0.000  -0.000  -0.000   0.000   0.000
 -0.000   0.000   0.000  -0.000  -0.000  -0.000   0.000   0.000  -0.000  -0.000  -0.000   0.000   0.000
  0.000  -0.000  -0.000   0.000  -0.000  -0.000  -0.000   0.000  -0.000  -0.000   0.000  -0.000  -0.000
 -0.000  -0.000  -0.000   0.000   0.000   0.000  -0.000  -0.000   0.000   0.000  -0.000  -0.000  -0.000
 -0.000   0.000  -0.000   0.000   0.000   0.000  -0.000  -0.000   0.000   0.000  -0.000  -0.000  -0.000


------------------------ aborting loop because EDIFF is reached ----------------------------------------





 total charge

# of ion       s       p       d       tot
------------------------------------------
    1        0.150   0.096   0.018   0.263
    2        0.150   0.095   0.018   0.263
    3        0.181   0.129   0.022   0.331
    4        0.181   0.129   0.022   0.331
    5        0.181   0.129   0.022   0.332
    6        0.181   0.128   0.022   0.331
    7        1.126   1.399   0.012   2.537
    8        1.126   1.399   0.012   2.537
    9        1.126   1.399   0.012   2.537
   10        1.126   1.399   0.012   2.537
--------------------------------------------------
tot          5.526   6.303   0.169  11.998



 magnetization (x)

# of ion       s       p       d       tot
------------------------------------------
    1       -0.000  -0.000  -0.000  -0.000
    2       -0.000  -0.000  -0.000  -0.000
    3        0.000   0.000   0.000   0.000
    4        0.000   0.000   0.000   0.000
    5        0.000   0.000   0.000   0.000
    6        0.000   0.000   0.000   0.000
    7        0.000  -0.000   0.000  -0.000
    8        0.000  -0.000   0.000  -0.000
    9        0.000  -0.000   0.000  -0.000
   10        0.000  -0.000   0.000  -0.000
--------------------------------------------------
tot          0.000  -0.000   0.000  -0.000

    CHARGE:  cpu time    0.1679: real time    0.1679
    FORLOC:  cpu time    0.0016: real time    0.0016
    FORNL :  cpu time    1.8815: real time    1.8816
    STRESS:  cpu time    2.8682: real time    2.8682
    FORCOR:  cpu time    1.6825: real time    1.6825
    FORHAR:  cpu time    0.2396: real time    0.2396
    MIXING:  cpu time    0.0056: real time    0.0056
    OFIELD:  cpu time    0.0000: real time    0.0000

  FORCE on cell =-STRESS in cart. coord.  units (eV):
  Direction    XX          YY          ZZ          XY          YZ          ZX
  --------------------------------------------------------------------------------------
  Alpha Z    10.46941    10.46941    10.46941
  Ewald    -258.30534  -257.98937  -258.09033     0.09160    -0.06217     0.03764
  Hartree    18.88987    18.97929    21.61874     0.02613    -0.01405     0.00812
  E(xc)    -111.96881  -111.97673  -111.49402    -0.00237    -0.00170     0.00089
  Local    -144.47439  -144.87546  -147.24608    -0.11761     0.06691    -0.04017
  n-local   374.17491   374.23306   370.01424     0.01750     0.01683    -0.00907
  augment   -67.01712   -67.02369   -66.20167    -0.00213    -0.00435     0.00242
  Kinetic   175.82079   175.83391   178.57543     0.00444     0.03180    -0.01847
  Fock        0.00000     0.00000     0.00000     0.00000     0.00000     0.00000
  -------------------------------------------------------------------------------------
  Total      -2.41067    -2.34957    -2.35428     0.01756     0.03326    -0.01863
  in kB     -14.46844   -14.10171   -14.12995     0.10538     0.19962    -0.11184
  external pressure =      -14.23 kB  Pullay stress =        0.00 kB


 VOLUME and BASIS-vectors are now :
 -----------------------------------------------------------------------------
  energy-cutoff  :      700.00
  volume of cell :      266.95
      direct lattice vectors                 reciprocal lattice vectors
     0.000000000 -7.968720590  0.000000000     0.000000000 -0.125490659  0.000000000
     4.600742978  0.000000000  0.000000000     0.217356198  0.000000000 -0.000000000
     0.000000000  0.000000000  7.281330000    -0.000000000  0.000000000  0.137337547

  length of vectors
     7.968720590  4.600742978  7.281330000     0.125490659  0.217356198  0.137337547


 FORCES acting on ions
    electron-ion (+dipol)            ewald-force                    non-local-force                 convergence-correction
 -----------------------------------------------------------------------------------------------
   -.508E-01 -.182E-01 -.563E-01   0.402E-01 0.217E-01 0.493E-01   0.135E-01 -.627E-02 0.925E-02   0.358E-07 0.199E-05 0.131E-06
   0.939E-02 0.889E-01 0.559E-01   -.104E-01 -.725E-01 -.489E-01   0.204E-03 -.171E-01 -.903E-02   -.303E-07 -.199E-05 -.498E-07
   0.169E-01 -.652E-01 -.220E+01   -.147E-01 0.588E-01 0.230E+01   -.840E-03 0.247E-02 -.133E+00   -.656E-07 0.279E-05 0.490E-04
   -.103E-02 0.377E-01 -.220E+01   0.159E-02 -.360E-01 0.230E+01   -.227E-03 -.535E-03 -.133E+00   0.647E-07 -.271E-05 0.504E-04
   0.173E-01 0.132E+00 0.225E+01   -.161E-01 -.113E+00 -.235E+01   -.138E-02 -.369E-01 0.120E+00   -.185E-07 -.681E-06 -.489E-04
   -.857E-01 -.120E-01 0.214E+01   0.691E-01 0.194E-01 -.225E+01   0.305E-01 -.147E-01 0.146E+00   0.137E-07 0.615E-06 -.506E-04
   0.979E-01 -.357E+00 0.255E+01   -.931E-01 0.328E+00 -.759E+00   -.240E-01 0.724E-01 -.181E+01   0.379E-06 0.371E-05 -.175E-03
   -.165E-01 0.215E+00 0.255E+01   0.132E-01 -.189E+00 -.759E+00   0.398E-02 -.369E-01 -.181E+01   0.138E-06 -.429E-05 -.175E-03
   0.786E-02 0.606E-01 -.257E+01   -.716E-02 -.590E-01 0.780E+00   -.165E-02 -.408E-02 0.180E+01   -.345E-06 0.909E-06 0.175E-03
   -.193E-01 -.404E-01 -.253E+01   0.173E-01 0.411E-01 0.737E+00   0.387E-02 0.142E-03 0.181E+01   0.339E-06 -.130E-05 0.175E-03
 -----------------------------------------------------------------------------------------------
   -.240E-01 0.415E-01 -.192E-03   0.173E-16 0.190E-14 0.444E-14   0.240E-01 -.414E-01 0.197E-03   0.511E-06 -.942E-06 -.144E-08


 POSITION                                       TOTAL-FORCE (eV/Angst)
 -----------------------------------------------------------------------------------
      0.00000      0.00000      0.00000         0.002909     -0.002724      0.002210
      2.30037     -3.98436      0.00000        -0.000784     -0.000716     -0.002103
      2.30037     -6.64060      2.68190         0.001301     -0.003951     -0.027137
      0.00000     -2.65624      2.68190         0.000326      0.001184     -0.027040
      2.30037     -1.32812      4.59943        -0.000130     -0.017559      0.018069
      0.00000     -5.31248      4.59943         0.013987     -0.007276      0.035855
      2.30537     -6.64926      5.64120        -0.019259      0.043341     -0.013925
      0.00000     -2.65624      5.64120         0.000684     -0.010568     -0.013047
      2.30037     -1.32812      1.64013        -0.000949     -0.002484      0.012860
      0.00000     -5.31248      1.64013         0.001915      0.000754      0.014258
 -----------------------------------------------------------------------------------
    total drift:                                0.000007      0.000000      0.000005


--------------------------------------------------------------------------------------------------------



  FREE ENERGIE OF THE ION-ELECTRON SYSTEM (eV)
  ---------------------------------------------------
  free  energy   TOTEN  =       -32.28447262 eV

  energy  without entropy=      -32.28442952  energy(sigma->0) =      -32.28445107



--------------------------------------------------------------------------------------------------------


    POTLOK:  cpu time    6.0027: real time    6.0028


--------------------------------------------------------------------------------------------------------


     LOOP+:  cpu time 1623.5184: real time 1623.7192
    4ORBIT:  cpu time    0.0000: real time    0.0000



 total charge

# of ion       s       p       d       tot
------------------------------------------
    1        0.150   0.096   0.018   0.263
    2        0.150   0.095   0.018   0.263
    3        0.181   0.129   0.022   0.331
    4        0.181   0.129   0.022   0.331
    5        0.181   0.129   0.022   0.332
    6        0.181   0.128   0.022   0.331
    7        1.126   1.399   0.012   2.537
    8        1.126   1.399   0.012   2.537
    9        1.126   1.399   0.012   2.537
   10        1.126   1.399   0.012   2.537
--------------------------------------------------
tot          5.526   6.303   0.169  11.998



 magnetization (x)

# of ion       s       p       d       tot
------------------------------------------
    1       -0.000  -0.000  -0.000  -0.000
    2       -0.000  -0.000  -0.000  -0.000
    3        0.000   0.000   0.000   0.000
    4        0.000   0.000   0.000   0.000
    5        0.000   0.000   0.000   0.000
    6        0.000   0.000   0.000   0.000
    7        0.000  -0.000   0.000  -0.000
    8        0.000  -0.000   0.000  -0.000
    9        0.000  -0.000   0.000  -0.000
   10        0.000  -0.000   0.000  -0.000
--------------------------------------------------
tot          0.000  -0.000   0.000  -0.000


 total amount of memory used by VASP MPI-rank0    80340. kBytes
=======================================================================

   base      :      30000. kBytes
   nonl-proj :      29529. kBytes
   fftplans  :        620. kBytes
   grid      :       1447. kBytes
   one-center:         16. kBytes
   wavefun   :      18728. kBytes

  
  
 General timing and accounting informations for this job:
 ========================================================
  
                  Total CPU time used (sec):     1703.750
                            User time (sec):      504.872
                          System time (sec):     1198.878
                         Elapsed time (sec):     1704.216
  
                   Maximum memory used (kb):      137424.
                   Average memory used (kb):          N/A
  
                          Minor page faults:        12183
                          Major page faults:         1040
                 Voluntary context switches:         1890
