 vasp.6.3.0 20Jan22 (build Feb 02 2022 18:12:33) complex

 executed on             LinuxIFC date 2022.04.15  08:35:08
 running on  144 total cores
 distrk:  each k-point on  144 cores,    1 groups
 distr:  one band on NCORE=   1 cores,  144 groups


--------------------------------------------------------------------------------------------------------


 INCAR:
   ALGO = Fast
   EDIFF = 1e-05
   EDIFFG = -0.05
   ENAUG = 1360
   ENCUT = 500
   GGA = Ps
   IBRION = 2
   ISIF = 2
   ISMEAR = 0
   ISPIN = 2
   LAECHG = False
   LASPH = True
   LCHARG = False
   LELF = False
   LMIXTAU = True
   LORBIT = 11
   LREAL = False
   LVTOT = True
   LWAVE = True
   MAGMOM = 7*0.6
   NELECT = 28.0
   NELM = 200
   NELMIN = 6
   NSW = 99
   PREC = Accurate
   SIGMA = 0.05

 POTCAR:    PAW_PBE Si 05Jan2001
 WARNING: For LVTOT=.TRUE., VASP.5.x writes the TOTAL local potential to the
     file LOCPOT. If you want only the Hartree contributions, use LVHAR=.TRUE.
     instead.

 -----------------------------------------------------------------------------
|                                                                             |
|           W    W    AA    RRRRR   N    N  II  N    N   GGGG   !!!           |
|           W    W   A  A   R    R  NN   N  II  NN   N  G    G  !!!           |
|           W    W  A    A  R    R  N N  N  II  N N  N  G       !!!           |
|           W WW W  AAAAAA  RRRRR   N  N N  II  N  N N  G  GGG   !            |
|           WW  WW  A    A  R   R   N   NN  II  N   NN  G    G                |
|           W    W  A    A  R    R  N    N  II  N    N   GGGG   !!!           |
|                                                                             |
|     For optimal performance we recommend to set                             |
|       NCORE = 2 up to number-of-cores-per-socket                            |
|     NCORE specifies how many cores store one orbital (NPAR=cpu/NCORE).      |
|     This setting can greatly improve the performance of VASP for DFT.       |
|     The default, NCORE=1 might be grossly inefficient on modern             |
|     multi-core architectures or massively parallel machines. Do your        |
|     own testing! More info at https://www.vasp.at/wiki/index.php/NCORE      |
|     Unfortunately you need to use the default for GW and RPA                |
|     calculations (for HF NCORE is supported but not extensively tested      |
|     yet).                                                                   |
|                                                                             |
 -----------------------------------------------------------------------------

 POTCAR:    PAW_PBE Si 05Jan2001
   VRHFIN =Si: s2p2
   LEXCH  = PE
   EATOM  =   103.0669 eV,    7.5752 Ry

   TITEL  = PAW_PBE Si 05Jan2001
   LULTRA =        F    use ultrasoft PP ?
   IUNSCR =        1    unscreen: 0-lin 1-nonlin 2-no
   RPACOR =    1.500    partial core radius
   POMASS =   28.085; ZVAL   =    4.000    mass and valenz
   RCORE  =    1.900    outmost cutoff radius
   RWIGS  =    2.480; RWIGS  =    1.312    wigner-seitz radius (au A)
   ENMAX  =  245.345; ENMIN  =  184.009 eV
   ICORE  =        2    local potential
   LCOR   =        T    correct aug charges
   LPAW   =        T    paw PP
   EAUG   =  322.069
   DEXC   =    0.000
   RMAX   =    1.950    core radius for proj-oper
   RAUG   =    1.300    factor for augmentation sphere
   RDEP   =    1.993    radius for radial grids
   RDEPT  =    1.837    core radius for aug-charge

   Atomic configuration
    6 entries
     n  l   j            E        occ.
     1  0  0.50     -1785.8828   2.0000
     2  0  0.50      -139.4969   2.0000
     2  1  1.50       -95.5546   6.0000
     3  0  0.50       -10.8127   2.0000
     3  1  0.50        -4.0811   2.0000
     3  2  1.50        -4.0817   0.0000
   Description
     l       E           TYP  RCUT    TYP  RCUT
     0    -10.8127223     23  1.900
     0     -7.6451159     23  1.900
     1     -4.0811372     23  1.900
     1      2.4879257     23  1.900
     2     -4.0817478      7  1.900
  local pseudopotential read in
  partial core-charges read in
  partial kinetic energy density read in
  atomic valenz-charges read in
  non local Contribution for L=           0  read in
    real space projection operators read in
  non local Contribution for L=           0  read in
    real space projection operators read in
  non local Contribution for L=           1  read in
    real space projection operators read in
  non local Contribution for L=           1  read in
    real space projection operators read in
    PAW grid and wavefunctions read in

   number of l-projection  operators is LMAX  =           4
   number of lm-projection operators is LMMAX =           8

 -----------------------------------------------------------------------------
|                                                                             |
|               ----> ADVICE to this user running VASP <----                  |
|                                                                             |
|     You enforced a specific xc type in the INCAR file but a different       |
|     type was found in the POTCAR file.                                      |
|     I HOPE YOU KNOW WHAT YOU ARE DOING!                                     |
|                                                                             |
 -----------------------------------------------------------------------------

  PAW_PBE Si 05Jan2001                  :
 energy of atom  1       EATOM= -103.0669
 kinetic energy error for atom=    0.0006 (will be added to EATOM!!)


 POSCAR: Si7
  positions in direct lattice
  No initial velocities read in
 exchange correlation table for  LEXCH =       14
   RHO(1)=    0.500       N(1)  =     2000
   RHO(2)= 2000.500       N(2)  =     4000



--------------------------------------------------------------------------------------------------------


 ion  position               nearest neighbor table
   1  0.254  0.746  0.254-   2 2.37   4 2.37   6 2.37
   2  0.000  0.000  0.500-   1 2.37   3 2.37   5 2.37   7 2.37
   3  0.254  0.254  0.746-   2 2.37   4 2.37   6 2.37
   4  0.000  0.500  0.000-   1 2.37   3 2.37   5 2.37   7 2.37
   5  0.746  0.746  0.746-   2 2.37   4 2.37   6 2.37
   6  0.500  0.000  0.000-   1 2.37   3 2.37   5 2.37   7 2.37
   7  0.746  0.254  0.254-   2 2.37   4 2.37   6 2.37

  LATTYP: Found a simple cubic cell.
 ALAT       =     5.4378483500

  Lattice vectors:

 A1 = (   5.4378483500,   0.0000000000,   0.0000000000)
 A2 = (   0.0000000000,   5.4378483500,   0.0000000000)
 A3 = (   0.0000000000,   0.0000000000,   5.4378483500)


Analysis of symmetry for initial positions (statically):
=====================================================================
 Subroutine PRICEL returns:
 Original cell was already a primitive cell.


 Routine SETGRP: Setting up the symmetry group for a
 simple cubic supercell.


 Subroutine GETGRP returns: Found 24 space group operations
 (whereof 24 operations were pure point group operations)
 out of a pool of 48 trial point group operations.


The static configuration has the point symmetry T_d .


Analysis of symmetry for dynamics (positions and initial velocities):
=====================================================================
 Subroutine PRICEL returns:
 Original cell was already a primitive cell.


 Routine SETGRP: Setting up the symmetry group for a
 simple cubic supercell.


 Subroutine GETGRP returns: Found 24 space group operations
 (whereof 24 operations were pure point group operations)
 out of a pool of 48 trial point group operations.


The dynamic configuration has the point symmetry T_d .


Analysis of structural, dynamic, and magnetic symmetry:
=====================================================================
 Subroutine PRICEL returns:
 Original cell was already a primitive cell.


 Routine SETGRP: Setting up the symmetry group for a
 simple cubic supercell.


 Subroutine GETGRP returns: Found 24 space group operations
 (whereof 24 operations were pure point group operations)
 out of a pool of 48 trial point group operations.


The overall configuration has the point symmetry T_d .


 Subroutine INISYM returns: Found 24 space group operations
 (whereof 24 operations are pure point group operations),
 and found     1 'primitive' translations


----------------------------------------------------------------------------------------

                                     Primitive cell

  volume of cell :     160.7982

  direct lattice vectors                    reciprocal lattice vectors
     5.437848350  0.000000000  0.000000000     0.183896265  0.000000000  0.000000000
     0.000000000  5.437848350  0.000000000     0.000000000  0.183896265  0.000000000
     0.000000000  0.000000000  5.437848350     0.000000000  0.000000000  0.183896265

  length of vectors
     5.437848350  5.437848350  5.437848350     0.183896265  0.183896265  0.183896265

  position of ions in fractional coordinates (direct lattice)
     0.254342927  0.745657073  0.254342927
     0.000000000  0.000000000  0.500000000
     0.254342927  0.254342927  0.745657073
     0.000000000  0.500000000  0.000000000
     0.745657073  0.745657073  0.745657073
     0.500000000  0.000000000  0.000000000
     0.745657073  0.254342927  0.254342927

  ion indices of the primitive-cell ions
   primitive index   ion index
                 1           1
                 2           2
                 3           3
                 4           4
                 5           5
                 6           6
                 7           7

----------------------------------------------------------------------------------------



 KPOINTS: pymatgen with grid density = 691 / numbe

Automatic generation of k-mesh.
 Grid dimensions read from file:
 generate k-points for:    4    4    4

 Generating k-lattice:

  Cartesian coordinates                     Fractional coordinates (reciprocal lattice)
     0.045974066  0.000000000  0.000000000     0.250000000  0.000000000  0.000000000
     0.000000000  0.045974066  0.000000000     0.000000000  0.250000000  0.000000000
     0.000000000  0.000000000  0.045974066     0.000000000  0.000000000  0.250000000

  Length of vectors
     0.045974066  0.045974066  0.045974066

  Shift w.r.t. Gamma in fractional coordinates (k-lattice)
     0.000000000  0.000000000  0.000000000


 Subroutine IBZKPT returns following result:
 ===========================================

 Found     10 irreducible k-points:

 Following reciprocal coordinates:
            Coordinates               Weight
  0.000000  0.000000  0.000000      1.000000
  0.250000  0.000000  0.000000      6.000000
  0.500000  0.000000  0.000000      3.000000
  0.250000  0.250000  0.000000     12.000000
  0.500000  0.250000  0.000000     12.000000
  0.500000  0.500000  0.000000      3.000000
  0.250000  0.250000  0.250000      8.000000
  0.500000  0.250000  0.250000     12.000000
  0.500000  0.500000  0.250000      6.000000
  0.500000  0.500000  0.500000      1.000000

 Following cartesian coordinates:
            Coordinates               Weight
  0.000000  0.000000  0.000000      1.000000
  0.045974  0.000000  0.000000      6.000000
  0.091948  0.000000  0.000000      3.000000
  0.045974  0.045974  0.000000     12.000000
  0.091948  0.045974  0.000000     12.000000
  0.091948  0.091948  0.000000      3.000000
  0.045974  0.045974  0.045974      8.000000
  0.091948  0.045974  0.045974     12.000000
  0.091948  0.091948  0.045974      6.000000
  0.091948  0.091948  0.091948      1.000000



--------------------------------------------------------------------------------------------------------




 Dimension of arrays:
   k-points           NKPTS =     10   k-points in BZ     NKDIM =     10   number of bands    NBANDS=    144
   number of dos      NEDOS =    301   number of ions     NIONS =      7
   non local maximal  LDIM  =      4   non local SUM 2l+1 LMDIM =      8
   total plane-waves  NPLWV =  64000
   max r-space proj   IRMAX =      1   max aug-charges    IRDMAX=  13506
   dimension x,y,z NGX =    40 NGY =   40 NGZ =   40
   dimension x,y,z NGXF=    80 NGYF=   80 NGZF=   80
   support grid    NGXF=    80 NGYF=   80 NGZF=   80
   ions per type =               7
   NGX,Y,Z   is equivalent  to a cutoff of  12.23, 12.23, 12.23 a.u.
   NGXF,Y,Z  is equivalent  to a cutoff of  24.46, 24.46, 24.46 a.u.

 SYSTEM =  unknown system
 POSCAR =  Si7

 Startparameter for this run:
   NWRITE =      2    write-flag & timer
   PREC   = accura    normal or accurate (medium, high low for compatibility)
   ISTART =      0    job   : 0-new  1-cont  2-samecut
   ICHARG =      2    charge: 1-file 2-atom 10-const
   ISPIN  =      2    spin polarized calculation?
   LNONCOLLINEAR =      F non collinear calculations
   LSORBIT =      F    spin-orbit coupling
   INIWAV =      1    electr: 0-lowe 1-rand  2-diag
   LASPH  =      T    aspherical Exc in radial PAW
 Electronic Relaxation 1
   ENCUT  =  500.0 eV  36.75 Ry    6.06 a.u.   9.91  9.91  9.91*2*pi/ulx,y,z
   ENINI  =  500.0     initial cutoff
   ENAUG  = 1360.0 eV  augmentation charge cutoff
   NELM   =    200;   NELMIN=  6; NELMDL= -5     # of ELM steps
   EDIFF  = 0.1E-04   stopping-criterion for ELM
   LREAL  =      F    real-space projection
   NLSPLINE    = F    spline interpolate recip. space projectors
   LCOMPAT=      F    compatible to vasp.4.4
   GGA_COMPAT  = T    GGA compatible to vasp.4.4-vasp.4.6
   LMAXPAW     = -100 max onsite density
   LMAXMIX     =    2 max onsite mixed and CHGCAR
   VOSKOWN=      0    Vosko Wilk Nusair interpolation
   ROPT   =    0.00000
 Ionic relaxation
   EDIFFG = -.5E-01   stopping-criterion for IOM
   NSW    =     99    number of steps for IOM
   NBLOCK =      1;   KBLOCK =     99    inner block; outer block
   IBRION =      2    ionic relax: 0-MD 1-quasi-New 2-CG
   NFREE  =      1    steps in history (QN), initial steepest desc. (CG)
   ISIF   =      2    stress and relaxation
   IWAVPR =     11    prediction:  0-non 1-charg 2-wave 3-comb
   ISYM   =      2    0-nonsym 1-usesym 2-fastsym
   LCORR  =      T    Harris-Foulkes like correction to forces

   POTIM  = 0.5000    time-step for ionic-motion
   TEIN   =    0.0    initial temperature
   TEBEG  =    0.0;   TEEND  =   0.0 temperature during run
   SMASS  =  -3.00    Nose mass-parameter (am)
   estimated Nose-frequenzy (Omega)   =  0.10E-29 period in steps = 0.13E+47 mass=  -0.676E-27a.u.
   SCALEE = 1.0000    scale energy and forces
   NPACO  =    256;   APACO  = 10.0  distance and # of slots for P.C.
   PSTRESS=    0.0 pullay stress

  Mass of Ions in am
   POMASS =  28.09
  Ionic Valenz
   ZVAL   =   4.00
  Atomic Wigner-Seitz radii
   RWIGS  =  -1.00
  virtual crystal weights
   VCA    =   1.00
   NELECT =      28.0000    total number of electrons
   NUPDOWN=      -1.0000    fix difference up-down

 DOS related values:
   EMIN   =  10.00;   EMAX   =-10.00  energy-range for DOS
   EFERMI =   0.00
   ISMEAR =     0;   SIGMA  =   0.05  broadening in eV -4-tet -1-fermi 0-gaus

 Electronic relaxation 2 (details)
   IALGO  =     68    algorithm
   LDIAG  =      T    sub-space diagonalisation (order eigenvalues)
   LSUBROT=      F    optimize rotation matrix (better conditioning)
   TURBO    =      0    0=normal 1=particle mesh
   IRESTART =      0    0=no restart 2=restart with 2 vectors
   NREBOOT  =      0    no. of reboots
   NMIN     =      0    reboot dimension
   EREF     =   0.00    reference energy to select bands
   IMIX   =      4    mixing-type and parameters
     AMIX     =   0.40;   BMIX     =  1.00
     AMIX_MAG =   1.60;   BMIX_MAG =  1.00
     AMIN     =   0.10
     WC   =   100.;   INIMIX=   1;  MIXPRE=   1;  MAXMIX= -45

 Intra band minimization:
   WEIMIN = 0.0010     energy-eigenvalue tresh-hold
   EBREAK =  0.17E-07  absolut break condition
   DEPER  =   0.30     relativ break condition

   TIME   =   0.40     timestep for ELM

  volume/ion in A,a.u.               =      22.97       155.02
  Fermi-wavevector in a.u.,A,eV,Ry     =   0.914184  1.727558 11.370836  0.835733
  Thomas-Fermi vector in A             =   2.038782

 Write flags
   LWAVE        =      T    write WAVECAR
   LDOWNSAMPLE  =      F    k-point downsampling of WAVECAR
   LCHARG       =      F    write CHGCAR
   LVTOT        =      T    write LOCPOT, total local potential
   LVHAR        =      F    write LOCPOT, Hartree potential only
   LELF         =      F    write electronic localiz. function (ELF)
   LORBIT       =     11    0 simple, 1 ext, 2 COOP (PROOUT), +10 PAW based schemes


 Dipole corrections
   LMONO  =      F    monopole corrections only (constant potential shift)
   LDIPOL =      F    correct potential (dipole corrections)
   IDIPOL =      0    1-x, 2-y, 3-z, 4-all directions
   EPSILON=  1.0000000 bulk dielectric constant

 Exchange correlation treatment:
   GGA     =    PS    GGA type
   LEXCH   =    14    internal setting for exchange type
   LIBXC   =     F    Libxc
   VOSKOWN =     0    Vosko Wilk Nusair interpolation
   LHFCALC =     F    Hartree Fock is set to
   LHFONE  =     F    Hartree Fock one center treatment
   AEXX    =    0.0000 exact exchange contribution

 Linear response parameters
   LEPSILON=     F    determine dielectric tensor
   LRPA    =     F    only Hartree local field effects (RPA)
   LNABLA  =     F    use nabla operator in PAW spheres
   LVEL    =     F    velocity operator in full k-point grid
   CSHIFT  =0.1000    complex shift for real part using Kramers Kronig
   OMEGAMAX=  -1.0    maximum frequency
   DEG_THRESHOLD= 0.2000000E-02 threshold for treating states as degnerate
   RTIME   =   -0.100 relaxation time in fs
  (WPLASMAI=    0.000 imaginary part of plasma frequency in eV, 0.658/RTIME)
   DFIELD  = 0.0000000 0.0000000 0.0000000 field for delta impulse in time

  Optional k-point grid parameters
   LKPOINTS_OPT  =     F    use optional k-point grid
   KPOINTS_OPT_MODE=     1    mode for optional k-point grid

 Orbital magnetization related:
   ORBITALMAG=     F  switch on orbital magnetization
   LCHIMAG   =     F  perturbation theory with respect to B field
   DQ        =  0.001000  dq finite difference perturbation B field
   LLRAUG    =     F  two centre corrections for induced B field



--------------------------------------------------------------------------------------------------------


 conjugate gradient relaxation of ions
 charge density and potential will be updated during run
 spin polarized calculation
 RMM-DIIS sequential band-by-band and
  variant of blocked Davidson during initial phase
 perform sub-space diagonalisation
    before iterative eigenvector-optimisation
 modified Broyden-mixing scheme, WC =      100.0
 initial mixing is a Kerker type mixing with AMIX =  0.4000 and BMIX =      1.0000
 Hartree-type preconditioning will be used
 using additional bands          130
 reciprocal scheme for non local part
 use partial core corrections
 calculate Harris-corrections to forces
   (improved forces if not selfconsistent)
 use gradient corrections
 use of overlap-Matrix (Vanderbilt PP)
 Gauss-broadening in eV      SIGMA  =   0.05


--------------------------------------------------------------------------------------------------------


  energy-cutoff  :      500.00
  volume of cell :      160.80
      direct lattice vectors                 reciprocal lattice vectors
     5.437848350  0.000000000  0.000000000     0.183896265  0.000000000  0.000000000
     0.000000000  5.437848350  0.000000000     0.000000000  0.183896265  0.000000000
     0.000000000  0.000000000  5.437848350     0.000000000  0.000000000  0.183896265

  length of vectors
     5.437848350  5.437848350  5.437848350     0.183896265  0.183896265  0.183896265



 k-points in units of 2pi/SCALE and weight: pymatgen with grid density = 691 / numbe
   0.00000000  0.00000000  0.00000000       0.016
   0.04597407  0.00000000  0.00000000       0.094
   0.09194813  0.00000000  0.00000000       0.047
   0.04597407  0.04597407  0.00000000       0.188
   0.09194813  0.04597407  0.00000000       0.188
   0.09194813  0.09194813  0.00000000       0.047
   0.04597407  0.04597407  0.04597407       0.125
   0.09194813  0.04597407  0.04597407       0.188
   0.09194813  0.09194813  0.04597407       0.094
   0.09194813  0.09194813  0.09194813       0.016

 k-points in reciprocal lattice and weights: pymatgen with grid density = 691 / numbe
   0.00000000  0.00000000  0.00000000       0.016
   0.25000000  0.00000000  0.00000000       0.094
   0.50000000  0.00000000  0.00000000       0.047
   0.25000000  0.25000000  0.00000000       0.188
   0.50000000  0.25000000  0.00000000       0.188
   0.50000000  0.50000000  0.00000000       0.047
   0.25000000  0.25000000  0.25000000       0.125
   0.50000000  0.25000000  0.25000000       0.188
   0.50000000  0.50000000  0.25000000       0.094
   0.50000000  0.50000000  0.50000000       0.016

 position of ions in fractional coordinates (direct lattice)
   0.25434293  0.74565707  0.25434293
   0.00000000  0.00000000  0.50000000
   0.25434293  0.25434293  0.74565707
   0.00000000  0.50000000  0.00000000
   0.74565707  0.74565707  0.74565707
   0.50000000  0.00000000  0.00000000
   0.74565707  0.25434293  0.25434293

 position of ions in cartesian coordinates  (Angst):
   1.38307826  4.05477009  1.38307826
   0.00000000  0.00000000  2.71892418
   1.38307826  1.38307826  4.05477009
   0.00000000  2.71892418  0.00000000
   4.05477009  4.05477009  4.05477009
   2.71892418  0.00000000  0.00000000
   4.05477009  1.38307826  1.38307826



--------------------------------------------------------------------------------------------------------


 k-point   1 :   0.0000 0.0000 0.0000  plane waves:    4067
 k-point   2 :   0.2500 0.0000 0.0000  plane waves:    4072
 k-point   3 :   0.5000 0.0000 0.0000  plane waves:    4116
 k-point   4 :   0.2500 0.2500 0.0000  plane waves:    4080
 k-point   5 :   0.5000 0.2500 0.0000  plane waves:    4072
 k-point   6 :   0.5000 0.5000 0.0000  plane waves:    4076
 k-point   7 :   0.2500 0.2500 0.2500  plane waves:    4094
 k-point   8 :   0.5000 0.2500 0.2500  plane waves:    4076
 k-point   9 :   0.5000 0.5000 0.2500  plane waves:    4092
 k-point  10 :   0.5000 0.5000 0.5000  plane waves:    4032

 maximum and minimum number of plane-waves per node :      4116     4032

 maximum number of plane-waves:      4116
 maximum index in each direction:
   IXMAX=    9   IYMAX=    9   IZMAX=    9
   IXMIN=  -10   IYMIN=  -10   IZMIN=  -10


 serial   3D FFT for wavefunctions
 parallel 3D FFT for charge:
    minimum data exchange during FFTs selected (reduces bandwidth)


 total amount of memory used by VASP MPI-rank0    40713. kBytes
=======================================================================

   base      :      30000. kBytes
   nonl-proj :       3140. kBytes
   fftplans  :        508. kBytes
   grid      :       5640. kBytes
   one-center:         43. kBytes
   wavefun   :       1382. kBytes

     INWAV:  cpu time      0.0000: real time      0.0000
 Broyden mixing: mesh for mixing (old mesh)
   NGX = 19   NGY = 19   NGZ = 19
  (NGX  = 80   NGY  = 80   NGZ  = 80)
  gives a total of   6859 points

 initial charge density was supplied:
 charge density of overlapping atoms calculated
 number of electron      28.0000000 magnetization       4.2000000
 keeping initial charge density in first step


--------------------------------------------------------------------------------------------------------


 Maximum index for augmentation-charges          665 (set IRDMAX)


--------------------------------------------------------------------------------------------------------


 First call to EWALD:  gamma=   0.326
 Maximum number of real-space cells 3x 3x 3
 Maximum number of reciprocal cells 3x 3x 3

    FEWALD:  cpu time      0.0016: real time      0.0030


--------------------------------------- Iteration      1(   1)  ---------------------------------------


    POTLOK:  cpu time      0.0253: real time      0.0296
    SETDIJ:  cpu time      0.2001: real time      0.2001
     EDDAV:  cpu time      5.2106: real time      5.2115
       DOS:  cpu time      0.0031: real time      0.0031
    --------------------------------------------
      LOOP:  cpu time      5.4391: real time      5.4444

 eigenvalue-minimisations  :  5760
 total energy-change (2. order) :-0.1860673E+02  (-0.1141292E+04)
 number of electron      28.0000000 magnetization       4.2000000
 augmentation part       28.0000000 magnetization       4.2000000

 Free energy of the ion-electron system (eV)
  ---------------------------------------------------
  alpha Z        PSCENC =        10.25815623
  Ewald energy   TEWEN  =      -749.89178961
  -Hartree energ DENC   =       -55.71548376
  -exchange      EXHF   =         0.00000000
  -V(xc)+E(xc)   XCENC  =       -62.36059601
  PAW double counting   =       612.14459606     -491.11706165
  entropy T*S    EENTRO =        -0.00624135
  eigenvalues    EBANDS =         0.05356616
  atomic energy  EATOM  =       718.02812073
  Solvation  Ediel_sol  =         0.00000000
  ---------------------------------------------------
  free energy    TOTEN  =       -18.60673320 eV

  energy without entropy =      -18.60049185  energy(sigma->0) =      -18.60361253


--------------------------------------------------------------------------------------------------------




--------------------------------------- Iteration      1(   2)  ---------------------------------------


     EDDAV:  cpu time     12.3921: real time     12.3982
       DOS:  cpu time      0.0028: real time      0.0028
    --------------------------------------------
      LOOP:  cpu time     12.3949: real time     12.4010

 eigenvalue-minimisations  :  8640
 total energy-change (2. order) :-0.1863837E+02  (-0.1863032E+02)
 number of electron      28.0000000 magnetization       4.2000000
 augmentation part       28.0000000 magnetization       4.2000000

 Free energy of the ion-electron system (eV)
  ---------------------------------------------------
  alpha Z        PSCENC =        10.25815623
  Ewald energy   TEWEN  =      -749.89178961
  -Hartree energ DENC   =       -55.71548376
  -exchange      EXHF   =         0.00000000
  -V(xc)+E(xc)   XCENC  =       -62.36059601
  PAW double counting   =       612.14459606     -491.11706165
  entropy T*S    EENTRO =        -0.00701406
  eigenvalues    EBANDS =       -18.58403165
  atomic energy  EATOM  =       718.02812073
  Solvation  Ediel_sol  =         0.00000000
  ---------------------------------------------------
  free energy    TOTEN  =       -37.24510372 eV

  energy without entropy =      -37.23808966  energy(sigma->0) =      -37.24159669


--------------------------------------------------------------------------------------------------------




--------------------------------------- Iteration      1(   3)  ---------------------------------------


     EDDAV:  cpu time      5.3320: real time      5.3523
       DOS:  cpu time      0.0028: real time      0.0028
    --------------------------------------------
      LOOP:  cpu time      5.3348: real time      5.3551

 eigenvalue-minimisations  :  5760
 total energy-change (2. order) :-0.1493763E-01  (-0.1493762E-01)
 number of electron      28.0000000 magnetization       4.2000000
 augmentation part       28.0000000 magnetization       4.2000000

 Free energy of the ion-electron system (eV)
  ---------------------------------------------------
  alpha Z        PSCENC =        10.25815623
  Ewald energy   TEWEN  =      -749.89178961
  -Hartree energ DENC   =       -55.71548376
  -exchange      EXHF   =         0.00000000
  -V(xc)+E(xc)   XCENC  =       -62.36059601
  PAW double counting   =       612.14459606     -491.11706165
  entropy T*S    EENTRO =        -0.00701754
  eigenvalues    EBANDS =       -18.59896580
  atomic energy  EATOM  =       718.02812073
  Solvation  Ediel_sol  =         0.00000000
  ---------------------------------------------------
  free energy    TOTEN  =       -37.26004135 eV

  energy without entropy =      -37.25302381  energy(sigma->0) =      -37.25653258


--------------------------------------------------------------------------------------------------------




--------------------------------------- Iteration      1(   4)  ---------------------------------------


     EDDAV:  cpu time     25.4794: real time     25.4994
       DOS:  cpu time      0.0028: real time      0.0028
    --------------------------------------------
      LOOP:  cpu time     25.4822: real time     25.5022

 eigenvalue-minimisations  : 11520
 total energy-change (2. order) :-0.7558610E-05  (-0.7559087E-05)
 number of electron      28.0000000 magnetization       4.2000000
 augmentation part       28.0000000 magnetization       4.2000000

 Free energy of the ion-electron system (eV)
  ---------------------------------------------------
  alpha Z        PSCENC =        10.25815623
  Ewald energy   TEWEN  =      -749.89178961
  -Hartree energ DENC   =       -55.71548376
  -exchange      EXHF   =         0.00000000
  -V(xc)+E(xc)   XCENC  =       -62.36059601
  PAW double counting   =       612.14459606     -491.11706165
  entropy T*S    EENTRO =        -0.00701754
  eigenvalues    EBANDS =       -18.59897336
  atomic energy  EATOM  =       718.02812073
  Solvation  Ediel_sol  =         0.00000000
  ---------------------------------------------------
  free energy    TOTEN  =       -37.26004891 eV

  energy without entropy =      -37.25303137  energy(sigma->0) =      -37.25654014


--------------------------------------------------------------------------------------------------------




--------------------------------------- Iteration      1(   5)  ---------------------------------------


     EDDAV:  cpu time      5.6983: real time      5.7168
       DOS:  cpu time      0.0028: real time      0.0028
    CHARGE:  cpu time      0.0393: real time      0.0393
    MIXING:  cpu time      0.0020: real time      0.0021
    --------------------------------------------
      LOOP:  cpu time      5.7424: real time      5.7611

 eigenvalue-minimisations  :  5760
 total energy-change (2. order) :-0.4998810E-09  (-0.1894101E-11)
 number of electron      28.0000001 magnetization       1.0996123
 augmentation part       -1.6681156 magnetization       0.2642415

 Broyden mixing:
  rms(total) = 0.88168E+00    rms(broyden)= 0.88168E+00
  rms(prec ) = 0.12384E+01
  weight for this iteration     100.00

 Free energy of the ion-electron system (eV)
  ---------------------------------------------------
  alpha Z        PSCENC =        10.25815623
  Ewald energy   TEWEN  =      -749.89178961
  -Hartree energ DENC   =       -55.71548376
  -exchange      EXHF   =         0.00000000
  -V(xc)+E(xc)   XCENC  =       -62.36059601
  PAW double counting   =       612.14459606     -491.11706165
  entropy T*S    EENTRO =        -0.00701754
  eigenvalues    EBANDS =       -18.59897336
  atomic energy  EATOM  =       718.02812073
  Solvation  Ediel_sol  =         0.00000000
  ---------------------------------------------------
  free energy    TOTEN  =       -37.26004891 eV

  energy without entropy =      -37.25303137  energy(sigma->0) =      -37.25654014


--------------------------------------------------------------------------------------------------------




--------------------------------------- Iteration      1(   6)  ---------------------------------------


    POTLOK:  cpu time      0.0254: real time      0.0419
    SETDIJ:  cpu time      0.2005: real time      0.2005
    EDDIAG:  cpu time      0.8255: real time      0.8260
  RMM-DIIS:  cpu time      0.1830: real time      0.1837
    ORTHCH:  cpu time      0.1140: real time      0.1140
       DOS:  cpu time      0.0022: real time      0.0022
    CHARGE:  cpu time      0.0388: real time      0.0388
    MIXING:  cpu time      0.0006: real time      0.0006
    --------------------------------------------
      LOOP:  cpu time      1.3899: real time      1.4077

 eigenvalue-minimisations  :  5760
 total energy-change (2. order) : 0.1054180E+00  (-0.2771172E-02)
 number of electron      28.0000001 magnetization       0.0447974
 augmentation part       -1.6574074 magnetization      -0.3987595

 Broyden mixing:
  rms(total) = 0.48483E+00    rms(broyden)= 0.48483E+00
  rms(prec ) = 0.64913E+00
  weight for this iteration     100.00

 eigenvalues of (default mixing * dielectric matrix)
  average eigenvalue GAMMA=   1.3162
  1.3162

 Free energy of the ion-electron system (eV)
  ---------------------------------------------------
  alpha Z        PSCENC =        10.25815623
  Ewald energy   TEWEN  =      -749.89178961
  -Hartree energ DENC   =       -60.52840425
  -exchange      EXHF   =         0.00000000
  -V(xc)+E(xc)   XCENC  =       -61.98791675
  PAW double counting   =      1195.66515588    -1074.88800000
  entropy T*S    EENTRO =        -0.00446928
  eigenvalues    EBANDS =       -13.80548384
  atomic energy  EATOM  =       718.02812073
  Solvation  Ediel_sol  =         0.00000000
  ---------------------------------------------------
  free energy    TOTEN  =       -37.15463089 eV

  energy without entropy =      -37.15016161  energy(sigma->0) =      -37.15239625


--------------------------------------------------------------------------------------------------------




--------------------------------------- Iteration      1(   7)  ---------------------------------------


    POTLOK:  cpu time      0.0246: real time      0.0407
    SETDIJ:  cpu time      0.2001: real time      0.2001
    EDDIAG:  cpu time      0.7842: real time      0.7843
  RMM-DIIS:  cpu time      0.1676: real time      0.1676
    ORTHCH:  cpu time      0.1120: real time      0.1120
       DOS:  cpu time      0.0026: real time      0.0026
    CHARGE:  cpu time      0.0381: real time      0.0381
    MIXING:  cpu time      0.0004: real time      0.0004
    --------------------------------------------
      LOOP:  cpu time      1.3296: real time      1.3458

 eigenvalue-minimisations  :  5760
 total energy-change (2. order) : 0.1303534E+00  (-0.2475666E-02)
 number of electron      28.0000001 magnetization       0.0277931
 augmentation part       -1.6489268 magnetization      -0.1048348

 Broyden mixing:
  rms(total) = 0.17273E+00    rms(broyden)= 0.17273E+00
  rms(prec ) = 0.20706E+00
  weight for this iteration     100.00

 eigenvalues of (default mixing * dielectric matrix)
  average eigenvalue GAMMA=   1.3422
  0.7378  1.9466

 Free energy of the ion-electron system (eV)
  ---------------------------------------------------
  alpha Z        PSCENC =        10.25815623
  Ewald energy   TEWEN  =      -749.89178961
  -Hartree energ DENC   =       -64.97031517
  -exchange      EXHF   =         0.00000000
  -V(xc)+E(xc)   XCENC  =       -61.33278332
  PAW double counting   =      2062.36657321    -1941.80887048
  entropy T*S    EENTRO =        -0.00619053
  eigenvalues    EBANDS =        -9.66717850
  atomic energy  EATOM  =       718.02812073
  Solvation  Ediel_sol  =         0.00000000
  ---------------------------------------------------
  free energy    TOTEN  =       -37.02427745 eV

  energy without entropy =      -37.01808692  energy(sigma->0) =      -37.02118219


--------------------------------------------------------------------------------------------------------




--------------------------------------- Iteration      1(   8)  ---------------------------------------


    POTLOK:  cpu time      0.0214: real time      0.0400
    SETDIJ:  cpu time      0.1998: real time      0.1998
    EDDIAG:  cpu time      0.7740: real time      0.7740
  RMM-DIIS:  cpu time      0.1677: real time      0.1677
    ORTHCH:  cpu time      0.1109: real time      0.1109
       DOS:  cpu time      0.0025: real time      0.0025
    CHARGE:  cpu time      0.0374: real time      0.0374
    MIXING:  cpu time      0.0004: real time      0.0004
    --------------------------------------------
      LOOP:  cpu time      1.3140: real time      1.3326

 eigenvalue-minimisations  :  5760
 total energy-change (2. order) : 0.9907945E-03  (-0.7474191E-03)
 number of electron      28.0000001 magnetization       0.0602468
 augmentation part       -1.6488479 magnetization      -0.0067418

 Broyden mixing:
  rms(total) = 0.71379E-01    rms(broyden)= 0.71379E-01
  rms(prec ) = 0.87586E-01
  weight for this iteration     100.00

 eigenvalues of (default mixing * dielectric matrix)
  average eigenvalue GAMMA=   1.3278
  2.3183  1.0280  0.6369

 Free energy of the ion-electron system (eV)
  ---------------------------------------------------
  alpha Z        PSCENC =        10.25815623
  Ewald energy   TEWEN  =      -749.89178961
  -Hartree energ DENC   =       -65.70400479
  -exchange      EXHF   =         0.00000000
  -V(xc)+E(xc)   XCENC  =       -61.16922413
  PAW double counting   =      2325.33097048    -2204.81884460
  entropy T*S    EENTRO =        -0.00645525
  eigenvalues    EBANDS =        -9.05021572
  atomic energy  EATOM  =       718.02812073
  Solvation  Ediel_sol  =         0.00000000
  ---------------------------------------------------
  free energy    TOTEN  =       -37.02328666 eV

  energy without entropy =      -37.01683141  energy(sigma->0) =      -37.02005903


--------------------------------------------------------------------------------------------------------




--------------------------------------- Iteration      1(   9)  ---------------------------------------


    POTLOK:  cpu time      0.0216: real time      0.0394
    SETDIJ:  cpu time      0.1999: real time      0.1999
    EDDIAG:  cpu time      0.7705: real time      0.7707
  RMM-DIIS:  cpu time      0.1666: real time      0.1666
    ORTHCH:  cpu time      0.1109: real time      0.1109
       DOS:  cpu time      0.0024: real time      0.0024
    CHARGE:  cpu time      0.0385: real time      0.0385
    MIXING:  cpu time      0.0004: real time      0.0004
    --------------------------------------------
      LOOP:  cpu time      1.3109: real time      1.3288

 eigenvalue-minimisations  :  5760
 total energy-change (2. order) : 0.1493868E-02  (-0.7871778E-04)
 number of electron      28.0000001 magnetization       0.0420371
 augmentation part       -1.6497593 magnetization       0.0006916

 Broyden mixing:
  rms(total) = 0.15510E-01    rms(broyden)= 0.15510E-01
  rms(prec ) = 0.24027E-01
  weight for this iteration     100.00

 eigenvalues of (default mixing * dielectric matrix)
  average eigenvalue GAMMA=   1.2588
  2.3012  1.1571  0.9454  0.6316

 Free energy of the ion-electron system (eV)
  ---------------------------------------------------
  alpha Z        PSCENC =        10.25815623
  Ewald energy   TEWEN  =      -749.89178961
  -Hartree energ DENC   =       -65.83529271
  -exchange      EXHF   =         0.00000000
  -V(xc)+E(xc)   XCENC  =       -61.10454609
  PAW double counting   =      2424.92995377    -2304.42746712
  entropy T*S    EENTRO =        -0.00653657
  eigenvalues    EBANDS =        -8.97239143
  atomic energy  EATOM  =       718.02812073
  Solvation  Ediel_sol  =         0.00000000
  ---------------------------------------------------
  free energy    TOTEN  =       -37.02179279 eV

  energy without entropy =      -37.01525622  energy(sigma->0) =      -37.01852451


--------------------------------------------------------------------------------------------------------




--------------------------------------- Iteration      1(  10)  ---------------------------------------


    POTLOK:  cpu time      0.0196: real time      0.0395
    SETDIJ:  cpu time      0.1999: real time      0.1999
    EDDIAG:  cpu time      0.7634: real time      0.7635
  RMM-DIIS:  cpu time      0.1675: real time      0.1675
    ORTHCH:  cpu time      0.1107: real time      0.1107
       DOS:  cpu time      0.0025: real time      0.0025
    CHARGE:  cpu time      0.0371: real time      0.0371
    MIXING:  cpu time      0.0004: real time      0.0004
    --------------------------------------------
      LOOP:  cpu time      1.3011: real time      1.3212

 eigenvalue-minimisations  :  5760
 total energy-change (2. order) :-0.9056625E-04  (-0.2806729E-04)
 number of electron      28.0000001 magnetization       0.0273728
 augmentation part       -1.6503838 magnetization      -0.0058343

 Broyden mixing:
  rms(total) = 0.98747E-02    rms(broyden)= 0.98747E-02
  rms(prec ) = 0.13106E-01
  weight for this iteration     100.00

 eigenvalues of (default mixing * dielectric matrix)
  average eigenvalue GAMMA=   1.2595
  2.2202  1.5201  1.0907  0.8380  0.6285

 Free energy of the ion-electron system (eV)
  ---------------------------------------------------
  alpha Z        PSCENC =        10.25815623
  Ewald energy   TEWEN  =      -749.89178961
  -Hartree energ DENC   =       -65.81261321
  -exchange      EXHF   =         0.00000000
  -V(xc)+E(xc)   XCENC  =       -61.09125986
  PAW double counting   =      2428.28131263    -2307.77627029
  entropy T*S    EENTRO =        -0.00657949
  eigenvalues    EBANDS =        -9.01096049
  atomic energy  EATOM  =       718.02812073
  Solvation  Ediel_sol  =         0.00000000
  ---------------------------------------------------
  free energy    TOTEN  =       -37.02188336 eV

  energy without entropy =      -37.01530387  energy(sigma->0) =      -37.01859361


--------------------------------------------------------------------------------------------------------




--------------------------------------- Iteration      1(  11)  ---------------------------------------


    POTLOK:  cpu time      0.0330: real time      0.0389
    SETDIJ:  cpu time      0.2002: real time      0.2002
    EDDIAG:  cpu time      0.7595: real time      0.7595
  RMM-DIIS:  cpu time      0.1679: real time      0.1679
    ORTHCH:  cpu time      0.1099: real time      0.1099
       DOS:  cpu time      0.0024: real time      0.0024
    CHARGE:  cpu time      0.0366: real time      0.0366
    MIXING:  cpu time      0.0004: real time      0.0004
    --------------------------------------------
      LOOP:  cpu time      1.3100: real time      1.3159

 eigenvalue-minimisations  :  5760
 total energy-change (2. order) :-0.4832646E-04  (-0.9578733E-05)
 number of electron      28.0000001 magnetization       0.0172105
 augmentation part       -1.6507466 magnetization      -0.0052655

 Broyden mixing:
  rms(total) = 0.53395E-02    rms(broyden)= 0.53395E-02
  rms(prec ) = 0.63291E-02
  weight for this iteration     100.00

 eigenvalues of (default mixing * dielectric matrix)
  average eigenvalue GAMMA=   1.4095
  2.4291  2.4291  1.2670  0.9689  0.6293  0.7337

 Free energy of the ion-electron system (eV)
  ---------------------------------------------------
  alpha Z        PSCENC =        10.25815623
  Ewald energy   TEWEN  =      -749.89178961
  -Hartree energ DENC   =       -65.80526138
  -exchange      EXHF   =         0.00000000
  -V(xc)+E(xc)   XCENC  =       -61.08469344
  PAW double counting   =      2415.49976082    -2294.99247986
  entropy T*S    EENTRO =        -0.00661696
  eigenvalues    EBANDS =        -9.02712820
  atomic energy  EATOM  =       718.02812073
  Solvation  Ediel_sol  =         0.00000000
  ---------------------------------------------------
  free energy    TOTEN  =       -37.02193168 eV

  energy without entropy =      -37.01531472  energy(sigma->0) =      -37.01862320


--------------------------------------------------------------------------------------------------------




--------------------------------------- Iteration      1(  12)  ---------------------------------------


    POTLOK:  cpu time      0.0198: real time      0.0397
    SETDIJ:  cpu time      0.2000: real time      0.2000
    EDDIAG:  cpu time      0.7540: real time      0.7541
  RMM-DIIS:  cpu time      0.1695: real time      0.1695
    ORTHCH:  cpu time      0.1109: real time      0.1109
       DOS:  cpu time      0.0025: real time      0.0025
    CHARGE:  cpu time      0.0366: real time      0.0366
    MIXING:  cpu time      0.0005: real time      0.0005
    --------------------------------------------
      LOOP:  cpu time      1.2936: real time      1.3137

 eigenvalue-minimisations  :  5760
 total energy-change (2. order) :-0.3111475E-04  (-0.2024944E-05)
 number of electron      28.0000001 magnetization       0.0133303
 augmentation part       -1.6509014 magnetization      -0.0018289

 Broyden mixing:
  rms(total) = 0.19984E-02    rms(broyden)= 0.19984E-02
  rms(prec ) = 0.23567E-02
  weight for this iteration     100.00

 eigenvalues of (default mixing * dielectric matrix)
  average eigenvalue GAMMA=   1.3991
  2.6193  2.6193  1.3954  0.9902  0.8722  0.6323  0.6652

 Free energy of the ion-electron system (eV)
  ---------------------------------------------------
  alpha Z        PSCENC =        10.25815623
  Ewald energy   TEWEN  =      -749.89178961
  -Hartree energ DENC   =       -65.81417466
  -exchange      EXHF   =         0.00000000
  -V(xc)+E(xc)   XCENC  =       -61.08019969
  PAW double counting   =      2405.60664235    -2285.09866749
  entropy T*S    EENTRO =        -0.00663396
  eigenvalues    EBANDS =        -9.02341670
  atomic energy  EATOM  =       718.02812073
  Solvation  Ediel_sol  =         0.00000000
  ---------------------------------------------------
  free energy    TOTEN  =       -37.02196280 eV

  energy without entropy =      -37.01532884  energy(sigma->0) =      -37.01864582


--------------------------------------------------------------------------------------------------------




--------------------------------------- Iteration      1(  13)  ---------------------------------------


    POTLOK:  cpu time      0.0224: real time      0.0403
    SETDIJ:  cpu time      0.2000: real time      0.2000
    EDDIAG:  cpu time      0.7487: real time      0.7488
  RMM-DIIS:  cpu time      0.1679: real time      0.1679
    ORTHCH:  cpu time      0.1107: real time      0.1107
       DOS:  cpu time      0.0024: real time      0.0024
    --------------------------------------------
      LOOP:  cpu time      1.2521: real time      1.2701

 eigenvalue-minimisations  :  4842
 total energy-change (2. order) :-0.3764830E-05  (-0.2590747E-06)
 number of electron      28.0000001 magnetization       0.0133303
 augmentation part       -1.6509014 magnetization      -0.0018289

 Free energy of the ion-electron system (eV)
  ---------------------------------------------------
  alpha Z        PSCENC =        10.25815623
  Ewald energy   TEWEN  =      -749.89178961
  -Hartree energ DENC   =       -65.82504280
  -exchange      EXHF   =         0.00000000
  -V(xc)+E(xc)   XCENC  =       -61.07864205
  PAW double counting   =      2402.33885547    -2281.83118774
  entropy T*S    EENTRO =        -0.00663862
  eigenvalues    EBANDS =        -9.01379817
  atomic energy  EATOM  =       718.02812073
  Solvation  Ediel_sol  =         0.00000000
  ---------------------------------------------------
  free energy    TOTEN  =       -37.02196656 eV

  energy without entropy =      -37.01532794  energy(sigma->0) =      -37.01864725


--------------------------------------------------------------------------------------------------------




 average (electrostatic) potential at core
  the test charge radii are     0.9892
  (the norm of the test charge is              1.0000)
       1 -84.6985       2 -84.4875       3 -84.6985       4 -84.4875       5 -84.6985
       6 -84.4875       7 -84.6985



 E-fermi :   4.7499     XC(G=0):  -9.0788     alpha+bet :-10.4411

 Fermi energy:         4.7498783713

 spin component 1

 k-point     1 :       0.0000    0.0000    0.0000
  band No.  band energies     occupation
      1      -6.9302      1.00000
      2      -3.2570      1.00000
      3      -3.2570      1.00000
      4      -2.8933      1.00000
      5      -2.8933      1.00000
      6      -2.8933      1.00000
      7       1.2159      1.00000
      8       1.6921      1.00000
      9       1.6921      1.00000
     10       1.6921      1.00000
     11       2.9305      1.00000
     12       2.9305      1.00000
     13       2.9305      1.00000
     14       5.5777      0.00000
     15       5.5777      0.00000
     16       5.5818      0.00000
     17       5.5818      0.00000
     18       5.5818      0.00000
     19       6.1567      0.00000
     20       6.1567      0.00000
     21       6.1567      0.00000
     22       6.2840      0.00000
     23       8.5346      0.00000
     24       8.5346      0.00000
     25       8.5346      0.00000
     26      10.1531      0.00000
     27      12.9505      0.00000
     28      12.9505      0.00000
     29      13.1382      0.00000
     30      14.5865      0.00000
     31      14.5865      0.00000
     32      14.5865      0.00000
     33      15.6181      0.00000
     34      15.6181      0.00000
     35      15.6181      0.00000
     36      15.6756      0.00000
     37      15.6756      0.00000
     38      15.6756      0.00000
     39      16.2986      0.00000
     40      16.2986      0.00000
     41      16.2986      0.00000
     42      17.0000      0.00000
     43      17.4434      0.00000
     44      17.4434      0.00000
     45      17.4820      0.00000
     46      17.4820      0.00000
     47      17.4820      0.00000
     48      18.1568      0.00000
     49      18.1568      0.00000
     50      18.1568      0.00000
     51      19.1643      0.00000
     52      19.1643      0.00000
     53      19.1809      0.00000
     54      20.2797      0.00000
     55      20.9366      0.00000
     56      20.9366      0.00000
     57      20.9366      0.00000
     58      23.5729      0.00000
     59      23.6928      0.00000
     60      23.6928      0.00000
     61      23.6928      0.00000
     62      24.3972      0.00000
     63      24.3972      0.00000
     64      24.3972      0.00000
     65      24.8393      0.00000
     66      24.8393      0.00000
     67      24.8393      0.00000
     68      24.9418      0.00000
     69      24.9418      0.00000
     70      24.9418      0.00000
     71      25.3002      0.00000
     72      25.3002      0.00000
     73      26.0983      0.00000
     74      26.0983      0.00000
     75      26.2380      0.00000
     76      26.2380      0.00000
     77      26.2380      0.00000
     78      27.1313      0.00000
     79      27.1313      0.00000
     80      27.1313      0.00000
     81      27.5279      0.00000
     82      28.4628      0.00000
     83      28.4628      0.00000
     84      28.4628      0.00000
     85      29.3735      0.00000
     86      29.3735      0.00000
     87      30.8506      0.00000
     88      31.6809      0.00000
     89      31.6809      0.00000
     90      31.6809      0.00000
     91      32.9679      0.00000
     92      32.9679      0.00000
     93      33.1399      0.00000
     94      33.1399      0.00000
     95      33.1399      0.00000
     96      33.8720      0.00000
     97      33.8720      0.00000
     98      33.8720      0.00000
     99      35.0370      0.00000
    100      35.0370      0.00000
    101      35.0370      0.00000
    102      37.5791      0.00000
    103      37.5791      0.00000
    104      37.5791      0.00000
    105      38.8819      0.00000
    106      38.8819      0.00000
    107      38.8819      0.00000
    108      39.0668      0.00000
    109      39.0668      0.00000
    110      39.0668      0.00000
    111      39.1634      0.00000
    112      39.1634      0.00000
    113      39.3286      0.00000
    114      40.1839      0.00000
    115      40.3665      0.00000
    116      40.3665      0.00000
    117      40.3665      0.00000
    118      40.8798      0.00000
    119      40.8798      0.00000
    120      40.8798      0.00000
    121      41.8452      0.00000
    122      41.8452      0.00000
    123      41.8452      0.00000
    124      42.2278      0.00000
    125      42.2280      0.00000
    126      42.5613      0.00000
    127      42.7951      0.00000
    128      42.9507      0.00000
    129      42.9508      0.00000
    130      43.2099      0.00000
    131      43.2099      0.00000
    132      43.2099      0.00000
    133      44.2565      0.00000
    134      44.2565      0.00000
    135      44.2565      0.00000
    136      44.8043      0.00000
    137      44.8049      0.00000
    138      45.1382      0.00000
    139      45.1382      0.00000
    140      45.1382      0.00000
    141      45.8018      0.00000
    142      45.8018      0.00000
    143      45.8019      0.00000
    144      46.1682      0.00000

 k-point     2 :       0.2500    0.0000    0.0000
  band No.  band energies     occupation
      1      -6.6856      1.00000
      2      -4.5938      1.00000
      3      -3.1856      1.00000
      4      -2.8260      1.00000
      5      -2.8260      1.00000
      6      -1.5145      1.00000
      7       1.1893      1.00000
      8       1.4491      1.00000
      9       1.4491      1.00000
     10       1.5359      1.00000
     11       2.1781      1.00000
     12       2.7330      1.00000
     13       2.7330      1.00000
     14       4.8811      0.00010
     15       5.3037      0.00000
     16       5.3037      0.00000
     17       5.6902      0.00000
     18       6.3861      0.00000
     19       6.7773      0.00000
     20       7.0186      0.00000
     21       7.0186      0.00000
     22       7.5025      0.00000
     23       8.1021      0.00000
     24       9.5827      0.00000
     25       9.5827      0.00000
     26      10.7172      0.00000
     27      11.9545      0.00000
     28      12.4206      0.00000
     29      12.4900      0.00000
     30      12.4900      0.00000
     31      13.2970      0.00000
     32      13.6284      0.00000
     33      14.2551      0.00000
     34      14.3123      0.00000
     35      14.3123      0.00000
     36      15.0896      0.00000
     37      15.9092      0.00000
     38      15.9800      0.00000
     39      15.9800      0.00000
     40      16.7382      0.00000
     41      16.7833      0.00000
     42      16.7833      0.00000
     43      16.9796      0.00000
     44      17.5129      0.00000
     45      17.6670      0.00000
     46      18.3659      0.00000
     47      18.3659      0.00000
     48      18.9801      0.00000
     49      18.9801      0.00000
     50      19.4237      0.00000
     51      19.8966      0.00000
     52      19.9381      0.00000
     53      20.6402      0.00000
     54      21.0687      0.00000
     55      21.4034      0.00000
     56      21.4034      0.00000
     57      21.6074      0.00000
     58      22.0332      0.00000
     59      22.2121      0.00000
     60      22.2121      0.00000
     61      22.9000      0.00000
     62      23.2985      0.00000
     63      23.2985      0.00000
     64      23.4435      0.00000
     65      23.8798      0.00000
     66      24.2884      0.00000
     67      24.2884      0.00000
     68      24.5491      0.00000
     69      24.8416      0.00000
     70      25.8025      0.00000
     71      25.8025      0.00000
     72      26.3391      0.00000
     73      26.8274      0.00000
     74      26.9870      0.00000
     75      26.9870      0.00000
     76      27.5269      0.00000
     77      28.1059      0.00000
     78      28.2142      0.00000
     79      28.3676      0.00000
     80      28.4916      0.00000
     81      28.5891      0.00000
     82      28.5891      0.00000
     83      29.3011      0.00000
     84      29.4506      0.00000
     85      29.4506      0.00000
     86      29.9543      0.00000
     87      30.1881      0.00000
     88      30.7462      0.00000
     89      31.1066      0.00000
     90      31.1066      0.00000
     91      31.4518      0.00000
     92      32.8029      0.00000
     93      32.8029      0.00000
     94      32.8734      0.00000
     95      33.8565      0.00000
     96      34.6384      0.00000
     97      34.6384      0.00000
     98      34.7477      0.00000
     99      35.1776      0.00000
    100      36.1046      0.00000
    101      36.1046      0.00000
    102      36.3586      0.00000
    103      36.3586      0.00000
    104      36.7404      0.00000
    105      36.8518      0.00000
    106      36.9592      0.00000
    107      37.5467      0.00000
    108      37.5467      0.00000
    109      37.5956      0.00000
    110      38.2201      0.00000
    111      38.2201      0.00000
    112      38.3125      0.00000
    113      38.6492      0.00000
    114      39.7780      0.00000
    115      39.7780      0.00000
    116      39.9524      0.00000
    117      40.4397      0.00000
    118      40.5330      0.00000
    119      40.5330      0.00000
    120      40.7099      0.00000
    121      40.9296      0.00000
    122      41.3387      0.00000
    123      41.8854      0.00000
    124      42.0585      0.00000
    125      42.3685      0.00000
    126      42.3685      0.00000
    127      42.8066      0.00000
    128      43.3399      0.00000
    129      43.3399      0.00000
    130      43.3601      0.00000
    131      44.1318      0.00000
    132      44.1483      0.00000
    133      44.4813      0.00000
    134      44.7019      0.00000
    135      44.7019      0.00000
    136      44.8733      0.00000
    137      45.0476      0.00000
    138      45.0476      0.00000
    139      45.2261      0.00000
    140      45.3479      0.00000
    141      45.6169      0.00000
    142      45.6169      0.00000
    143      45.9930      0.00000
    144      45.9934      0.00000

 k-point     3 :       0.5000    0.0000    0.0000
  band No.  band energies     occupation
      1      -6.1888      1.00000
      2      -5.5353      1.00000
      3      -3.1078      1.00000
      4      -2.7531      1.00000
      5      -2.7531      1.00000
      6      -0.5734      1.00000
      7       0.7888      1.00000
      8       0.9497      1.00000
      9       1.1557      1.00000
     10       1.1557      1.00000
     11       2.7629      1.00000
     12       2.7629      1.00000
     13       2.9185      1.00000
     14       3.4821      1.00000
     15       4.8091      0.04692
     16       4.8091      0.04692
     17       6.1381      0.00000
     18       6.4111      0.00000
     19       8.1791      0.00000
     20       8.7960      0.00000
     21       9.1618      0.00000
     22       9.1799      0.00000
     23       9.1799      0.00000
     24       9.5482      0.00000
     25       9.8220      0.00000
     26       9.8220      0.00000
     27      10.4992      0.00000
     28      10.6857      0.00000
     29      11.0316      0.00000
     30      11.0316      0.00000
     31      12.8343      0.00000
     32      12.8343      0.00000
     33      13.6497      0.00000
     34      13.6804      0.00000
     35      14.8603      0.00000
     36      14.9452      0.00000
     37      15.1361      0.00000
     38      15.9760      0.00000
     39      15.9760      0.00000
     40      16.2727      0.00000
     41      16.5841      0.00000
     42      17.5386      0.00000
     43      17.5824      0.00000
     44      17.5824      0.00000
     45      18.1726      0.00000
     46      18.3835      0.00000
     47      18.5126      0.00000
     48      18.5126      0.00000
     49      19.2212      0.00000
     50      19.3947      0.00000
     51      19.3947      0.00000
     52      20.3762      0.00000
     53      21.3456      0.00000
     54      21.3514      0.00000
     55      21.3514      0.00000
     56      21.6185      0.00000
     57      22.5690      0.00000
     58      22.5690      0.00000
     59      22.6328      0.00000
     60      22.6328      0.00000
     61      23.0999      0.00000
     62      23.1104      0.00000
     63      23.4888      0.00000
     64      23.4888      0.00000
     65      23.4989      0.00000
     66      23.9643      0.00000
     67      24.1484      0.00000
     68      24.2912      0.00000
     69      24.8169      0.00000
     70      25.7058      0.00000
     71      26.0966      0.00000
     72      26.0966      0.00000
     73      26.4443      0.00000
     74      26.6644      0.00000
     75      26.6644      0.00000
     76      26.8591      0.00000
     77      26.9975      0.00000
     78      27.6393      0.00000
     79      28.8349      0.00000
     80      29.5579      0.00000
     81      29.7361      0.00000
     82      29.7361      0.00000
     83      30.0025      0.00000
     84      31.3651      0.00000
     85      31.7602      0.00000
     86      31.7602      0.00000
     87      31.8531      0.00000
     88      32.0118      0.00000
     89      32.0910      0.00000
     90      32.3502      0.00000
     91      32.3502      0.00000
     92      32.3962      0.00000
     93      32.4999      0.00000
     94      32.4999      0.00000
     95      33.5733      0.00000
     96      33.8784      0.00000
     97      33.8784      0.00000
     98      34.0937      0.00000
     99      34.2918      0.00000
    100      34.5040      0.00000
    101      34.8059      0.00000
    102      34.8170      0.00000
    103      34.8170      0.00000
    104      35.3076      0.00000
    105      35.3076      0.00000
    106      35.8308      0.00000
    107      35.9370      0.00000
    108      35.9370      0.00000
    109      36.5291      0.00000
    110      37.8687      0.00000
    111      38.4113      0.00000
    112      38.6122      0.00000
    113      38.6122      0.00000
    114      39.7861      0.00000
    115      39.8710      0.00000
    116      40.0564      0.00000
    117      40.4126      0.00000
    118      40.4126      0.00000
    119      40.4532      0.00000
    120      41.3974      0.00000
    121      41.6401      0.00000
    122      41.6401      0.00000
    123      41.6427      0.00000
    124      41.8899      0.00000
    125      41.8899      0.00000
    126      42.4422      0.00000
    127      42.4478      0.00000
    128      42.4479      0.00000
    129      42.4496      0.00000
    130      42.6689      0.00000
    131      43.1663      0.00000
    132      43.1663      0.00000
    133      44.4967      0.00000
    134      44.8348      0.00000
    135      44.8348      0.00000
    136      44.9497      0.00000
    137      45.2249      0.00000
    138      45.3607      0.00000
    139      45.3610      0.00000
    140      45.3893      0.00000
    141      45.5320      0.00000
    142      45.9502      0.00000
    143      46.4367      0.00000
    144      46.6039      0.00000

 k-point     4 :       0.2500    0.2500    0.0000
  band No.  band energies     occupation
      1      -6.4451      1.00000
      2      -4.6558      1.00000
      3      -4.1726      1.00000
      4      -2.9163      1.00000
      5      -2.0002      1.00000
      6      -1.1382      1.00000
      7       0.5039      1.00000
      8       1.3126      1.00000
      9       1.4548      1.00000
     10       1.8601      1.00000
     11       1.8634      1.00000
     12       2.8182      1.00000
     13       2.9433      1.00000
     14       3.9430      1.00000
     15       4.7263      0.74784
     16       5.7643      0.00000
     17       6.1943      0.00000
     18       6.7858      0.00000
     19       7.1902      0.00000
     20       7.4649      0.00000
     21       7.5966      0.00000
     22       9.0305      0.00000
     23       9.1097      0.00000
     24       9.2904      0.00000
     25       9.4472      0.00000
     26      10.3286      0.00000
     27      11.4882      0.00000
     28      11.5222      0.00000
     29      11.9710      0.00000
     30      12.4076      0.00000
     31      12.6394      0.00000
     32      13.2007      0.00000
     33      13.3100      0.00000
     34      13.9870      0.00000
     35      14.1453      0.00000
     36      14.7660      0.00000
     37      15.0277      0.00000
     38      15.5637      0.00000
     39      15.7827      0.00000
     40      16.1051      0.00000
     41      16.3470      0.00000
     42      16.7001      0.00000
     43      17.4719      0.00000
     44      18.1507      0.00000
     45      18.5734      0.00000
     46      18.6237      0.00000
     47      18.9743      0.00000
     48      19.2210      0.00000
     49      19.4960      0.00000
     50      19.5556      0.00000
     51      19.7190      0.00000
     52      19.9108      0.00000
     53      20.3631      0.00000
     54      20.6707      0.00000
     55      21.1396      0.00000
     56      21.2458      0.00000
     57      21.3965      0.00000
     58      22.2934      0.00000
     59      22.3479      0.00000
     60      22.6588      0.00000
     61      22.9490      0.00000
     62      23.0327      0.00000
     63      23.2564      0.00000
     64      23.8328      0.00000
     65      24.4380      0.00000
     66      24.6844      0.00000
     67      24.8869      0.00000
     68      25.0667      0.00000
     69      25.9561      0.00000
     70      26.0564      0.00000
     71      26.2564      0.00000
     72      26.3438      0.00000
     73      26.4165      0.00000
     74      26.9726      0.00000
     75      27.0499      0.00000
     76      27.1958      0.00000
     77      27.3956      0.00000
     78      27.7769      0.00000
     79      28.3017      0.00000
     80      28.5464      0.00000
     81      28.6535      0.00000
     82      29.0498      0.00000
     83      29.2996      0.00000
     84      29.9192      0.00000
     85      30.2784      0.00000
     86      30.5096      0.00000
     87      30.8781      0.00000
     88      31.0470      0.00000
     89      31.9440      0.00000
     90      32.1951      0.00000
     91      32.5419      0.00000
     92      32.7629      0.00000
     93      32.9806      0.00000
     94      33.2626      0.00000
     95      33.3506      0.00000
     96      33.5859      0.00000
     97      34.2276      0.00000
     98      34.5486      0.00000
     99      34.6758      0.00000
    100      35.0773      0.00000
    101      35.5315      0.00000
    102      35.5953      0.00000
    103      36.0745      0.00000
    104      36.3167      0.00000
    105      36.9585      0.00000
    106      37.0779      0.00000
    107      37.3226      0.00000
    108      37.6067      0.00000
    109      37.7518      0.00000
    110      37.7727      0.00000
    111      37.9076      0.00000
    112      38.3064      0.00000
    113      38.5073      0.00000
    114      38.7718      0.00000
    115      38.9132      0.00000
    116      39.2016      0.00000
    117      39.4676      0.00000
    118      39.5364      0.00000
    119      40.0590      0.00000
    120      40.1142      0.00000
    121      40.4604      0.00000
    122      40.9014      0.00000
    123      41.4601      0.00000
    124      42.0137      0.00000
    125      42.0464      0.00000
    126      42.2821      0.00000
    127      42.4376      0.00000
    128      42.9918      0.00000
    129      43.0652      0.00000
    130      43.2731      0.00000
    131      43.3629      0.00000
    132      43.4362      0.00000
    133      44.1355      0.00000
    134      44.2964      0.00000
    135      44.6066      0.00000
    136      44.7589      0.00000
    137      44.8308      0.00000
    138      44.9562      0.00000
    139      45.2905      0.00000
    140      45.7567      0.00000
    141      45.8104      0.00000
    142      46.1037      0.00000
    143      46.2894      0.00000
    144      46.5284      0.00000

 k-point     5 :       0.5000    0.2500    0.0000
  band No.  band energies     occupation
      1      -5.9460      1.00000
      2      -5.3915      1.00000
      3      -4.1784      1.00000
      4      -3.0657      1.00000
      5      -1.7267      1.00000
      6      -0.6730      1.00000
      7       0.3773      1.00000
      8       0.5995      1.00000
      9       1.4143      1.00000
     10       1.7832      1.00000
     11       2.4223      1.00000
     12       2.5817      1.00000
     13       3.0035      1.00000
     14       3.4284      1.00000
     15       4.9047      0.00001
     16       4.9239      0.00000
     17       7.3678      0.00000
     18       7.6143      0.00000
     19       7.7579      0.00000
     20       7.8660      0.00000
     21       8.9866      0.00000
     22       9.3480      0.00000
     23       9.3961      0.00000
     24       9.7563      0.00000
     25       9.8464      0.00000
     26       9.8954      0.00000
     27      10.2982      0.00000
     28      10.6417      0.00000
     29      11.4157      0.00000
     30      11.9832      0.00000
     31      12.3578      0.00000
     32      12.4793      0.00000
     33      12.8673      0.00000
     34      12.9988      0.00000
     35      13.6025      0.00000
     36      14.1634      0.00000
     37      15.0207      0.00000
     38      15.3047      0.00000
     39      15.9877      0.00000
     40      16.2495      0.00000
     41      16.8033      0.00000
     42      16.8132      0.00000
     43      17.0984      0.00000
     44      17.5958      0.00000
     45      18.7060      0.00000
     46      18.9536      0.00000
     47      19.0253      0.00000
     48      19.2504      0.00000
     49      19.6330      0.00000
     50      19.6336      0.00000
     51      19.8035      0.00000
     52      20.2180      0.00000
     53      20.2580      0.00000
     54      20.3364      0.00000
     55      21.0158      0.00000
     56      21.3427      0.00000
     57      21.9573      0.00000
     58      22.0113      0.00000
     59      22.2250      0.00000
     60      22.9255      0.00000
     61      23.1501      0.00000
     62      23.7274      0.00000
     63      23.8410      0.00000
     64      23.9598      0.00000
     65      24.4867      0.00000
     66      24.5060      0.00000
     67      25.2826      0.00000
     68      25.4343      0.00000
     69      25.5451      0.00000
     70      25.9541      0.00000
     71      26.2029      0.00000
     72      26.5034      0.00000
     73      26.9645      0.00000
     74      27.2162      0.00000
     75      27.3502      0.00000
     76      27.3729      0.00000
     77      27.8420      0.00000
     78      28.2496      0.00000
     79      28.5192      0.00000
     80      28.9807      0.00000
     81      29.1006      0.00000
     82      29.5568      0.00000
     83      29.5822      0.00000
     84      30.0652      0.00000
     85      30.7652      0.00000
     86      30.8509      0.00000
     87      31.4371      0.00000
     88      31.7816      0.00000
     89      32.0623      0.00000
     90      32.1532      0.00000
     91      32.4250      0.00000
     92      32.7047      0.00000
     93      32.7114      0.00000
     94      33.3351      0.00000
     95      33.3452      0.00000
     96      33.7337      0.00000
     97      33.8308      0.00000
     98      34.1629      0.00000
     99      34.4956      0.00000
    100      34.6835      0.00000
    101      35.0146      0.00000
    102      35.0565      0.00000
    103      35.5912      0.00000
    104      36.1701      0.00000
    105      36.1810      0.00000
    106      36.1954      0.00000
    107      36.4353      0.00000
    108      36.9379      0.00000
    109      37.1740      0.00000
    110      37.3186      0.00000
    111      37.3827      0.00000
    112      38.0946      0.00000
    113      38.1438      0.00000
    114      38.3290      0.00000
    115      38.7273      0.00000
    116      38.9875      0.00000
    117      39.2517      0.00000
    118      39.4584      0.00000
    119      40.2427      0.00000
    120      40.4149      0.00000
    121      40.6172      0.00000
    122      40.7869      0.00000
    123      41.2070      0.00000
    124      41.4870      0.00000
    125      41.7709      0.00000
    126      41.9592      0.00000
    127      42.1510      0.00000
    128      42.4614      0.00000
    129      42.6388      0.00000
    130      42.9494      0.00000
    131      43.1994      0.00000
    132      43.6202      0.00000
    133      43.8563      0.00000
    134      44.1046      0.00000
    135      44.2518      0.00000
    136      44.6840      0.00000
    137      44.9423      0.00000
    138      45.1968      0.00000
    139      45.3484      0.00000
    140      45.4162      0.00000
    141      45.7749      0.00000
    142      45.9378      0.00000
    143      46.2220      0.00000
    144      46.6842      0.00000

 k-point     6 :       0.5000    0.5000    0.0000
  band No.  band energies     occupation
      1      -5.2790      1.00000
      2      -5.2062      1.00000
      3      -5.2062      1.00000
      4      -3.4274      1.00000
      5      -0.6277      1.00000
      6      -0.6277      1.00000
      7      -0.5477      1.00000
      8       0.7176      1.00000
      9       1.2242      1.00000
     10       1.2242      1.00000
     11       2.5995      1.00000
     12       3.0186      1.00000
     13       3.2829      1.00000
     14       3.2919      1.00000
     15       5.3920      0.00000
     16       5.3920      0.00000
     17       7.0152      0.00000
     18       7.0152      0.00000
     19       8.4285      0.00000
     20       8.4530      0.00000
     21       9.3765      0.00000
     22       9.4914      0.00000
     23       9.8033      0.00000
     24       9.8033      0.00000
     25      10.0031      0.00000
     26      10.2253      0.00000
     27      10.2253      0.00000
     28      10.5917      0.00000
     29      11.0273      0.00000
     30      11.8219      0.00000
     31      11.8219      0.00000
     32      12.5544      0.00000
     33      12.6461      0.00000
     34      12.6461      0.00000
     35      12.7172      0.00000
     36      12.9637      0.00000
     37      14.5220      0.00000
     38      15.4508      0.00000
     39      15.4508      0.00000
     40      15.6266      0.00000
     41      17.3991      0.00000
     42      17.5337      0.00000
     43      17.5337      0.00000
     44      18.1914      0.00000
     45      18.1914      0.00000
     46      18.1986      0.00000
     47      18.4472      0.00000
     48      18.8479      0.00000
     49      19.0986      0.00000
     50      19.0986      0.00000
     51      19.1240      0.00000
     52      20.5430      0.00000
     53      21.3497      0.00000
     54      21.7222      0.00000
     55      21.7222      0.00000
     56      21.8495      0.00000
     57      21.8508      0.00000
     58      21.8508      0.00000
     59      21.9135      0.00000
     60      22.4485      0.00000
     61      23.0742      0.00000
     62      23.2997      0.00000
     63      23.5710      0.00000
     64      23.5710      0.00000
     65      24.4084      0.00000
     66      25.2213      0.00000
     67      26.3070      0.00000
     68      26.3070      0.00000
     69      26.5157      0.00000
     70      26.5157      0.00000
     71      26.7348      0.00000
     72      26.8692      0.00000
     73      26.8692      0.00000
     74      27.4339      0.00000
     75      27.5981      0.00000
     76      27.6934      0.00000
     77      28.8197      0.00000
     78      28.9658      0.00000
     79      28.9658      0.00000
     80      29.5008      0.00000
     81      29.7206      0.00000
     82      29.7466      0.00000
     83      29.7466      0.00000
     84      31.0628      0.00000
     85      31.1406      0.00000
     86      31.1636      0.00000
     87      31.2994      0.00000
     88      31.2994      0.00000
     89      31.3631      0.00000
     90      31.6519      0.00000
     91      31.9842      0.00000
     92      31.9842      0.00000
     93      32.6663      0.00000
     94      32.6663      0.00000
     95      32.7992      0.00000
     96      32.8010      0.00000
     97      32.8010      0.00000
     98      33.4065      0.00000
     99      33.7967      0.00000
    100      34.0549      0.00000
    101      34.1431      0.00000
    102      34.5241      0.00000
    103      35.4228      0.00000
    104      35.5674      0.00000
    105      35.5674      0.00000
    106      36.1951      0.00000
    107      36.5879      0.00000
    108      36.5879      0.00000
    109      37.1696      0.00000
    110      37.1696      0.00000
    111      37.6344      0.00000
    112      38.4105      0.00000
    113      38.9965      0.00000
    114      38.9965      0.00000
    115      39.0829      0.00000
    116      39.8629      0.00000
    117      40.3459      0.00000
    118      40.7692      0.00000
    119      40.8521      0.00000
    120      40.8521      0.00000
    121      40.9116      0.00000
    122      41.4326      0.00000
    123      41.7565      0.00000
    124      41.8890      0.00000
    125      41.8890      0.00000
    126      42.2179      0.00000
    127      42.4593      0.00000
    128      42.6585      0.00000
    129      42.7430      0.00000
    130      42.7430      0.00000
    131      42.7757      0.00000
    132      42.7757      0.00000
    133      42.9148      0.00000
    134      43.0415      0.00000
    135      43.0415      0.00000
    136      43.3702      0.00000
    137      43.6263      0.00000
    138      43.8565      0.00000
    139      43.8565      0.00000
    140      44.2909      0.00000
    141      44.2909      0.00000
    142      44.5108      0.00000
    143      44.9059      0.00000
    144      45.0445      0.00000

 k-point     7 :       0.2500    0.2500    0.2500
  band No.  band energies     occupation
      1      -6.2127      1.00000
      2      -4.5523      1.00000
      3      -4.5523      1.00000
      4      -3.2384      1.00000
      5      -1.4803      1.00000
      6      -1.4803      1.00000
      7       0.1168      1.00000
      8       1.1847      1.00000
      9       1.1847      1.00000
     10       2.2137      1.00000
     11       2.3354      1.00000
     12       3.1007      1.00000
     13       3.1007      1.00000
     14       3.5666      1.00000
     15       5.5111      0.00000
     16       5.5111      0.00000
     17       6.4035      0.00000
     18       6.4569      0.00000
     19       6.4569      0.00000
     20       8.5542      0.00000
     21       8.7269      0.00000
     22       8.7269      0.00000
     23       9.7210      0.00000
     24       9.7210      0.00000
     25       9.9524      0.00000
     26      10.3430      0.00000
     27      10.3430      0.00000
     28      10.4328      0.00000
     29      11.7698      0.00000
     30      11.7698      0.00000
     31      12.4916      0.00000
     32      12.9421      0.00000
     33      12.9421      0.00000
     34      13.9366      0.00000
     35      14.0231      0.00000
     36      15.2383      0.00000
     37      15.3435      0.00000
     38      15.3435      0.00000
     39      15.7901      0.00000
     40      15.9843      0.00000
     41      15.9843      0.00000
     42      16.9524      0.00000
     43      17.3236      0.00000
     44      17.4845      0.00000
     45      17.4845      0.00000
     46      17.7624      0.00000
     47      18.5199      0.00000
     48      18.5199      0.00000
     49      19.4317      0.00000
     50      19.4317      0.00000
     51      19.4631      0.00000
     52      20.2119      0.00000
     53      20.2119      0.00000
     54      22.0313      0.00000
     55      22.0313      0.00000
     56      22.3012      0.00000
     57      22.3617      0.00000
     58      22.8175      0.00000
     59      22.8175      0.00000
     60      23.1661      0.00000
     61      23.2001      0.00000
     62      23.2001      0.00000
     63      24.0069      0.00000
     64      24.0069      0.00000
     65      24.0101      0.00000
     66      24.3953      0.00000
     67      24.6514      0.00000
     68      24.6514      0.00000
[...]
     42      16.2002      0.00000
     43      16.2180      0.00000
     44      16.8848      0.00000
     45      18.1086      0.00000
     46      18.1086      0.00000
     47      18.2515      0.00000
     48      18.8136      0.00000
     49      19.0213      0.00000
     50      19.2558      0.00000
     51      19.2558      0.00000
     52      19.4830      0.00000
     53      20.0697      0.00000
     54      21.5466      0.00000
     55      21.5466      0.00000
     56      22.0213      0.00000
     57      22.3326      0.00000
     58      22.5262      0.00000
     59      22.6411      0.00000
     60      22.6411      0.00000
     61      23.6976      0.00000
     62      23.6976      0.00000
     63      23.7564      0.00000
     64      25.0338      0.00000
     65      25.2857      0.00000
     66      25.9252      0.00000
     67      25.9252      0.00000
     68      26.0816      0.00000
     69      26.9805      0.00000
     70      26.9805      0.00000
     71      27.1766      0.00000
     72      27.1912      0.00000
     73      27.3405      0.00000
     74      27.4986      0.00000
     75      27.4986      0.00000
     76      28.5257      0.00000
     77      28.7792      0.00000
     78      28.7792      0.00000
     79      29.2430      0.00000
     80      29.2434      0.00000
     81      29.4891      0.00000
     82      30.3627      0.00000
     83      30.3627      0.00000
     84      30.4043      0.00000
     85      30.5008      0.00000
     86      30.6982      0.00000
     87      30.6982      0.00000
     88      31.5059      0.00000
     89      32.0122      0.00000
     90      32.0122      0.00000
     91      32.1124      0.00000
     92      32.3808      0.00000
     93      32.7157      0.00000
     94      33.0301      0.00000
     95      33.0301      0.00000
     96      33.6179      0.00000
     97      33.6179      0.00000
     98      33.7294      0.00000
     99      33.7319      0.00000
    100      34.1567      0.00000
    101      34.9649      0.00000
    102      35.2163      0.00000
    103      35.2163      0.00000
    104      35.3166      0.00000
    105      35.6912      0.00000
    106      36.1586      0.00000
    107      36.2450      0.00000
    108      36.2450      0.00000
    109      36.8934      0.00000
    110      37.5086      0.00000
    111      37.5086      0.00000
    112      37.5184      0.00000
    113      37.8813      0.00000
    114      38.1661      0.00000
    115      38.1661      0.00000
    116      38.2676      0.00000
    117      39.0595      0.00000
    118      39.2338      0.00000
    119      39.2338      0.00000
    120      39.2354      0.00000
    121      39.6627      0.00000
    122      39.8074      0.00000
    123      39.8074      0.00000
    124      40.7996      0.00000
    125      41.0465      0.00000
    126      41.7454      0.00000
    127      41.7454      0.00000
    128      41.8317      0.00000
    129      42.1200      0.00000
    130      42.8421      0.00000
    131      42.8836      0.00000
    132      43.0219      0.00000
    133      43.0219      0.00000
    134      43.5111      0.00000
    135      44.1547      0.00000
    136      44.1547      0.00000
    137      44.3398      0.00000
    138      45.0293      0.00000
    139      45.0294      0.00000
    140      45.5325      0.00000
    141      45.5805      0.00000
    142      45.7258      0.00000
    143      45.7259      0.00000
    144      46.1876      0.00000

 k-point    10 :       0.5000    0.5000    0.5000
  band No.  band energies     occupation
      1      -4.9739      1.00000
      2      -4.9739      1.00000
      3      -4.9739      1.00000
      4      -3.4451      1.00000
      5      -1.9411      1.00000
      6      -1.9411      1.00000
      7      -1.9411      1.00000
      8       0.6769      1.00000
      9       3.3347      1.00000
     10       3.3347      1.00000
     11       3.3347      1.00000
     12       3.4550      1.00000
     13       3.4550      1.00000
     14       5.9152      0.00000
     15       5.9152      0.00000
     16       5.9152      0.00000
     17       6.2753      0.00000
     18       6.2753      0.00000
     19       6.2753      0.00000
     20       7.8712      0.00000
     21       7.8712      0.00000
     22       7.8712      0.00000
     23       8.6727      0.00000
     24       8.6727      0.00000
     25       9.7249      0.00000
     26       9.7274      0.00000
     27       9.7274      0.00000
     28       9.7274      0.00000
     29      12.5613      0.00000
     30      12.8303      0.00000
     31      12.8303      0.00000
     32      12.8303      0.00000
     33      15.2201      0.00000
     34      15.2201      0.00000
     35      15.2201      0.00000
     36      15.3448      0.00000
     37      15.3448      0.00000
     38      15.6725      0.00000
     39      15.6725      0.00000
     40      15.6725      0.00000
     41      16.1756      0.00000
     42      16.1756      0.00000
     43      16.1756      0.00000
     44      16.6629      0.00000
     45      16.7923      0.00000
     46      16.7923      0.00000
     47      16.7923      0.00000
     48      17.4496      0.00000
     49      17.4496      0.00000
     50      17.4496      0.00000
     51      17.7206      0.00000
     52      17.7206      0.00000
     53      18.9569      0.00000
     54      21.1709      0.00000
     55      21.1709      0.00000
     56      21.1709      0.00000
     57      24.6240      0.00000
     58      24.6565      0.00000
     59      24.6565      0.00000
     60      24.6565      0.00000
     61      25.1222      0.00000
     62      25.1222      0.00000
     63      25.1222      0.00000
     64      25.6809      0.00000
     65      26.2355      0.00000
     66      26.2355      0.00000
     67      26.2355      0.00000
     68      26.4198      0.00000
     69      26.4198      0.00000
     70      26.4234      0.00000
     71      26.4234      0.00000
     72      26.4234      0.00000
     73      26.7079      0.00000
     74      26.7079      0.00000
     75      26.7079      0.00000
     76      28.3352      0.00000
     77      28.3352      0.00000
     78      28.3352      0.00000
     79      29.5866      0.00000
     80      29.5866      0.00000
     81      30.3112      0.00000
     82      31.1280      0.00000
     83      31.1280      0.00000
     84      31.1280      0.00000
     85      31.3370      0.00000
     86      31.3370      0.00000
     87      31.3370      0.00000
     88      31.8521      0.00000
     89      31.8521      0.00000
     90      32.0255      0.00000
     91      32.0255      0.00000
     92      32.0255      0.00000
     93      32.4441      0.00000
     94      32.4441      0.00000
     95      32.4441      0.00000
     96      32.9234      0.00000
     97      32.9234      0.00000
     98      32.9234      0.00000
     99      33.8769      0.00000
    100      33.8769      0.00000
    101      33.8777      0.00000
    102      35.5388      0.00000
    103      36.3207      0.00000
    104      36.3207      0.00000
    105      36.3207      0.00000
    106      36.4298      0.00000
    107      36.4298      0.00000
    108      36.4298      0.00000
    109      36.9581      0.00000
    110      36.9581      0.00000
    111      36.9581      0.00000
    112      37.5130      0.00000
    113      37.5130      0.00000
    114      37.9423      0.00000
    115      37.9423      0.00000
    116      37.9423      0.00000
    117      38.2280      0.00000
    118      38.2652      0.00000
    119      38.2652      0.00000
    120      38.2652      0.00000
    121      39.7694      0.00000
    122      39.7694      0.00000
    123      39.7694      0.00000
    124      40.7031      0.00000
    125      40.7031      0.00000
    126      40.9032      0.00000
    127      41.5201      0.00000
    128      41.7348      0.00000
    129      41.7348      0.00000
    130      41.7348      0.00000
    131      41.8518      0.00000
    132      41.8518      0.00000
    133      41.8518      0.00000
    134      42.4845      0.00000
    135      42.4845      0.00000
    136      42.4846      0.00000
    137      45.4702      0.00000
    138      45.4702      0.00000
    139      45.7204      0.00000
    140      45.7204      0.00000
    141      45.7204      0.00000
    142      47.1935      0.00000
    143      47.1938      0.00000
    144      47.1942      0.00000


--------------------------------------------------------------------------------------------------------


 soft charge-density along one line, spin component           1
         0         1         2         3         4         5         6         7         8         9
 total charge-density along one line

 soft charge-density along one line, spin component           2
         0         1         2         3         4         5         6         7         8         9
 total charge-density along one line

 pseudopotential strength for first ion, spin component:           1
 18.576  25.917  -0.002   0.002   0.002  -0.003   0.003   0.003
 25.917  36.163  -0.002   0.002   0.002  -0.004   0.004   0.004
 -0.002  -0.002   4.196  -0.001  -0.001   7.820  -0.002  -0.002
  0.002   0.002  -0.001   4.196   0.001  -0.002   7.820   0.002
  0.002   0.002  -0.001   0.001   4.196  -0.002   0.002   7.820
 -0.003  -0.004   7.820  -0.002  -0.002  14.582  -0.003  -0.003
  0.003   0.004  -0.002   7.820   0.002  -0.003  14.582   0.003
  0.003   0.004  -0.002   0.002   7.820  -0.003   0.003  14.582
 pseudopotential strength for first ion, spin component:           2
 18.576  25.916  -0.002   0.002   0.002  -0.003   0.003   0.003
 25.916  36.162  -0.002   0.002   0.002  -0.004   0.004   0.004
 -0.002  -0.002   4.196  -0.001  -0.001   7.819  -0.002  -0.002
  0.002   0.002  -0.001   4.196   0.001  -0.002   7.819   0.002
  0.002   0.002  -0.001   0.001   4.196  -0.002   0.002   7.819
 -0.003  -0.004   7.819  -0.002  -0.002  14.582  -0.003  -0.003
  0.003   0.004  -0.002   7.819   0.002  -0.003  14.582   0.003
  0.003   0.004  -0.002   0.002   7.819  -0.003   0.003  14.582
 total augmentation occupancy for first ion, spin component:           1
  4.794  -1.680   0.506  -0.506  -0.506  -0.158   0.158   0.158
 -1.680   0.786  -0.326   0.326   0.326   0.078  -0.078  -0.078
  0.506  -0.326   2.277   0.367   0.367  -0.469  -0.098  -0.098
 -0.506   0.326   0.367   2.277  -0.367  -0.098  -0.469   0.098
 -0.506   0.326   0.367  -0.367   2.277  -0.098   0.098  -0.469
 -0.158   0.078  -0.469  -0.098  -0.098   0.105   0.025   0.025
  0.158  -0.078  -0.098  -0.469   0.098   0.025   0.105  -0.025
  0.158  -0.078  -0.098   0.098  -0.469   0.025  -0.025   0.105
 total augmentation occupancy for first ion, spin component:           2
  0.004  -0.002  -0.000   0.000   0.000   0.000  -0.000  -0.000
 -0.002   0.001  -0.001   0.001   0.001   0.000  -0.000  -0.000
 -0.000  -0.001   0.002  -0.001  -0.001  -0.000   0.000   0.000
  0.000   0.001  -0.001   0.002   0.001   0.000  -0.000  -0.000
  0.000   0.001  -0.001   0.001   0.002   0.000  -0.000  -0.000
  0.000   0.000  -0.000   0.000   0.000   0.000   0.000   0.000
 -0.000  -0.000   0.000  -0.000  -0.000   0.000   0.000  -0.000
 -0.000  -0.000   0.000  -0.000  -0.000   0.000  -0.000   0.000


------------------------ aborting loop because EDIFF is reached ----------------------------------------





 total charge

# of ion       s       p       d       tot
------------------------------------------
    1        0.806   0.805   0.000   1.611
    2        0.759   0.901   0.000   1.661
    3        0.806   0.805   0.000   1.611
    4        0.759   0.901   0.000   1.661
    5        0.806   0.805   0.000   1.611
    6        0.759   0.901   0.000   1.661
    7        0.806   0.805   0.000   1.611
--------------------------------------------------
tot          5.502   5.925   0.000  11.427



 magnetization (x)

# of ion       s       p       d       tot
------------------------------------------
    1        0.000   0.001   0.000   0.001
    2        0.000   0.000   0.000   0.000
    3        0.000   0.001   0.000   0.001
    4        0.000   0.000   0.000   0.000
    5        0.000   0.001   0.000   0.001
    6        0.000   0.000   0.000   0.000
    7        0.000   0.001   0.000   0.001
--------------------------------------------------
tot          0.001   0.003   0.000   0.004

    CHARGE:  cpu time      0.0374: real time      0.0373
    FORLOC:  cpu time      0.0002: real time      0.0002
    FORNL :  cpu time      0.0346: real time      0.0346
    STRESS:  cpu time      0.2405: real time      0.2406
    FORCOR:  cpu time      0.0138: real time      0.0138
    FORHAR:  cpu time      0.0019: real time      0.0019
    MIXING:  cpu time      0.0004: real time      0.0004
    OFIELD:  cpu time      0.0001: real time      0.0001

  FORCE on cell =-STRESS in cart. coord.  units (eV):
  Direction    XX          YY          ZZ          XY          YZ          ZX
  --------------------------------------------------------------------------------------
  Alpha Z    10.25816    10.25816    10.25816
  Ewald    -249.96432  -249.96432  -249.96432    -0.00000    -0.00000    -0.00000
  Hartree    21.94558    21.94558    21.94558     0.00000    -0.00000    -0.00000
  E(xc)     -86.86160   -86.86160   -86.86160     0.00000    -0.00000    -0.00000
  Local    -117.75929  -117.75929  -117.75929     0.00000     0.00000    -0.00000
  n-local   270.68947   271.36678   270.02416    -0.02759    -0.28558    -0.17615
  augment   -41.59438   -41.59438   -41.59438     0.00000    -0.00000     0.00000
  Kinetic   181.06416   188.32359   197.39109     1.50750     0.94631     0.37214
  Fock        0.00000     0.00000     0.00000     0.00000     0.00000     0.00000
  -------------------------------------------------------------------------------------
  Total      -4.35611    -4.35611    -4.35611     0.00000     0.00000     0.00000
  in kB     -43.40386   -43.40386   -43.40386     0.00000     0.00000     0.00000
  external pressure =      -43.40 kB  Pullay stress =        0.00 kB


 VOLUME and BASIS-vectors are now :
 -----------------------------------------------------------------------------
  energy-cutoff  :      500.00
  volume of cell :      160.80
      direct lattice vectors                 reciprocal lattice vectors
     5.437848350  0.000000000  0.000000000     0.183896265  0.000000000  0.000000000
     0.000000000  5.437848350  0.000000000     0.000000000  0.183896265  0.000000000
     0.000000000  0.000000000  5.437848350     0.000000000  0.000000000  0.183896265

  length of vectors
     5.437848350  5.437848350  5.437848350     0.183896265  0.183896265  0.183896265


 FORCES acting on ions
    electron-ion (+dipol)            ewald-force                    non-local-force                 convergence-correction
 -----------------------------------------------------------------------------------------------
   -.186E+02 0.186E+02 -.186E+02   0.175E+02 -.175E+02 0.175E+02   0.113E+01 -.113E+01 0.113E+01   -.216E-04 0.216E-04 -.216E-04
   -.164E-12 0.188E-14 0.133E-13   0.142E-13 -.355E-14 -.355E-14   -.140E-16 -.128E-16 -.489E-17   -.412E-14 0.559E-14 -.315E-14
   -.186E+02 -.186E+02 0.186E+02   0.175E+02 0.175E+02 -.175E+02   0.113E+01 0.113E+01 -.113E+01   -.216E-04 -.216E-04 0.216E-04
   -.366E-13 0.117E-13 0.137E-14   -.355E-14 0.355E-14 -.355E-14   0.298E-16 0.160E-16 -.182E-17   -.415E-14 0.447E-14 -.995E-15
   0.186E+02 0.186E+02 0.186E+02   -.175E+02 -.175E+02 -.175E+02   -.113E+01 -.113E+01 -.113E+01   0.216E-04 0.216E-04 0.216E-04
   -.679E-13 -.271E-14 -.129E-12   0.000E+00 0.355E-14 -.711E-14   0.187E-17 0.983E-17 0.608E-17   0.204E-14 0.344E-14 0.118E-15
   0.186E+02 -.186E+02 -.186E+02   -.175E+02 0.175E+02 0.175E+02   -.113E+01 0.113E+01 0.113E+01   0.216E-04 -.216E-04 -.216E-04
 -----------------------------------------------------------------------------------------------
   0.285E-08 0.285E-08 -.783E-09   0.711E-14 0.000E+00 0.000E+00   -.222E-15 0.000E+00 -.222E-15   -.144E-14 0.142E-13 0.207E-14


 POSITION                                       TOTAL-FORCE (eV/Angst)
 -----------------------------------------------------------------------------------
      1.38308      4.05477      1.38308         0.011033     -0.011033      0.011033
      0.00000      0.00000      2.71892        -0.000000      0.000000      0.000000
      1.38308      1.38308      4.05477         0.011033      0.011033     -0.011033
      0.00000      2.71892      0.00000        -0.000000      0.000000      0.000000
      4.05477      4.05477      4.05477        -0.011033     -0.011033     -0.011033
      2.71892      0.00000      0.00000        -0.000000      0.000000      0.000000
      4.05477      1.38308      1.38308        -0.011033      0.011033      0.011033
 -----------------------------------------------------------------------------------
    total drift:                                0.000000      0.000000     -0.000000


--------------------------------------------------------------------------------------------------------



  FREE ENERGIE OF THE ION-ELECTRON SYSTEM (eV)
  ---------------------------------------------------
  free  energy   TOTEN  =       -37.02196656 eV

  energy  without entropy=      -37.01532794  energy(sigma->0) =      -37.01864725



--------------------------------------------------------------------------------------------------------


    POTLOK:  cpu time      0.2280: real time      0.2288


--------------------------------------------------------------------------------------------------------




--------------------------------------------------------------------------------------------------------



 reached required accuracy - stopping structural energy minimisation
 writing wavefunctions
     LOOP+:  cpu time     66.5816: real time     66.8735
    4ORBIT:  cpu time      0.0000: real time      0.0000



 total charge

# of ion       s       p       d       tot
------------------------------------------
    1        0.806   0.805   0.000   1.611
    2        0.759   0.901   0.000   1.661
    3        0.806   0.805   0.000   1.611
    4        0.759   0.901   0.000   1.661
    5        0.806   0.805   0.000   1.611
    6        0.759   0.901   0.000   1.661
    7        0.806   0.805   0.000   1.611
--------------------------------------------------
tot          5.502   5.925   0.000  11.427



 magnetization (x)

# of ion       s       p       d       tot
------------------------------------------
    1        0.000   0.001   0.000   0.001
    2        0.000   0.000   0.000   0.000
    3        0.000   0.001   0.000   0.001
    4        0.000   0.000   0.000   0.000
    5        0.000   0.001   0.000   0.001
    6        0.000   0.000   0.000   0.000
    7        0.000   0.001   0.000   0.001
--------------------------------------------------
tot          0.001   0.003   0.000   0.004


 total amount of memory used by VASP MPI-rank0    40713. kBytes
=======================================================================

   base      :      30000. kBytes
   nonl-proj :       3140. kBytes
   fftplans  :        508. kBytes
   grid      :       5640. kBytes
   one-center:         43. kBytes
   wavefun   :       1382. kBytes



 General timing and accounting informations for this job:
 ========================================================

                  Total CPU time used (sec):       71.715
                            User time (sec):       69.173
                          System time (sec):        2.543
                         Elapsed time (sec):       73.768

                   Maximum memory used (kb):      154820.
                   Average memory used (kb):          N/A

                          Minor page faults:       132568
                          Major page faults:            2
                 Voluntary context switches:         3558
