<?xml version="1.0" encoding="ISO-8859-1"?>
<modeling>
 <generator>
  <i name="program" type="string">vasp </i>
  <i name="version" type="string">6.3.0  </i>
  <i name="subversion" type="string">20Jan22 (build Feb 02 2022 18:12:33) complex                          parallel </i>
  <i name="platform" type="string">LinuxIFC </i>
  <i name="date" type="string">2022 04 15 </i>
  <i name="time" type="string">08:35:08 </i>
 </generator>
 <incar>
  <i type="string" name="PREC">Accurate</i>
  <i type="string" name="ALGO">Fast</i>
  <i type="int" name="ISPIN">     2</i>
  <i type="int" name="NELM">   200</i>
  <i type="int" name="NELMIN">     6</i>
  <i type="int" name="IBRION">     2</i>
  <i name="EDIFF">      0.00001000</i>
  <i name="EDIFFG">     -0.05000000</i>
  <i type="int" name="NSW">    99</i>
  <i type="int" name="ISIF">     2</i>
  <i name="ENCUT">    500.00000000</i>
  <i name="ENAUG">   1360.00000000</i>
  <v name="MAGMOM">      0.60000000      0.60000000      0.60000000      0.60000000      0.60000000      0.60000000      0.60000000</v>
  <i name="NELECT">     28.00000000</i>
  <i type="logical" name="LREAL"> F  </i>
  <i type="int" name="ISMEAR">     0</i>
  <i name="SIGMA">      0.05000000</i>
  <i type="logical" name="LWAVE"> T  </i>
  <i type="logical" name="LCHARG"> F  </i>
  <i type="logical" name="LVTOT"> T  </i>
  <i type="int" name="LORBIT">    11</i>
  <i type="logical" name="LELF"> F  </i>
  <i type="logical" name="LASPH"> T  </i>
  <i type="logical" name="LAECHG"> F  </i>
  <i type="string" name="GGA">Ps</i>
  <i type="logical" name="LMIXTAU"> T  </i>
 </incar>
 <primitive_cell>
  <structure name="primitive_cell" >
   <crystal>
    <varray name="basis" >
     <v>       5.43784835       0.00000000       0.00000000 </v>
     <v>       0.00000000       5.43784835       0.00000000 </v>
     <v>       0.00000000       0.00000000       5.43784835 </v>
    </varray>
    <i name="volume">    160.79823434 </i>
    <varray name="rec_basis" >
     <v>       0.18389626       0.00000000       0.00000000 </v>
     <v>       0.00000000       0.18389626       0.00000000 </v>
     <v>       0.00000000       0.00000000       0.18389626 </v>
    </varray>
   </crystal>
   <varray name="positions" >
    <v>       0.25434293       0.74565707       0.25434293 </v>
    <v>       0.00000000       0.00000000       0.50000000 </v>
    <v>       0.25434293       0.25434293       0.74565707 </v>
    <v>       0.00000000       0.50000000       0.00000000 </v>
    <v>       0.74565707       0.74565707       0.74565707 </v>
    <v>       0.50000000       0.00000000       0.00000000 </v>
    <v>       0.74565707       0.25434293       0.25434293 </v>
   </varray>
  </structure>
  <varray name="primitive_index" >
   <v type="int" >        1 </v>
   <v type="int" >        2 </v>
   <v type="int" >        3 </v>
   <v type="int" >        4 </v>
   <v type="int" >        5 </v>
   <v type="int" >        6 </v>
   <v type="int" >        7 </v>
  </varray>
 </primitive_cell>
 <kpoints>
  <generation param="Gamma">
   <v type="int" name="divisions">       4        4        4 </v>
   <v name="usershift">      0.00000000       0.00000000       0.00000000 </v>
   <v name="genvec1">      0.25000000       0.00000000       0.00000000 </v>
   <v name="genvec2">      0.00000000       0.25000000       0.00000000 </v>
   <v name="genvec3">      0.00000000       0.00000000       0.25000000 </v>
   <v name="shift">      0.00000000       0.00000000       0.00000000 </v>
  </generation>
  <varray name="kpointlist" >
   <v>       0.00000000       0.00000000       0.00000000 </v>
   <v>       0.25000000       0.00000000       0.00000000 </v>
   <v>       0.50000000       0.00000000       0.00000000 </v>
   <v>       0.25000000       0.25000000       0.00000000 </v>
   <v>       0.50000000       0.25000000       0.00000000 </v>
   <v>       0.50000000       0.50000000       0.00000000 </v>
   <v>       0.25000000       0.25000000       0.25000000 </v>
   <v>       0.50000000       0.25000000       0.25000000 </v>
   <v>       0.50000000       0.50000000       0.25000000 </v>
   <v>       0.50000000       0.50000000       0.50000000 </v>
  </varray>
  <varray name="weights" >
   <v>       0.01562500 </v>
   <v>       0.09375000 </v>
   <v>       0.04687500 </v>
   <v>       0.18750000 </v>
   <v>       0.18750000 </v>
   <v>       0.04687500 </v>
   <v>       0.12500000 </v>
   <v>       0.18750000 </v>
   <v>       0.09375000 </v>
   <v>       0.01562500 </v>
  </varray>
 </kpoints>
 <parameters>
  <separator name="general" >
   <i type="string" name="SYSTEM">unknown system</i>
   <i type="logical" name="LCOMPAT"> F  </i>
  </separator>
  <separator name="electronic" >
   <i type="string" name="PREC">accura</i>
   <i name="ENMAX">    500.00000000</i>
   <i name="ENAUG">   1360.00000000</i>
   <i name="EDIFF">      0.00001000</i>
   <i type="int" name="IALGO">    68</i>
   <i type="int" name="IWAVPR">    11</i>
   <i type="int" name="NBANDS">   144</i>
   <i type="int" name="NBANDSLOW">    -1</i>
   <i type="int" name="NBANDSHIGH">    -1</i>
   <i name="NELECT">     28.00000000</i>
   <i type="int" name="TURBO">     0</i>
   <i type="int" name="IRESTART">     0</i>
   <i type="int" name="NREBOOT">     0</i>
   <i type="int" name="NMIN">     0</i>
   <i name="EREF">      0.00000000</i>
   <separator name="electronic smearing" >
    <i type="int" name="ISMEAR">     0</i>
    <i name="SIGMA">      0.05000000</i>
    <i name="KSPACING">      0.50000000</i>
    <i type="logical" name="KGAMMA"> T  </i>
    <i type="logical" name="KBLOWUP"> T  </i>
   </separator>
   <separator name="electronic projectors" >
    <i type="logical" name="LREAL"> F  </i>
    <v name="ROPT">      0.00000000</v>
    <i type="int" name="LMAXPAW">  -100</i>
    <i type="int" name="LMAXMIX">     2</i>
    <i type="logical" name="NLSPLINE"> F  </i>
   </separator>
   <separator name="electronic startup" >
    <i type="int" name="ISTART">     0</i>
    <i type="int" name="ICHARG">     2</i>
    <i type="int" name="INIWAV">     1</i>
   </separator>
   <separator name="electronic spin" >
    <i type="int" name="ISPIN">     2</i>
    <i type="logical" name="LNONCOLLINEAR"> F  </i>
    <v name="MAGMOM">      0.60000000      0.60000000      0.60000000      0.60000000      0.60000000      0.60000000      0.60000000</v>
    <i name="NUPDOWN">     -1.00000000</i>
    <i type="logical" name="LSORBIT"> F  </i>
    <v name="SAXIS">      0.00000000      0.00000000      1.00000000</v>
    <i type="logical" name="LSPIRAL"> F  </i>
    <v name="QSPIRAL">      0.00000000      0.00000000      0.00000000</v>
    <i type="logical" name="LZEROZ"> F  </i>
   </separator>
   <separator name="electronic exchange-correlation" >
    <i type="logical" name="LASPH"> T  </i>
    <i type="logical" name="LMETAGGA"> F  </i>
   </separator>
   <separator name="electronic convergence" >
    <i type="int" name="NELM">   200</i>
    <i type="int" name="NELMDL">    -5</i>
    <i type="int" name="NELMIN">     6</i>
    <i name="ENINI">    500.00000000</i>
    <separator name="electronic convergence detail" >
     <i type="logical" name="LDIAG"> T  </i>
     <i type="logical" name="LSUBROT"> F  </i>
     <i name="WEIMIN">      0.00100000</i>
     <i name="EBREAK">      0.00000002</i>
     <i name="DEPER">      0.30000000</i>
     <i type="int" name="NRMM">     4</i>
     <i name="TIME">      0.40000000</i>
    </separator>
   </separator>
   <separator name="electronic mixer" >
    <i name="AMIX">      0.40000000</i>
    <i name="BMIX">      1.00000000</i>
    <i name="AMIN">      0.10000000</i>
    <i name="AMIX_MAG">      1.60000000</i>
    <i name="BMIX_MAG">      1.00000000</i>
    <separator name="electronic mixer details" >
     <i type="int" name="IMIX">     4</i>
     <i type="logical" name="MIXFIRST"> F  </i>
     <i type="int" name="MAXMIX">   -45</i>
     <i name="WC">    100.00000000</i>
     <i type="int" name="INIMIX">     1</i>
     <i type="int" name="MIXPRE">     1</i>
     <i type="int" name="MREMOVE">     5</i>
    </separator>
   </separator>
   <separator name="electronic dipolcorrection" >
    <i type="logical" name="LDIPOL"> F  </i>
    <i type="logical" name="LMONO"> F  </i>
    <i type="int" name="IDIPOL">     0</i>
    <i name="EPSILON">      1.00000000</i>
    <v name="DIPOL">   -100.00000000   -100.00000000   -100.00000000</v>
    <i name="EFIELD">      0.00000000</i>
   </separator>
  </separator>
  <separator name="grids" >
   <i type="int" name="NGX">    40</i>
   <i type="int" name="NGY">    40</i>
   <i type="int" name="NGZ">    40</i>
   <i type="int" name="NGXF">    80</i>
   <i type="int" name="NGYF">    80</i>
   <i type="int" name="NGZF">    80</i>
   <i type="logical" name="ADDGRID"> F  </i>
  </separator>
  <separator name="ionic" >
   <i type="int" name="NSW">    99</i>
   <i type="int" name="IBRION">     2</i>
   <i type="int" name="MDALGO">     0</i>
   <i type="int" name="ISIF">     2</i>
   <i name="PSTRESS">      0.00000000</i>
   <i name="EDIFFG">     -0.05000000</i>
   <i type="int" name="NFREE">     1</i>
   <i name="POTIM">      0.50000000</i>
   <i name="SMASS">     -3.00000000</i>
   <i name="SCALEE">      1.00000000</i>
  </separator>
  <separator name="ionic md" >
   <i name="TEBEG">      0.00010000</i>
   <i name="TEEND">      0.00010000</i>
   <i type="int" name="NBLOCK">     1</i>
   <i type="int" name="KBLOCK">    99</i>
   <i type="int" name="NPACO">   256</i>
   <i name="APACO">     10.00000000</i>
  </separator>
  <separator name="symmetry" >
   <i type="int" name="ISYM">     2</i>
   <i name="SYMPREC">      0.00001000</i>
  </separator>
  <separator name="dos" >
   <i type="int" name="LORBIT">    11</i>
   <v name="RWIGS">     -1.00000000</v>
   <i type="int" name="NEDOS">   301</i>
   <i name="EMIN">     10.00000000</i>
   <i name="EMAX">    -10.00000000</i>
   <i name="EFERMI">      0.00000000</i>
  </separator>
  <separator name="writing" >
   <i type="int" name="NWRITE">     2</i>
   <i type="logical" name="LWAVE"> T  </i>
   <i type="logical" name="LDOWNSAMPLE"> F  </i>
   <i type="logical" name="LCHARG"> F  </i>
   <i type="logical" name="LPARD"> F  </i>
   <i type="logical" name="LVTOT"> T  </i>
   <i type="logical" name="LVHAR"> F  </i>
   <i type="logical" name="LELF"> F  </i>
   <i type="logical" name="LOPTICS"> F  </i>
   <v name="STM">      0.00000000      0.00000000      0.00000000      0.00000000      0.00000000      0.00000000      0.00000000</v>
  </separator>
  <separator name="performance" >
   <i type="int" name="NPAR">   144</i>
   <i type="int" name="NSIM">     4</i>
   <i type="int" name="NBLK">    -1</i>
   <i type="logical" name="LPLANE"> T  </i>
   <i type="logical" name="LSCALAPACK"> T  </i>
   <i type="logical" name="LSCAAWARE"> T  </i>
   <i type="logical" name="LSCALU"> F  </i>
   <i type="logical" name="LASYNC"> F  </i>
   <i type="logical" name="LORBITALREAL"> F  </i>
  </separator>
  <separator name="miscellaneous" >
   <i type="int" name="IDIOT">     3</i>
   <i type="int" name="PHON_NSTRUCT">    -1</i>
   <i type="logical" name="LMUSIC"> F  </i>
   <v name="POMASS">     28.08500000</v>
   <v name="DARWINR">      0.00000000</v>
   <v name="DARWINV">      1.00000000</v>
   <i type="logical" name="LCORR"> T  </i>
  </separator>
  <i type="logical" name="GGA_COMPAT"> T  </i>
  <i type="logical" name="LBERRY"> F  </i>
  <i type="int" name="ICORELEVEL">     0</i>
  <i type="logical" name="LDAU"> F  </i>
  <i type="int" name="I_CONSTRAINED_M">     0</i>
  <separator name="electronic exchange-correlation" >
   <i type="string" name="GGA">PS</i>
   <i type="int" name="VOSKOWN">     0</i>
   <i type="logical" name="LHFCALC"> F  </i>
   <i type="string" name="PRECFOCK"></i>
   <i type="logical" name="LSYMGRAD"> F  </i>
   <i type="logical" name="LHFONE"> F  </i>
   <i type="logical" name="LRHFCALC"> F  </i>
   <i type="logical" name="LTHOMAS"> F  </i>
   <i type="logical" name="LMODELHF"> F  </i>
   <i type="logical" name="LFOCKACE"> F  </i>
   <i name="ENCUT4O">     -1.00000000</i>
   <i type="int" name="EXXOEP">     0</i>
   <i type="int" name="FOURORBIT">     0</i>
   <i name="AEXX">      0.00000000</i>
   <i name="HFALPHA">      0.00000000</i>
   <i name="MCALPHA">      0.00000000</i>
   <i name="ALDAX">      1.00000000</i>
   <i name="AGGAX">      1.00000000</i>
   <i name="ALDAC">      1.00000000</i>
   <i name="AGGAC">      1.00000000</i>
   <i type="int" name="NKREDX">     1</i>
   <i type="int" name="NKREDY">     1</i>
   <i type="int" name="NKREDZ">     1</i>
   <i type="logical" name="SHIFTRED"> F  </i>
   <i type="logical" name="ODDONLY"> F  </i>
   <i type="logical" name="EVENONLY"> F  </i>
   <i type="int" name="LMAXFOCK">     0</i>
   <i type="int" name="NMAXFOCKAE">     0</i>
   <i type="logical" name="LFOCKAEDFT"> F  </i>
   <i name="HFSCREEN">      0.00000000</i>
   <i name="HFSCREENC">      0.00000000</i>
   <i type="int" name="NBANDSGWLOW">     0</i>
  </separator>
  <separator name="vdW DFT" >
   <i type="logical" name="LUSE_VDW"> F  </i>
   <i name="Zab_VDW">     -0.84910000</i>
   <i name="PARAM1">      0.12340000</i>
   <i name="PARAM2">      1.00000000</i>
   <i name="PARAM3">      0.00000000</i>
  </separator>
  <separator name="model GW" >
   <i type="int" name="MODEL_GW">     0</i>
   <i name="MODEL_EPS0">     13.78270580</i>
   <i name="MODEL_ALPHA">      1.00000000</i>
  </separator>
  <separator name="linear response parameters" >
   <i type="logical" name="LEPSILON"> F  </i>
   <i type="logical" name="LRPA"> F  </i>
   <i type="logical" name="LNABLA"> F  </i>
   <i type="logical" name="LVEL"> F  </i>
   <i name="CSHIFT">      0.10000000</i>
   <i name="OMEGAMAX">     -1.00000000</i>
   <i name="DEG_THRESHOLD">      0.00200000</i>
   <i name="RTIME">     -0.10000000</i>
   <i name="WPLASMAI">      0.00000000</i>
   <v name="DFIELD">      0.00000000      0.00000000      0.00000000</v>
   <v name="WPLASMA">      0.00000000      0.00000000      0.00000000      0.00000000      0.00000000      0.00000000      0.00000000      0.00000000      0.00000000</v>
  </separator>
  <separator name="orbital magnetization" >
   <i type="logical" name="NUCIND"> F  </i>
   <v name="MAGPOS">      0.00000000      0.00000000      0.00000000</v>
   <i type="logical" name="LNICSALL"> T  </i>
   <i type="logical" name="ORBITALMAG"> F  </i>
   <i type="logical" name="LMAGBLOCH"> F  </i>
   <i type="logical" name="LCHIMAG"> F  </i>
   <i type="logical" name="LGAUGE"> T  </i>
   <i type="int" name="MAGATOM">     0</i>
   <v name="MAGDIPOL">      0.00000000      0.00000000      0.00000000</v>
   <v name="AVECCONST">      0.00000000      0.00000000      0.00000000</v>
  </separator>
  <separator name="response functions" >
   <i type="logical" name="LFINITE_TEMPERATURE"> F  </i>
   <i type="logical" name="LADDER"> F  </i>
   <i type="logical" name="LRPAFORCE"> F  </i>
   <i type="logical" name="LFXC"> F  </i>
   <i type="logical" name="LHARTREE"> T  </i>
   <i type="int" name="IBSE">     0</i>
   <v type="int" name="KPOINT">    -1     0     0     0</v>
   <i type="logical" name="LTCTC"> F  </i>
   <i type="logical" name="LTCTE"> F  </i>
   <i type="logical" name="LTETE"> F  </i>
   <i type="logical" name="LTRIPLET"> F  </i>
   <i type="logical" name="LFXCEPS"> F  </i>
   <i type="logical" name="LFXHEG"> F  </i>
   <i type="int" name="NATURALO">     2</i>
   <i type="logical" name="LHOLEGF"> F  </i>
   <i type="logical" name="L2ORDER"> F  </i>
   <i type="logical" name="LDMP1"> F  </i>
   <i type="logical" name="LMP2LT"> F  </i>
   <i type="logical" name="LSMP2LT"> F  </i>
   <i type="logical" name="LGWLF"> F  </i>
   <i name="ENCUTGW">     -2.00000000</i>
   <i name="ENCUTGWSOFT">     -2.00000000</i>
   <i name="ENCUTLF">     -1.00000000</i>
   <i type="logical" name="LESF_SPLINES"> F  </i>
   <i type="int" name="LMAXMP2">    -1</i>
   <i name="SCISSOR">      0.00000000</i>
   <i type="int" name="NOMEGA">     0</i>
   <i type="int" name="NOMEGAR">     0</i>
   <i type="int" name="NBANDSGW">    -1</i>
   <i type="int" name="NBANDSO">    -1</i>
   <i type="int" name="NBANDSV">    -1</i>
   <i type="int" name="NELMGW">     1</i>
   <i type="int" name="NELMHF">     1</i>
   <i type="int" name="DIM">     3</i>
   <i type="int" name="IESPILON">     4</i>
   <i type="int" name="ANTIRES">     0</i>
   <i name="OMEGAMAX">    -30.00000000</i>
   <i name="OMEGAMIN">    -30.00000000</i>
   <i name="OMEGATL">   -200.00000000</i>
   <i type="int" name="OMEGAGRID">     0</i>
   <i name="CSHIFT">     -0.10000000</i>
   <i type="logical" name="LSELFENERGY"> F  </i>
   <i type="logical" name="LSPECTRAL"> F  </i>
   <i type="logical" name="LSPECTRALGW"> F  </i>
   <i type="logical" name="LSINGLES"> F  </i>
   <i type="logical" name="LFERMIGW"> F  </i>
   <i type="logical" name="ODDONLYGW"> F  </i>
   <i type="logical" name="EVENONLYGW"> F  </i>
   <i type="int" name="NKREDLFX">     1</i>
   <i type="int" name="NKREDLFY">     1</i>
   <i type="int" name="NKREDLFZ">     1</i>
   <i type="int" name="MAXMEM">  2800</i>
   <i type="int" name="TELESCOPE">     0</i>
   <i type="int" name="NTAUPAR">    -1</i>
   <i type="int" name="NOMEGAPAR">    -1</i>
   <i name="DAMP_NEWTON">      0.80000001</i>
   <i name="LAMBDA">      1.00000000</i>
  </separator>
  <separator name="External order field" >
   <i name="OFIELD_KAPPA">      0.00000000</i>
   <v name="OFIELD_K">      0.00000000      0.00000000      0.00000000</v>
   <i name="OFIELD_Q6_NEAR">      0.00000000</i>
   <i name="OFIELD_Q6_FAR">      0.00000000</i>
   <i name="OFIELD_A">      0.00000000</i>
  </separator>
  <separator name="optional k-points parameters" >
   <i type="int" name="KPOINTS_OPT_MODE">     1</i>
   <i type="logical" name="LKPOINTS_OPT"> F  </i>
  </separator>
 </parameters>
 <atominfo>
  <atoms>       7 </atoms>
  <types>       1 </types>
  <array name="atoms" >
   <dimension dim="1">ion</dimension>
   <field type="string">element</field>
   <field type="int">atomtype</field>
   <set>
    <rc><c>Si</c><c>   1</c></rc>
    <rc><c>Si</c><c>   1</c></rc>
    <rc><c>Si</c><c>   1</c></rc>
    <rc><c>Si</c><c>   1</c></rc>
    <rc><c>Si</c><c>   1</c></rc>
    <rc><c>Si</c><c>   1</c></rc>
    <rc><c>Si</c><c>   1</c></rc>
   </set>
  </array>
  <array name="atomtypes" >
   <dimension dim="1">type</dimension>
   <field type="int">atomspertype</field>
   <field type="string">element</field>
   <field>mass</field>
   <field>valence</field>
   <field type="string">pseudopotential</field>
   <set>
    <rc><c>   7</c><c>Si</c><c>     28.08500000</c><c>      4.00000000</c><c>  PAW_PBE Si 05Jan2001                  </c></rc>
   </set>
  </array>
 </atominfo>
 <structure name="initialpos" >
  <crystal>
   <varray name="basis" >
    <v>       5.43784835       0.00000000       0.00000000 </v>
    <v>       0.00000000       5.43784835       0.00000000 </v>
    <v>       0.00000000       0.00000000       5.43784835 </v>
   </varray>
   <i name="volume">    160.79823434 </i>
   <varray name="rec_basis" >
    <v>       0.18389626       0.00000000       0.00000000 </v>
    <v>       0.00000000       0.18389626       0.00000000 </v>
    <v>       0.00000000       0.00000000       0.18389626 </v>
   </varray>
  </crystal>
  <varray name="positions" >
   <v>       0.25434293       0.74565707       0.25434293 </v>
   <v>       0.00000000       0.00000000       0.50000000 </v>
   <v>       0.25434293       0.25434293       0.74565707 </v>
   <v>       0.00000000       0.50000000       0.00000000 </v>
   <v>       0.74565707       0.74565707       0.74565707 </v>
   <v>       0.50000000       0.00000000       0.00000000 </v>
   <v>       0.74565707       0.25434293       0.25434293 </v>
  </varray>
 </structure>
 <calculation>
  <scstep>
   <time name="dav">    5.21    5.21</time>
   <time name="total">    5.44    5.44</time>
   <energy>
    <i name="alphaZ">     10.25815623 </i>
    <i name="ewald">   -749.89178961 </i>
    <i name="hartreedc">    -55.71548376 </i>
    <i name="XCdc">    -62.36059601 </i>
    <i name="pawpsdc">    612.14459606 </i>
    <i name="pawaedc">   -491.11706165 </i>
    <i name="eentropy">     -0.00624135 </i>
    <i name="bandstr">      0.05356616 </i>
    <i name="atom">    718.02812073 </i>
    <i name="e_fr_energy">    -18.60673320 </i>
    <i name="e_wo_entrp">    -18.60049185 </i>
    <i name="e_0_energy">    -18.60361253 </i>
   </energy>
  </scstep>
  <scstep>
   <time name="dav">   12.39   12.40</time>
   <time name="total">   12.39   12.40</time>
   <energy>
    <i name="e_fr_energy">    -37.24510372 </i>
    <i name="e_wo_entrp">    -37.23808966 </i>
    <i name="e_0_energy">    -37.24159669 </i>
   </energy>
  </scstep>
  <scstep>
   <time name="dav">    5.33    5.35</time>
   <time name="total">    5.33    5.36</time>
   <energy>
    <i name="e_fr_energy">    -37.26004135 </i>
    <i name="e_wo_entrp">    -37.25302381 </i>
    <i name="e_0_energy">    -37.25653258 </i>
   </energy>
  </scstep>
  <scstep>
   <time name="dav">   25.48   25.50</time>
   <time name="total">   25.48   25.50</time>
   <energy>
    <i name="e_fr_energy">    -37.26004891 </i>
    <i name="e_wo_entrp">    -37.25303137 </i>
    <i name="e_0_energy">    -37.25654014 </i>
   </energy>
  </scstep>
  <scstep>
   <time name="dav">    5.70    5.72</time>
   <time name="total">    5.74    5.76</time>
   <energy>
    <i name="e_fr_energy">    -37.26004891 </i>
    <i name="e_wo_entrp">    -37.25303137 </i>
    <i name="e_0_energy">    -37.25654014 </i>
   </energy>
  </scstep>
  <scstep>
   <time name="diag">    0.83    0.83</time>
   <time name="diis">    0.18    0.18</time>
   <time name="orth">    0.11    0.11</time>
   <time name="total">    1.39    1.41</time>
   <energy>
    <i name="e_fr_energy">    -37.15463089 </i>
    <i name="e_wo_entrp">    -37.15016161 </i>
    <i name="e_0_energy">    -37.15239625 </i>
   </energy>
  </scstep>
  <scstep>
   <time name="diag">    0.78    0.78</time>
   <time name="diis">    0.17    0.17</time>
   <time name="orth">    0.11    0.11</time>
   <time name="total">    1.33    1.35</time>
   <energy>
    <i name="e_fr_energy">    -37.02427745 </i>
    <i name="e_wo_entrp">    -37.01808692 </i>
    <i name="e_0_energy">    -37.02118219 </i>
   </energy>
  </scstep>
  <scstep>
   <time name="diag">    0.77    0.77</time>
   <time name="diis">    0.17    0.17</time>
   <time name="orth">    0.11    0.11</time>
   <time name="total">    1.31    1.33</time>
   <energy>
    <i name="e_fr_energy">    -37.02328666 </i>
    <i name="e_wo_entrp">    -37.01683141 </i>
    <i name="e_0_energy">    -37.02005903 </i>
   </energy>
  </scstep>
  <scstep>
   <time name="diag">    0.77    0.77</time>
   <time name="diis">    0.17    0.17</time>
   <time name="orth">    0.11    0.11</time>
   <time name="total">    1.31    1.33</time>
   <energy>
    <i name="e_fr_energy">    -37.02179279 </i>
    <i name="e_wo_entrp">    -37.01525622 </i>
    <i name="e_0_energy">    -37.01852451 </i>
   </energy>
  </scstep>
  <scstep>
   <time name="diag">    0.76    0.76</time>
   <time name="diis">    0.17    0.17</time>
   <time name="orth">    0.11    0.11</time>
   <time name="total">    1.30    1.32</time>
   <energy>
    <i name="e_fr_energy">    -37.02188336 </i>
    <i name="e_wo_entrp">    -37.01530387 </i>
    <i name="e_0_energy">    -37.01859361 </i>
   </energy>
  </scstep>
  <scstep>
   <time name="diag">    0.76    0.76</time>
   <time name="diis">    0.17    0.17</time>
   <time name="orth">    0.11    0.11</time>
   <time name="total">    1.31    1.32</time>
   <energy>
    <i name="e_fr_energy">    -37.02193168 </i>
    <i name="e_wo_entrp">    -37.01531472 </i>
    <i name="e_0_energy">    -37.01862320 </i>
   </energy>
  </scstep>
  <scstep>
   <time name="diag">    0.75    0.75</time>
   <time name="diis">    0.17    0.17</time>
   <time name="orth">    0.11    0.11</time>
   <time name="total">    1.29    1.31</time>
   <energy>
    <i name="e_fr_energy">    -37.02196280 </i>
    <i name="e_wo_entrp">    -37.01532884 </i>
    <i name="e_0_energy">    -37.01864582 </i>
   </energy>
  </scstep>
  <scstep>
   <time name="diag">    0.75    0.75</time>
   <time name="diis">    0.17    0.17</time>
   <time name="orth">    0.11    0.11</time>
   <time name="total">    1.25    1.27</time>
   <energy>
    <i name="alphaZ">     10.25815623 </i>
    <i name="ewald">   -749.89178961 </i>
    <i name="hartreedc">    -65.82504280 </i>
    <i name="XCdc">    -61.07864205 </i>
    <i name="pawpsdc">   2402.33885547 </i>
    <i name="pawaedc">  -2281.83118774 </i>
    <i name="eentropy">     -0.00663862 </i>
    <i name="bandstr">     -9.01379817 </i>
    <i name="atom">    718.02812073 </i>
    <i name="e_fr_energy">    -37.02196656 </i>
    <i name="e_wo_entrp">    -37.01532794 </i>
    <i name="e_0_energy">    -37.01864725 </i>
   </energy>
  </scstep>
  <structure>
   <crystal>
    <varray name="basis" >
     <v>       5.43784835       0.00000000       0.00000000 </v>
     <v>       0.00000000       5.43784835       0.00000000 </v>
     <v>       0.00000000       0.00000000       5.43784835 </v>
    </varray>
    <i name="volume">    160.79823434 </i>
    <varray name="rec_basis" >
     <v>       0.18389626       0.00000000       0.00000000 </v>
     <v>       0.00000000       0.18389626       0.00000000 </v>
     <v>       0.00000000       0.00000000       0.18389626 </v>
    </varray>
   </crystal>
   <varray name="positions" >
    <v>       0.25434293       0.74565707       0.25434293 </v>
    <v>       0.00000000       0.00000000       0.50000000 </v>
    <v>       0.25434293       0.25434293       0.74565707 </v>
    <v>       0.00000000       0.50000000       0.00000000 </v>
    <v>       0.74565707       0.74565707       0.74565707 </v>
    <v>       0.50000000       0.00000000       0.00000000 </v>
    <v>       0.74565707       0.25434293       0.25434293 </v>
   </varray>
  </structure>
  <varray name="forces" >
   <v>       0.01103316      -0.01103316       0.01103316 </v>
   <v>      -0.00000000       0.00000000       0.00000000 </v>
   <v>       0.01103316       0.01103316      -0.01103316 </v>
   <v>      -0.00000000       0.00000000       0.00000000 </v>
   <v>      -0.01103316      -0.01103316      -0.01103316 </v>
   <v>      -0.00000000       0.00000000       0.00000000 </v>
   <v>      -0.01103316       0.01103316       0.01103316 </v>
  </varray>
  <varray name="stress" >
   <v>     -43.40386389       0.00000000       0.00000000 </v>
   <v>       0.00000000     -43.40386389      -0.00000000 </v>
   <v>       0.00000000       0.00000000     -43.40386389 </v>
  </varray>
  <energy>
   <i name="e_fr_energy">    -37.02196656 </i>
   <i name="e_wo_entrp">    -37.01532794 </i>
   <i name="e_0_energy">    -37.01864725 </i>
  </energy>
  <time name="totalsc">   66.58   66.87</time>
  <eigenvalues>
   <array>
    <dimension dim="1">band</dimension>
    <dimension dim="2">kpoint</dimension>
    <dimension dim="3">spin</dimension>
    <field>eigene</field>
    <field>occ</field>
    <set>
     <set comment="spin 1">
      <set comment="kpoint 1">
       <r>   -6.9302    1.0000 </r>
       <r>   -3.2570    1.0000 </r>
       <r>   -3.2570    1.0000 </r>
       <r>   -2.8933    1.0000 </r>
       <r>   -2.8933    1.0000 </r>
       <r>   -2.8933    1.0000 </r>
       <r>    1.2159    1.0000 </r>
       <r>    1.6921    1.0000 </r>
       <r>    1.6921    1.0000 </r>
       <r>    1.6921    1.0000 </r>
       <r>    2.9305    1.0000 </r>
       <r>    2.9305    1.0000 </r>
       <r>    2.9305    1.0000 </r>
       <r>    5.5777    0.0000 </r>
       <r>    5.5777    0.0000 </r>
       <r>    5.5818    0.0000 </r>
       <r>    5.5818    0.0000 </r>
       <r>    5.5818    0.0000 </r>
       <r>    6.1567    0.0000 </r>
       <r>    6.1567    0.0000 </r>
       <r>    6.1567    0.0000 </r>
       <r>    6.2840    0.0000 </r>
       <r>    8.5346    0.0000 </r>
       <r>    8.5346    0.0000 </r>
       <r>    8.5346    0.0000 </r>
       <r>   10.1531    0.0000 </r>
       <r>   12.9505    0.0000 </r>
       <r>   12.9505    0.0000 </r>
       <r>   13.1382    0.0000 </r>
       <r>   14.5865    0.0000 </r>
       <r>   14.5865    0.0000 </r>
       <r>   14.5865    0.0000 </r>
       <r>   15.6181    0.0000 </r>
       <r>   15.6181    0.0000 </r>
       <r>   15.6181    0.0000 </r>
       <r>   15.6756    0.0000 </r>
       <r>   15.6756    0.0000 </r>
       <r>   15.6756    0.0000 </r>
       <r>   16.2986    0.0000 </r>
       <r>   16.2986    0.0000 </r>
       <r>   16.2986    0.0000 </r>
       <r>   17.0000    0.0000 </r>
       <r>   17.4434    0.0000 </r>
       <r>   17.4434    0.0000 </r>
       <r>   17.4820    0.0000 </r>
       <r>   17.4820    0.0000 </r>
       <r>   17.4820    0.0000 </r>
       <r>   18.1568    0.0000 </r>
       <r>   18.1568    0.0000 </r>
       <r>   18.1568    0.0000 </r>
       <r>   19.1643    0.0000 </r>
       <r>   19.1643    0.0000 </r>
       <r>   19.1809    0.0000 </r>
       <r>   20.2797    0.0000 </r>
       <r>   20.9366    0.0000 </r>
       <r>   20.9366    0.0000 </r>
       <r>   20.9366    0.0000 </r>
       <r>   23.5729    0.0000 </r>
       <r>   23.6928    0.0000 </r>
       <r>   23.6928    0.0000 </r>
       <r>   23.6928    0.0000 </r>
       <r>   24.3972    0.0000 </r>
       <r>   24.3972    0.0000 </r>
       <r>   24.3972    0.0000 </r>
       <r>   24.8393    0.0000 </r>
       <r>   24.8393    0.0000 </r>
       <r>   24.8393    0.0000 </r>
       <r>   24.9418    0.0000 </r>
       <r>   24.9418    0.0000 </r>
       <r>   24.9418    0.0000 </r>
       <r>   25.3002    0.0000 </r>
       <r>   25.3002    0.0000 </r>
       <r>   26.0983    0.0000 </r>
       <r>   26.0983    0.0000 </r>
       <r>   26.2380    0.0000 </r>
       <r>   26.2380    0.0000 </r>
       <r>   26.2380    0.0000 </r>
       <r>   27.1313    0.0000 </r>
       <r>   27.1313    0.0000 </r>
       <r>   27.1313    0.0000 </r>
       <r>   27.5279    0.0000 </r>
       <r>   28.4628    0.0000 </r>
       <r>   28.4628    0.0000 </r>
       <r>   28.4628    0.0000 </r>
       <r>   29.3735    0.0000 </r>
       <r>   29.3735    0.0000 </r>
       <r>   30.8506    0.0000 </r>
       <r>   31.6809    0.0000 </r>
       <r>   31.6809    0.0000 </r>
       <r>   31.6809    0.0000 </r>
       <r>   32.9679    0.0000 </r>
       <r>   32.9679    0.0000 </r>
       <r>   33.1399    0.0000 </r>
       <r>   33.1399    0.0000 </r>
       <r>   33.1399    0.0000 </r>
       <r>   33.8720    0.0000 </r>
       <r>   33.8720    0.0000 </r>
       <r>   33.8720    0.0000 </r>
       <r>   35.0370    0.0000 </r>
       <r>   35.0370    0.0000 </r>
       <r>   35.0370    0.0000 </r>
       <r>   37.5791    0.0000 </r>
       <r>   37.5791    0.0000 </r>
       <r>   37.5791    0.0000 </r>
       <r>   38.8819    0.0000 </r>
       <r>   38.8819    0.0000 </r>
       <r>   38.8819    0.0000 </r>
       <r>   39.0668    0.0000 </r>
       <r>   39.0668    0.0000 </r>
       <r>   39.0668    0.0000 </r>
       <r>   39.1634    0.0000 </r>
       <r>   39.1634    0.0000 </r>
       <r>   39.3286    0.0000 </r>
       <r>   40.1839    0.0000 </r>
       <r>   40.3665    0.0000 </r>
       <r>   40.3665    0.0000 </r>
       <r>   40.3665    0.0000 </r>
       <r>   40.8798    0.0000 </r>
       <r>   40.8798    0.0000 </r>
       <r>   40.8798    0.0000 </r>
       <r>   41.8452    0.0000 </r>
       <r>   41.8452    0.0000 </r>
       <r>   41.8452    0.0000 </r>
       <r>   42.2278    0.0000 </r>
       <r>   42.2280    0.0000 </r>
       <r>   42.5613    0.0000 </r>
       <r>   42.7951    0.0000 </r>
       <r>   42.9507    0.0000 </r>
       <r>   42.9508    0.0000 </r>
       <r>   43.2099    0.0000 </r>
       <r>   43.2099    0.0000 </r>
       <r>   43.2099    0.0000 </r>
       <r>   44.2565    0.0000 </r>
       <r>   44.2565    0.0000 </r>
       <r>   44.2565    0.0000 </r>
       <r>   44.8043    0.0000 </r>
       <r>   44.8049    0.0000 </r>
       <r>   45.1382    0.0000 </r>
       <r>   45.1382    0.0000 </r>
       <r>   45.1382    0.0000 </r>
       <r>   45.8018    0.0000 </r>
       <r>   45.8018    0.0000 </r>
       <r>   45.8019    0.0000 </r>
       <r>   46.1682    0.0000 </r>
      </set>
      <set comment="kpoint 2">
       <r>   -6.6856    1.0000 </r>
       <r>   -4.5938    1.0000 </r>
       <r>   -3.1856    1.0000 </r>
       <r>   -2.8260    1.0000 </r>
       <r>   -2.8260    1.0000 </r>
       <r>   -1.5145    1.0000 </r>
       <r>    1.1893    1.0000 </r>
       <r>    1.4491    1.0000 </r>
       <r>    1.4491    1.0000 </r>
       <r>    1.5359    1.0000 </r>
       <r>    2.1781    1.0000 </r>
       <r>    2.7330    1.0000 </r>
       <r>    2.7330    1.0000 </r>
       <r>    4.8811    0.0001 </r>
       <r>    5.3037    0.0000 </r>
       <r>    5.3037    0.0000 </r>
       <r>    5.6902    0.0000 </r>
       <r>    6.3861    0.0000 </r>
       <r>    6.7773    0.0000 </r>
       <r>    7.0186    0.0000 </r>
       <r>    7.0186    0.0000 </r>
       <r>    7.5025    0.0000 </r>
       <r>    8.1021    0.0000 </r>
       <r>    9.5827    0.0000 </r>
       <r>    9.5827    0.0000 </r>
       <r>   10.7172    0.0000 </r>
       <r>   11.9545    0.0000 </r>
       <r>   12.4206    0.0000 </r>
       <r>   12.4900    0.0000 </r>
       <r>   12.4900    0.0000 </r>
       <r>   13.2970    0.0000 </r>
       <r>   13.6284    0.0000 </r>
       <r>   14.2551    0.0000 </r>
       <r>   14.3123    0.0000 </r>
       <r>   14.3123    0.0000 </r>
       <r>   15.0896    0.0000 </r>
       <r>   15.9092    0.0000 </r>
       <r>   15.9800    0.0000 </r>
       <r>   15.9800    0.0000 </r>
       <r>   16.7382    0.0000 </r>
       <r>   16.7833    0.0000 </r>
       <r>   16.7833    0.0000 </r>
       <r>   16.9796    0.0000 </r>
       <r>   17.5129    0.0000 </r>
       <r>   17.6670    0.0000 </r>
       <r>   18.3659    0.0000 </r>
       <r>   18.3659    0.0000 </r>
       <r>   18.9801    0.0000 </r>
       <r>   18.9801    0.0000 </r>
       <r>   19.4237    0.0000 </r>
       <r>   19.8966    0.0000 </r>
       <r>   19.9381    0.0000 </r>
       <r>   20.6402    0.0000 </r>
       <r>   21.0687    0.0000 </r>
       <r>   21.4034    0.0000 </r>
       <r>   21.4034    0.0000 </r>
       <r>   21.6074    0.0000 </r>
       <r>   22.0332    0.0000 </r>
       <r>   22.2121    0.0000 </r>
       <r>   22.2121    0.0000 </r>
       <r>   22.9000    0.0000 </r>
       <r>   23.2985    0.0000 </r>
       <r>   23.2985    0.0000 </r>
       <r>   23.4435    0.0000 </r>
       <r>   23.8798    0.0000 </r>
       <r>   24.2884    0.0000 </r>
       <r>   24.2884    0.0000 </r>
       <r>   24.5491    0.0000 </r>
       <r>   24.8416    0.0000 </r>
       <r>   25.8025    0.0000 </r>
       <r>   25.8025    0.0000 </r>
       <r>   26.3391    0.0000 </r>
       <r>   26.8274    0.0000 </r>
       <r>   26.9870    0.0000 </r>
       <r>   26.9870    0.0000 </r>
       <r>   27.5269    0.0000 </r>
       <r>   28.1059    0.0000 </r>
       <r>   28.2142    0.0000 </r>
       <r>   28.3676    0.0000 </r>
       <r>   28.4916    0.0000 </r>
       <r>   28.5891    0.0000 </r>
       <r>   28.5891    0.0000 </r>
       <r>   29.3011    0.0000 </r>
       <r>   29.4506    0.0000 </r>
       <r>   29.4506    0.0000 </r>
       <r>   29.9543    0.0000 </r>
       <r>   30.1881    0.0000 </r>
       <r>   30.7462    0.0000 </r>
       <r>   31.1066    0.0000 </r>
       <r>   31.1066    0.0000 </r>
       <r>   31.4518    0.0000 </r>
       <r>   32.8029    0.0000 </r>
       <r>   32.8029    0.0000 </r>
       <r>   32.8734    0.0000 </r>
       <r>   33.8565    0.0000 </r>
       <r>   34.6384    0.0000 </r>
       <r>   34.6384    0.0000 </r>
       <r>   34.7477    0.0000 </r>
       <r>   35.1776    0.0000 </r>
       <r>   36.1046    0.0000 </r>
       <r>   36.1046    0.0000 </r>
       <r>   36.3586    0.0000 </r>
       <r>   36.3586    0.0000 </r>
       <r>   36.7404    0.0000 </r>
       <r>   36.8518    0.0000 </r>
       <r>   36.9592    0.0000 </r>
       <r>   37.5467    0.0000 </r>
       <r>   37.5467    0.0000 </r>
       <r>   37.5956    0.0000 </r>
       <r>   38.2201    0.0000 </r>
       <r>   38.2201    0.0000 </r>
       <r>   38.3125    0.0000 </r>
       <r>   38.6492    0.0000 </r>
       <r>   39.7780    0.0000 </r>
       <r>   39.7780    0.0000 </r>
       <r>   39.9524    0.0000 </r>
       <r>   40.4397    0.0000 </r>
       <r>   40.5330    0.0000 </r>
       <r>   40.5330    0.0000 </r>
       <r>   40.7099    0.0000 </r>
       <r>   40.9296    0.0000 </r>
       <r>   41.3387    0.0000 </r>
       <r>   41.8854    0.0000 </r>
       <r>   42.0585    0.0000 </r>
       <r>   42.3685    0.0000 </r>
       <r>   42.3685    0.0000 </r>
       <r>   42.8066    0.0000 </r>
       <r>   43.3399    0.0000 </r>
       <r>   43.3399    0.0000 </r>
       <r>   43.3601    0.0000 </r>
       <r>   44.1318    0.0000 </r>
       <r>   44.1483    0.0000 </r>
       <r>   44.4813    0.0000 </r>
       <r>   44.7019    0.0000 </r>
       <r>   44.7019    0.0000 </r>
       <r>   44.8733    0.0000 </r>
       <r>   45.0476    0.0000 </r>
       <r>   45.0476    0.0000 </r>
       <r>   45.2261    0.0000 </r>
       <r>   45.3479    0.0000 </r>
       <r>   45.6169    0.0000 </r>
       <r>   45.6169    0.0000 </r>
       <r>   45.9930    0.0000 </r>
       <r>   45.9934    0.0000 </r>
      </set>
      <set comment="kpoint 3">
       <r>   -6.1888    1.0000 </r>
       <r>   -5.5353    1.0000 </r>
       <r>   -3.1078    1.0000 </r>
       <r>   -2.7531    1.0000 </r>
       <r>   -2.7531    1.0000 </r>
       <r>   -0.5734    1.0000 </r>
       <r>    0.7888    1.0000 </r>
       <r>    0.9497    1.0000 </r>
       <r>    1.1557    1.0000 </r>
       <r>    1.1557    1.0000 </r>
       <r>    2.7629    1.0000 </r>
       <r>    2.7629    1.0000 </r>
       <r>    2.9185    1.0000 </r>
       <r>    3.4821    1.0000 </r>
       <r>    4.8091    0.0469 </r>
       <r>    4.8091    0.0469 </r>
       <r>    6.1381    0.0000 </r>
       <r>    6.4111    0.0000 </r>
       <r>    8.1791    0.0000 </r>
       <r>    8.7960    0.0000 </r>
       <r>    9.1618    0.0000 </r>
       <r>    9.1799    0.0000 </r>
       <r>    9.1799    0.0000 </r>
       <r>    9.5482    0.0000 </r>
       <r>    9.8220    0.0000 </r>
       <r>    9.8220    0.0000 </r>
       <r>   10.4992    0.0000 </r>
       <r>   10.6857    0.0000 </r>
       <r>   11.0316    0.0000 </r>
       <r>   11.0316    0.0000 </r>
       <r>   12.8343    0.0000 </r>
       <r>   12.8343    0.0000 </r>
       <r>   13.6497    0.0000 </r>
       <r>   13.6804    0.0000 </r>
       <r>   14.8603    0.0000 </r>
       <r>   14.9452    0.0000 </r>
       <r>   15.1361    0.0000 </r>
       <r>   15.9760    0.0000 </r>
       <r>   15.9760    0.0000 </r>
       <r>   16.2727    0.0000 </r>
       <r>   16.5841    0.0000 </r>
       <r>   17.5386    0.0000 </r>
       <r>   17.5824    0.0000 </r>
       <r>   17.5824    0.0000 </r>
       <r>   18.1726    0.0000 </r>
       <r>   18.3835    0.0000 </r>
       <r>   18.5126    0.0000 </r>
       <r>   18.5126    0.0000 </r>
       <r>   19.2212    0.0000 </r>
       <r>   19.3947    0.0000 </r>
       <r>   19.3947    0.0000 </r>
       <r>   20.3762    0.0000 </r>
       <r>   21.3456    0.0000 </r>
       <r>   21.3514    0.0000 </r>
       <r>   21.3514    0.0000 </r>
       <r>   21.6185    0.0000 </r>
       <r>   22.5690    0.0000 </r>
       <r>   22.5690    0.0000 </r>
       <r>   22.6328    0.0000 </r>
       <r>   22.6328    0.0000 </r>
       <r>   23.0999    0.0000 </r>
       <r>   23.1104    0.0000 </r>
       <r>   23.4888    0.0000 </r>
       <r>   23.4888    0.0000 </r>
       <r>   23.4989    0.0000 </r>
       <r>   23.9643    0.0000 </r>
       <r>   24.1484    0.0000 </r>
       <r>   24.2912    0.0000 </r>
       <r>   24.8169    0.0000 </r>
       <r>   25.7058    0.0000 </r>
       <r>   26.0966    0.0000 </r>
       <r>   26.0966    0.0000 </r>
       <r>   26.4443    0.0000 </r>
       <r>   26.6644    0.0000 </r>
       <r>   26.6644    0.0000 </r>
       <r>   26.8591    0.0000 </r>
       <r>   26.9975    0.0000 </r>
       <r>   27.6393    0.0000 </r>
       <r>   28.8349    0.0000 </r>
       <r>   29.5579    0.0000 </r>
       <r>   29.7361    0.0000 </r>
       <r>   29.7361    0.0000 </r>
       <r>   30.0025    0.0000 </r>
       <r>   31.3651    0.0000 </r>
       <r>   31.7602    0.0000 </r>
       <r>   31.7602    0.0000 </r>
       <r>   31.8531    0.0000 </r>
       <r>   32.0118    0.0000 </r>
       <r>   32.0910    0.0000 </r>
       <r>   32.3502    0.0000 </r>
       <r>   32.3502    0.0000 </r>
       <r>   32.3962    0.0000 </r>
       <r>   32.4999    0.0000 </r>
       <r>   32.4999    0.0000 </r>
       <r>   33.5733    0.0000 </r>
       <r>   33.8784    0.0000 </r>
       <r>   33.8784    0.0000 </r>
       <r>   34.0937    0.0000 </r>
       <r>   34.2918    0.0000 </r>
       <r>   34.5040    0.0000 </r>
       <r>   34.8059    0.0000 </r>
       <r>   34.8170    0.0000 </r>
       <r>   34.8170    0.0000 </r>
       <r>   35.3076    0.0000 </r>
       <r>   35.3076    0.0000 </r>
       <r>   35.8308    0.0000 </r>
       <r>   35.9370    0.0000 </r>
       <r>   35.9370    0.0000 </r>
       <r>   36.5291    0.0000 </r>
       <r>   37.8687    0.0000 </r>
       <r>   38.4113    0.0000 </r>
       <r>   38.6122    0.0000 </r>
       <r>   38.6122    0.0000 </r>
       <r>   39.7861    0.0000 </r>
       <r>   39.8710    0.0000 </r>
       <r>   40.0564    0.0000 </r>
       <r>   40.4126    0.0000 </r>
       <r>   40.4126    0.0000 </r>
       <r>   40.4532    0.0000 </r>
       <r>   41.3974    0.0000 </r>
       <r>   41.6401    0.0000 </r>
       <r>   41.6401    0.0000 </r>
       <r>   41.6427    0.0000 </r>
       <r>   41.8899    0.0000 </r>
       <r>   41.8899    0.0000 </r>
       <r>   42.4422    0.0000 </r>
       <r>   42.4478    0.0000 </r>
       <r>   42.4479    0.0000 </r>
       <r>   42.4496    0.0000 </r>
       <r>   42.6689    0.0000 </r>
       <r>   43.1663    0.0000 </r>
       <r>   43.1663    0.0000 </r>
       <r>   44.4967    0.0000 </r>
       <r>   44.8348    0.0000 </r>
       <r>   44.8348    0.0000 </r>
       <r>   44.9497    0.0000 </r>
       <r>   45.2249    0.0000 </r>
       <r>   45.3607    0.0000 </r>
       <r>   45.3610    0.0000 </r>
       <r>   45.3893    0.0000 </r>
       <r>   45.5320    0.0000 </r>
       <r>   45.9502    0.0000 </r>
       <r>   46.4367    0.0000 </r>
       <r>   46.6039    0.0000 </r>
      </set>
      <set comment="kpoint 4">
       <r>   -6.4451    1.0000 </r>
       <r>   -4.6558    1.0000 </r>
       <r>   -4.1726    1.0000 </r>
       <r>   -2.9163    1.0000 </r>
       <r>   -2.0002    1.0000 </r>
       <r>   -1.1382    1.0000 </r>
       <r>    0.5039    1.0000 </r>
       <r>    1.3126    1.0000 </r>
       <r>    1.4548    1.0000 </r>
       <r>    1.8601    1.0000 </r>
       <r>    1.8634    1.0000 </r>
       <r>    2.8182    1.0000 </r>
       <r>    2.9433    1.0000 </r>
       <r>    3.9430    1.0000 </r>
       <r>    4.7263    0.7478 </r>
       <r>    5.7643    0.0000 </r>
       <r>    6.1943    0.0000 </r>
       <r>    6.7858    0.0000 </r>
       <r>    7.1902    0.0000 </r>
       <r>    7.4649    0.0000 </r>
       <r>    7.5966    0.0000 </r>
       <r>    9.0305    0.0000 </r>
       <r>    9.1097    0.0000 </r>
       <r>    9.2904    0.0000 </r>
       <r>    9.4472    0.0000 </r>
       <r>   10.3286    0.0000 </r>
       <r>   11.4882    0.0000 </r>
       <r>   11.5222    0.0000 </r>
       <r>   11.9710    0.0000 </r>
       <r>   12.4076    0.0000 </r>
       <r>   12.6394    0.0000 </r>
       <r>   13.2007    0.0000 </r>
       <r>   13.3100    0.0000 </r>
       <r>   13.9870    0.0000 </r>
       <r>   14.1453    0.0000 </r>
       <r>   14.7660    0.0000 </r>
       <r>   15.0277    0.0000 </r>
       <r>   15.5637    0.0000 </r>
       <r>   15.7827    0.0000 </r>
       <r>   16.1051    0.0000 </r>
       <r>   16.3470    0.0000 </r>
       <r>   16.7001    0.0000 </r>
       <r>   17.4719    0.0000 </r>
       <r>   18.1507    0.0000 </r>
       <r>   18.5734    0.0000 </r>
       <r>   18.6237    0.0000 </r>
       <r>   18.9743    0.0000 </r>
       <r>   19.2210    0.0000 </r>
       <r>   19.4960    0.0000 </r>
       <r>   19.5556    0.0000 </r>
       <r>   19.7190    0.0000 </r>
       <r>   19.9108    0.0000 </r>
       <r>   20.3631    0.0000 </r>
       <r>   20.6707    0.0000 </r>
       <r>   21.1396    0.0000 </r>
       <r>   21.2458    0.0000 </r>
       <r>   21.3965    0.0000 </r>
       <r>   22.2934    0.0000 </r>
       <r>   22.3479    0.0000 </r>
       <r>   22.6588    0.0000 </r>
       <r>   22.9490    0.0000 </r>
       <r>   23.0327    0.0000 </r>
       <r>   23.2564    0.0000 </r>
       <r>   23.8328    0.0000 </r>
       <r>   24.4380    0.0000 </r>
       <r>   24.6844    0.0000 </r>
       <r>   24.8869    0.0000 </r>
       <r>   25.0667    0.0000 </r>
       <r>   25.9561    0.0000 </r>
       <r>   26.0564    0.0000 </r>
       <r>   26.2564    0.0000 </r>
       <r>   26.3438    0.0000 </r>
       <r>   26.4165    0.0000 </r>
       <r>   26.9726    0.0000 </r>
       <r>   27.0499    0.0000 </r>
       <r>   27.1958    0.0000 </r>
       <r>   27.3956    0.0000 </r>
       <r>   27.7769    0.0000 </r>
       <r>   28.3017    0.0000 </r>
       <r>   28.5464    0.0000 </r>
       <r>   28.6535    0.0000 </r>
       <r>   29.0498    0.0000 </r>
       <r>   29.2996    0.0000 </r>
       <r>   29.9192    0.0000 </r>
       <r>   30.2784    0.0000 </r>
       <r>   30.5096    0.0000 </r>
       <r>   30.8781    0.0000 </r>
       <r>   31.0470    0.0000 </r>
       <r>   31.9440    0.0000 </r>
       <r>   32.1951    0.0000 </r>
       <r>   32.5419    0.0000 </r>
       <r>   32.7629    0.0000 </r>
       <r>   32.9806    0.0000 </r>
       <r>   33.2626    0.0000 </r>
       <r>   33.3506    0.0000 </r>
       <r>   33.5859    0.0000 </r>
       <r>   34.2276    0.0000 </r>
       <r>   34.5486    0.0000 </r>
       <r>   34.6758    0.0000 </r>
       <r>   35.0773    0.0000 </r>
       <r>   35.5315    0.0000 </r>
       <r>   35.5953    0.0000 </r>
       <r>   36.0745    0.0000 </r>
       <r>   36.3167    0.0000 </r>
       <r>   36.9585    0.0000 </r>
       <r>   37.0779    0.0000 </r>
       <r>   37.3226    0.0000 </r>
       <r>   37.6067    0.0000 </r>
       <r>   37.7518    0.0000 </r>
       <r>   37.7727    0.0000 </r>
       <r>   37.9076    0.0000 </r>
       <r>   38.3064    0.0000 </r>
       <r>   38.5073    0.0000 </r>
       <r>   38.7718    0.0000 </r>
       <r>   38.9132    0.0000 </r>
       <r>   39.2016    0.0000 </r>
       <r>   39.4676    0.0000 </r>
       <r>   39.5364    0.0000 </r>
       <r>   40.0590    0.0000 </r>
       <r>   40.1142    0.0000 </r>
       <r>   40.4604    0.0000 </r>
       <r>   40.9014    0.0000 </r>
       <r>   41.4601    0.0000 </r>
       <r>   42.0137    0.0000 </r>
       <r>   42.0464    0.0000 </r>
       <r>   42.2821    0.0000 </r>
       <r>   42.4376    0.0000 </r>
       <r>   42.9918    0.0000 </r>
       <r>   43.0652    0.0000 </r>
       <r>   43.2731    0.0000 </r>
       <r>   43.3629    0.0000 </r>
       <r>   43.4362    0.0000 </r>
       <r>   44.1355    0.0000 </r>
       <r>   44.2964    0.0000 </r>
       <r>   44.6066    0.0000 </r>
       <r>   44.7589    0.0000 </r>
       <r>   44.8308    0.0000 </r>
       <r>   44.9562    0.0000 </r>
       <r>   45.2905    0.0000 </r>
       <r>   45.7567    0.0000 </r>
       <r>   45.8104    0.0000 </r>
       <r>   46.1037    0.0000 </r>
       <r>   46.2894    0.0000 </r>
       <r>   46.5284    0.0000 </r>
      </set>
      <set comment="kpoint 5">
       <r>   -5.9460    1.0000 </r>
       <r>   -5.3915    1.0000 </r>
       <r>   -4.1784    1.0000 </r>
       <r>   -3.0657    1.0000 </r>
       <r>   -1.7267    1.0000 </r>
       <r>   -0.6730    1.0000 </r>
       <r>    0.3773    1.0000 </r>
       <r>    0.5995    1.0000 </r>
       <r>    1.4143    1.0000 </r>
       <r>    1.7832    1.0000 </r>
       <r>    2.4223    1.0000 </r>
       <r>    2.5817    1.0000 </r>
       <r>    3.0035    1.0000 </r>
       <r>    3.4284    1.0000 </r>
       <r>    4.9047    0.0000 </r>
       <r>    4.9239    0.0000 </r>
       <r>    7.3678    0.0000 </r>
       <r>    7.6143    0.0000 </r>
       <r>    7.7579    0.0000 </r>
       <r>    7.8660    0.0000 </r>
       <r>    8.9866    0.0000 </r>
       <r>    9.3480    0.0000 </r>
       <r>    9.3961    0.0000 </r>
       <r>    9.7563    0.0000 </r>
       <r>    9.8464    0.0000 </r>
       <r>    9.8954    0.0000 </r>
       <r>   10.2982    0.0000 </r>
       <r>   10.6417    0.0000 </r>
       <r>   11.4157    0.0000 </r>
       <r>   11.9832    0.0000 </r>
       <r>   12.3578    0.0000 </r>
       <r>   12.4793    0.0000 </r>
       <r>   12.8673    0.0000 </r>
       <r>   12.9988    0.0000 </r>
       <r>   13.6025    0.0000 </r>
       <r>   14.1634    0.0000 </r>
       <r>   15.0207    0.0000 </r>
       <r>   15.3047    0.0000 </r>
       <r>   15.9877    0.0000 </r>
       <r>   16.2495    0.0000 </r>
       <r>   16.8033    0.0000 </r>
       <r>   16.8132    0.0000 </r>
       <r>   17.0984    0.0000 </r>
       <r>   17.5958    0.0000 </r>
       <r>   18.7060    0.0000 </r>
       <r>   18.9536    0.0000 </r>
       <r>   19.0253    0.0000 </r>
       <r>   19.2504    0.0000 </r>
       <r>   19.6330    0.0000 </r>
       <r>   19.6336    0.0000 </r>
       <r>   19.8035    0.0000 </r>
       <r>   20.2180    0.0000 </r>
       <r>   20.2580    0.0000 </r>
       <r>   20.3364    0.0000 </r>
       <r>   21.0158    0.0000 </r>
       <r>   21.3427    0.0000 </r>
       <r>   21.9573    0.0000 </r>
       <r>   22.0113    0.0000 </r>
       <r>   22.2250    0.0000 </r>
       <r>   22.9255    0.0000 </r>
       <r>   23.1501    0.0000 </r>
       <r>   23.7274    0.0000 </r>
       <r>   23.8410    0.0000 </r>
       <r>   23.9598    0.0000 </r>
       <r>   24.4867    0.0000 </r>
       <r>   24.5060    0.0000 </r>
       <r>   25.2826    0.0000 </r>
       <r>   25.4343    0.0000 </r>
       <r>   25.5451    0.0000 </r>
       <r>   25.9541    0.0000 </r>
       <r>   26.2029    0.0000 </r>
       <r>   26.5034    0.0000 </r>
       <r>   26.9645    0.0000 </r>
       <r>   27.2162    0.0000 </r>
       <r>   27.3502    0.0000 </r>
       <r>   27.3729    0.0000 </r>
       <r>   27.8420    0.0000 </r>
       <r>   28.2496    0.0000 </r>
       <r>   28.5192    0.0000 </r>
       <r>   28.9807    0.0000 </r>
       <r>   29.1006    0.0000 </r>
       <r>   29.5568    0.0000 </r>
       <r>   29.5822    0.0000 </r>
       <r>   30.0652    0.0000 </r>
       <r>   30.7652    0.0000 </r>
       <r>   30.8509    0.0000 </r>
       <r>   31.4371    0.0000 </r>
       <r>   31.7816    0.0000 </r>
       <r>   32.0623    0.0000 </r>
       <r>   32.1532    0.0000 </r>
       <r>   32.4250    0.0000 </r>
       <r>   32.7047    0.0000 </r>
       <r>   32.7114    0.0000 </r>
       <r>   33.3351    0.0000 </r>
       <r>   33.3452    0.0000 </r>
       <r>   33.7337    0.0000 </r>
       <r>   33.8308    0.0000 </r>
       <r>   34.1629    0.0000 </r>
       <r>   34.4956    0.0000 </r>
       <r>   34.6835    0.0000 </r>
       <r>   35.0146    0.0000 </r>
       <r>   35.0565    0.0000 </r>
       <r>   35.5912    0.0000 </r>
       <r>   36.1701    0.0000 </r>
       <r>   36.1810    0.0000 </r>
       <r>   36.1954    0.0000 </r>
       <r>   36.4353    0.0000 </r>
       <r>   36.9379    0.0000 </r>
       <r>   37.1740    0.0000 </r>
       <r>   37.3186    0.0000 </r>
       <r>   37.3827    0.0000 </r>
       <r>   38.0946    0.0000 </r>
       <r>   38.1438    0.0000 </r>
       <r>   38.3290    0.0000 </r>
       <r>   38.7273    0.0000 </r>
       <r>   38.9875    0.0000 </r>
       <r>   39.2517    0.0000 </r>
       <r>   39.4584    0.0000 </r>
       <r>   40.2427    0.0000 </r>
       <r>   40.4149    0.0000 </r>
       <r>   40.6172    0.0000 </r>
       <r>   40.7869    0.0000 </r>
       <r>   41.2070    0.0000 </r>
       <r>   41.4870    0.0000 </r>
       <r>   41.7709    0.0000 </r>
       <r>   41.9592    0.0000 </r>
       <r>   42.1510    0.0000 </r>
       <r>   42.4614    0.0000 </r>
       <r>   42.6388    0.0000 </r>
       <r>   42.9494    0.0000 </r>
       <r>   43.1994    0.0000 </r>
       <r>   43.6202    0.0000 </r>
       <r>   43.8563    0.0000 </r>
       <r>   44.1046    0.0000 </r>
       <r>   44.2518    0.0000 </r>
       <r>   44.6840    0.0000 </r>
       <r>   44.9423    0.0000 </r>
       <r>   45.1968    0.0000 </r>
       <r>   45.3484    0.0000 </r>
       <r>   45.4162    0.0000 </r>
       <r>   45.7749    0.0000 </r>
       <r>   45.9378    0.0000 </r>
       <r>   46.2220    0.0000 </r>
       <r>   46.6842    0.0000 </r>
      </set>
      <set comment="kpoint 6">
       <r>   -5.2790    1.0000 </r>
       <r>   -5.2062    1.0000 </r>
       <r>   -5.2062    1.0000 </r>
       <r>   -3.4274    1.0000 </r>
       <r>   -0.6277    1.0000 </r>
       <r>   -0.6277    1.0000 </r>
       <r>   -0.5477    1.0000 </r>
       <r>    0.7176    1.0000 </r>
       <r>    1.2242    1.0000 </r>
       <r>    1.2242    1.0000 </r>
       <r>    2.5995    1.0000 </r>
       <r>    3.0186    1.0000 </r>
       <r>    3.2829    1.0000 </r>
       <r>    3.2919    1.0000 </r>
       <r>    5.3920    0.0000 </r>
       <r>    5.3920    0.0000 </r>
       <r>    7.0152    0.0000 </r>
       <r>    7.0152    0.0000 </r>
       <r>    8.4285    0.0000 </r>
       <r>    8.4530    0.0000 </r>
       <r>    9.3765    0.0000 </r>
       <r>    9.4914    0.0000 </r>
       <r>    9.8033    0.0000 </r>
       <r>    9.8033    0.0000 </r>
       <r>   10.0031    0.0000 </r>
       <r>   10.2253    0.0000 </r>
       <r>   10.2253    0.0000 </r>
       <r>   10.5917    0.0000 </r>
       <r>   11.0273    0.0000 </r>
       <r>   11.8219    0.0000 </r>
       <r>   11.8219    0.0000 </r>
       <r>   12.5544    0.0000 </r>
       <r>   12.6461    0.0000 </r>
       <r>   12.6461    0.0000 </r>
       <r>   12.7172    0.0000 </r>
       <r>   12.9637    0.0000 </r>
       <r>   14.5220    0.0000 </r>
       <r>   15.4508    0.0000 </r>
       <r>   15.4508    0.0000 </r>
       <r>   15.6266    0.0000 </r>
       <r>   17.3991    0.0000 </r>
       <r>   17.5337    0.0000 </r>
       <r>   17.5337    0.0000 </r>
       <r>   18.1914    0.0000 </r>
       <r>   18.1914    0.0000 </r>
       <r>   18.1986    0.0000 </r>
       <r>   18.4472    0.0000 </r>
       <r>   18.8479    0.0000 </r>
       <r>   19.0986    0.0000 </r>
       <r>   19.0986    0.0000 </r>
       <r>   19.1240    0.0000 </r>
       <r>   20.5430    0.0000 </r>
       <r>   21.3497    0.0000 </r>
       <r>   21.7222    0.0000 </r>
       <r>   21.7222    0.0000 </r>
       <r>   21.8495    0.0000 </r>
       <r>   21.8508    0.0000 </r>
       <r>   21.8508    0.0000 </r>
       <r>   21.9135    0.0000 </r>
       <r>   22.4485    0.0000 </r>
       <r>   23.0742    0.0000 </r>
       <r>   23.2997    0.0000 </r>
       <r>   23.5710    0.0000 </r>
       <r>   23.5710    0.0000 </r>
       <r>   24.4084    0.0000 </r>
       <r>   25.2213    0.0000 </r>
       <r>   26.3070    0.0000 </r>
       <r>   26.3070    0.0000 </r>
       <r>   26.5157    0.0000 </r>
       <r>   26.5157    0.0000 </r>
       <r>   26.7348    0.0000 </r>
       <r>   26.8692    0.0000 </r>
       <r>   26.8692    0.0000 </r>
       <r>   27.4339    0.0000 </r>
       <r>   27.5981    0.0000 </r>
       <r>   27.6934    0.0000 </r>
       <r>   28.8197    0.0000 </r>
       <r>   28.9658    0.0000 </r>
       <r>   28.9658    0.0000 </r>
       <r>   29.5008    0.0000 </r>
       <r>   29.7206    0.0000 </r>
       <r>   29.7466    0.0000 </r>
       <r>   29.7466    0.0000 </r>
       <r>   31.0628    0.0000 </r>
       <r>   31.1406    0.0000 </r>
       <r>   31.1636    0.0000 </r>
       <r>   31.2994    0.0000 </r>
       <r>   31.2994    0.0000 </r>
       <r>   31.3631    0.0000 </r>
       <r>   31.6519    0.0000 </r>
       <r>   31.9842    0.0000 </r>
       <r>   31.9842    0.0000 </r>
       <r>   32.6663    0.0000 </r>
       <r>   32.6663    0.0000 </r>
       <r>   32.7992    0.0000 </r>
       <r>   32.8010    0.0000 </r>
       <r>   32.8010    0.0000 </r>
       <r>   33.4065    0.0000 </r>
       <r>   33.7967    0.0000 </r>
       <r>   34.0549    0.0000 </r>
       <r>   34.1431    0.0000 </r>
       <r>   34.5241    0.0000 </r>
       <r>   35.4228    0.0000 </r>
       <r>   35.5674    0.0000 </r>
       <r>   35.5674    0.0000 </r>
       <r>   36.1951    0.0000 </r>
       <r>   36.5879    0.0000 </r>
       <r>   36.5879    0.0000 </r>
       <r>   37.1696    0.0000 </r>
       <r>   37.1696    0.0000 </r>
       <r>   37.6344    0.0000 </r>
       <r>   38.4105    0.0000 </r>
       <r>   38.9965    0.0000 </r>
       <r>   38.9965    0.0000 </r>
       <r>   39.0829    0.0000 </r>
       <r>   39.8629    0.0000 </r>
       <r>   40.3459    0.0000 </r>
       <r>   40.7692    0.0000 </r>
       <r>   40.8521    0.0000 </r>
       <r>   40.8521    0.0000 </r>
       <r>   40.9116    0.0000 </r>
       <r>   41.4326    0.0000 </r>
       <r>   41.7565    0.0000 </r>
       <r>   41.8890    0.0000 </r>
       <r>   41.8890    0.0000 </r>
       <r>   42.2179    0.0000 </r>
       <r>   42.4593    0.0000 </r>
       <r>   42.6585    0.0000 </r>
       <r>   42.7430    0.0000 </r>
       <r>   42.7430    0.0000 </r>
       <r>   42.7757    0.0000 </r>
       <r>   42.7757    0.0000 </r>
       <r>   42.9148    0.0000 </r>
       <r>   43.0415    0.0000 </r>
       <r>   43.0415    0.0000 </r>
       <r>   43.3702    0.0000 </r>
       <r>   43.6263    0.0000 </r>
       <r>   43.8565    0.0000 </r>
       <r>   43.8565    0.0000 </r>
       <r>   44.2909    0.0000 </r>
       <r>   44.2909    0.0000 </r>
       <r>   44.5108    0.0000 </r>
       <r>   44.9059    0.0000 </r>
       <r>   45.0445    0.0000 </r>
      </set>
      <set comment="kpoint 7">
       <r>   -6.2127    1.0000 </r>
       <r>   -4.5523    1.0000 </r>
       <r>   -4.5523    1.0000 </r>
       <r>   -3.2384    1.0000 </r>
       <r>   -1.4803    1.0000 </r>
       <r>   -1.4803    1.0000 </r>
       <r>    0.1168    1.0000 </r>
       <r>    1.1847    1.0000 </r>
       <r>    1.1847    1.0000 </r>
       <r>    2.2137    1.0000 </r>
       <r>    2.3354    1.0000 </r>
       <r>    3.1007    1.0000 </r>
       <r>    3.1007    1.0000 </r>
       <r>    3.5666    1.0000 </r>
       <r>    5.5111    0.0000 </r>
       <r>    5.5111    0.0000 </r>
       <r>    6.4035    0.0000 </r>
       <r>    6.4569    0.0000 </r>
       <r>    6.4569    0.0000 </r>
       <r>    8.5542    0.0000 </r>
       <r>    8.7269    0.0000 </r>
       <r>    8.7269    0.0000 </r>
       <r>    9.7210    0.0000 </r>
       <r>    9.7210    0.0000 </r>
       <r>    9.9524    0.0000 </r>
       <r>   10.3430    0.0000 </r>
       <r>   10.3430    0.0000 </r>
       <r>   10.4328    0.0000 </r>
       <r>   11.7698    0.0000 </r>
       <r>   11.7698    0.0000 </r>
       <r>   12.4916    0.0000 </r>
       <r>   12.9421    0.0000 </r>
       <r>   12.9421    0.0000 </r>
       <r>   13.9366    0.0000 </r>
       <r>   14.0231    0.0000 </r>
       <r>   15.2383    0.0000 </r>
       <r>   15.3435    0.0000 </r>
       <r>   15.3435    0.0000 </r>
       <r>   15.7901    0.0000 </r>
       <r>   15.9843    0.0000 </r>
       <r>   15.9843    0.0000 </r>
       <r>   16.9524    0.0000 </r>
       <r>   17.3236    0.0000 </r>
       <r>   17.4845    0.0000 </r>
       <r>   17.4845    0.0000 </r>
       <r>   17.7624    0.0000 </r>
       <r>   18.5199    0.0000 </r>
       <r>   18.5199    0.0000 </r>
       <r>   19.4317    0.0000 </r>
       <r>   19.4317    0.0000 </r>
       <r>   19.4631    0.0000 </r>
       <r>   20.2119    0.0000 </r>
       <r>   20.2119    0.0000 </r>
       <r>   22.0313    0.0000 </r>
       <r>   22.0313    0.0000 </r>
       <r>   22.3012    0.0000 </r>
       <r>   22.3617    0.0000 </r>
       <r>   22.8175    0.0000 </r>
       <r>   22.8175    0.0000 </r>
       <r>   23.1661    0.0000 </r>
       <r>   23.2001    0.0000 </r>
       <r>   23.2001    0.0000 </r>
       <r>   24.0069    0.0000 </r>
       <r>   24.0069    0.0000 </r>
       <r>   24.0101    0.0000 </r>
       <r>   24.3953    0.0000 </r>
       <r>   24.6514    0.0000 </r>
       <r>   24.6514    0.0000 </r>
       <r>   24.7575    0.0000 </r>
       <r>   25.8958    0.0000 </r>
       <r>   25.8958    0.0000 </r>
       <r>   26.2912    0.0000 </r>
       <r>   26.5704    0.0000 </r>
       <r>   26.6838    0.0000 </r>
       <r>   26.6838    0.0000 </r>
       <r>   27.7315    0.0000 </r>
       <r>   27.7315    0.0000 </r>
       <r>   28.8208    0.0000 </r>
       <r>   28.9579    0.0000 </r>
       <r>   28.9579    0.0000 </r>
       <r>   29.6929    0.0000 </r>
       <r>   29.8490    0.0000 </r>
       <r>   29.8490    0.0000 </r>
       <r>   29.9723    0.0000 </r>
       <r>   30.3827    0.0000 </r>
       <r>   30.3827    0.0000 </r>
       <r>   31.3420    0.0000 </r>
       <r>   32.2653    0.0000 </r>
       <r>   32.2653    0.0000 </r>
       <r>   32.5134    0.0000 </r>
       <r>   32.9315    0.0000 </r>
       <r>   32.9315    0.0000 </r>
       <r>   33.3773    0.0000 </r>
       <r>   33.5681    0.0000 </r>
       <r>   33.5681    0.0000 </r>
       <r>   33.6388    0.0000 </r>
       <r>   34.1256    0.0000 </r>
       <r>   34.1949    0.0000 </r>
       <r>   34.1949    0.0000 </r>
       <r>   34.5963    0.0000 </r>
       <r>   34.8989    0.0000 </r>
       <r>   34.8989    0.0000 </r>
       <r>   35.6812    0.0000 </r>
       <r>   35.8457    0.0000 </r>
       <r>   35.8457    0.0000 </r>
       <r>   36.1638    0.0000 </r>
       <r>   36.4064    0.0000 </r>
       <r>   36.4064    0.0000 </r>
       <r>   37.0379    0.0000 </r>
       <r>   37.3799    0.0000 </r>
       <r>   37.3799    0.0000 </r>
       <r>   37.8090    0.0000 </r>
       <r>   37.8090    0.0000 </r>
       <r>   38.8974    0.0000 </r>
       <r>   39.2198    0.0000 </r>
       <r>   39.2198    0.0000 </r>
       <r>   39.2870    0.0000 </r>
       <r>   39.8566    0.0000 </r>
       <r>   39.8566    0.0000 </r>
       <r>   40.5407    0.0000 </r>
       <r>   40.5407    0.0000 </r>
       <r>   41.0903    0.0000 </r>
       <r>   41.1373    0.0000 </r>
       <r>   41.1373    0.0000 </r>
       <r>   41.6398    0.0000 </r>
       <r>   41.8832    0.0000 </r>
       <r>   41.8832    0.0000 </r>
       <r>   42.0240    0.0000 </r>
       <r>   42.8235    0.0000 </r>
       <r>   42.8235    0.0000 </r>
       <r>   42.9201    0.0000 </r>
       <r>   43.3065    0.0000 </r>
       <r>   43.3283    0.0000 </r>
       <r>   43.3283    0.0000 </r>
       <r>   43.7751    0.0000 </r>
       <r>   44.6956    0.0000 </r>
       <r>   44.7676    0.0000 </r>
       <r>   44.7676    0.0000 </r>
       <r>   45.2652    0.0000 </r>
       <r>   45.6482    0.0000 </r>
       <r>   45.6482    0.0000 </r>
       <r>   46.7201    0.0000 </r>
       <r>   46.7208    0.0000 </r>
       <r>   46.8347    0.0000 </r>
      </set>
      <set comment="kpoint 8">
       <r>   -5.7244    1.0000 </r>
       <r>   -5.2612    1.0000 </r>
       <r>   -4.4320    1.0000 </r>
       <r>   -3.2284    1.0000 </r>
       <r>   -1.8175    1.0000 </r>
       <r>   -1.1961    1.0000 </r>
       <r>   -0.4155    1.0000 </r>
       <r>    1.1959    1.0000 </r>
       <r>    1.7736    1.0000 </r>
       <r>    2.1328    1.0000 </r>
       <r>    2.5264    1.0000 </r>
       <r>    2.6299    1.0000 </r>
       <r>    3.0435    1.0000 </r>
       <r>    4.3927    1.0000 </r>
       <r>    4.9124    0.0000 </r>
       <r>    5.3015    0.0000 </r>
       <r>    6.9890    0.0000 </r>
       <r>    7.6026    0.0000 </r>
       <r>    7.9017    0.0000 </r>
       <r>    7.9573    0.0000 </r>
       <r>    7.9670    0.0000 </r>
       <r>    8.5168    0.0000 </r>
       <r>    9.5678    0.0000 </r>
       <r>    9.5986    0.0000 </r>
       <r>   10.0192    0.0000 </r>
       <r>   10.1881    0.0000 </r>
       <r>   10.2392    0.0000 </r>
       <r>   10.7853    0.0000 </r>
       <r>   11.6831    0.0000 </r>
       <r>   11.9119    0.0000 </r>
       <r>   12.4094    0.0000 </r>
       <r>   12.7570    0.0000 </r>
       <r>   12.7971    0.0000 </r>
       <r>   13.1945    0.0000 </r>
       <r>   14.2702    0.0000 </r>
       <r>   14.6167    0.0000 </r>
       <r>   14.8755    0.0000 </r>
       <r>   15.0508    0.0000 </r>
       <r>   15.4525    0.0000 </r>
       <r>   15.5030    0.0000 </r>
       <r>   16.0027    0.0000 </r>
       <r>   16.5456    0.0000 </r>
       <r>   16.8707    0.0000 </r>
       <r>   16.8970    0.0000 </r>
       <r>   18.0824    0.0000 </r>
       <r>   18.6007    0.0000 </r>
       <r>   18.7291    0.0000 </r>
       <r>   18.8033    0.0000 </r>
       <r>   18.8752    0.0000 </r>
       <r>   19.0732    0.0000 </r>
       <r>   20.2173    0.0000 </r>
       <r>   20.5548    0.0000 </r>
       <r>   20.6408    0.0000 </r>
       <r>   21.0499    0.0000 </r>
       <r>   21.2439    0.0000 </r>
       <r>   21.9675    0.0000 </r>
       <r>   22.2129    0.0000 </r>
       <r>   22.4322    0.0000 </r>
       <r>   23.0097    0.0000 </r>
       <r>   23.1154    0.0000 </r>
       <r>   23.2657    0.0000 </r>
       <r>   23.5885    0.0000 </r>
       <r>   23.9774    0.0000 </r>
       <r>   24.1120    0.0000 </r>
       <r>   24.1132    0.0000 </r>
       <r>   24.7101    0.0000 </r>
       <r>   24.9174    0.0000 </r>
       <r>   25.6696    0.0000 </r>
       <r>   25.7489    0.0000 </r>
       <r>   26.2906    0.0000 </r>
       <r>   26.4778    0.0000 </r>
       <r>   26.6530    0.0000 </r>
       <r>   27.0249    0.0000 </r>
       <r>   27.4933    0.0000 </r>
       <r>   28.0008    0.0000 </r>
       <r>   28.0911    0.0000 </r>
       <r>   28.2727    0.0000 </r>
       <r>   28.7865    0.0000 </r>
       <r>   29.3122    0.0000 </r>
       <r>   29.3309    0.0000 </r>
       <r>   29.5246    0.0000 </r>
       <r>   30.0008    0.0000 </r>
       <r>   30.0848    0.0000 </r>
       <r>   30.2293    0.0000 </r>
       <r>   30.4545    0.0000 </r>
       <r>   30.8862    0.0000 </r>
       <r>   30.9647    0.0000 </r>
       <r>   31.1809    0.0000 </r>
       <r>   31.7823    0.0000 </r>
       <r>   31.8808    0.0000 </r>
       <r>   32.1295    0.0000 </r>
       <r>   32.2820    0.0000 </r>
       <r>   32.7315    0.0000 </r>
       <r>   33.4054    0.0000 </r>
       <r>   33.9742    0.0000 </r>
       <r>   34.1819    0.0000 </r>
       <r>   34.4255    0.0000 </r>
       <r>   34.4551    0.0000 </r>
       <r>   34.7935    0.0000 </r>
       <r>   34.8361    0.0000 </r>
       <r>   35.1041    0.0000 </r>
       <r>   35.2814    0.0000 </r>
       <r>   35.6059    0.0000 </r>
       <r>   35.7640    0.0000 </r>
       <r>   35.8016    0.0000 </r>
       <r>   36.1374    0.0000 </r>
       <r>   36.2240    0.0000 </r>
       <r>   36.6202    0.0000 </r>
       <r>   36.7160    0.0000 </r>
       <r>   37.0112    0.0000 </r>
       <r>   37.1261    0.0000 </r>
       <r>   37.1688    0.0000 </r>
       <r>   37.3715    0.0000 </r>
       <r>   37.6478    0.0000 </r>
       <r>   37.9023    0.0000 </r>
       <r>   38.2494    0.0000 </r>
       <r>   38.7990    0.0000 </r>
       <r>   39.3729    0.0000 </r>
       <r>   39.6735    0.0000 </r>
       <r>   39.7433    0.0000 </r>
       <r>   39.8690    0.0000 </r>
       <r>   40.4870    0.0000 </r>
       <r>   40.9098    0.0000 </r>
       <r>   41.1476    0.0000 </r>
       <r>   41.2467    0.0000 </r>
       <r>   41.6403    0.0000 </r>
       <r>   41.6653    0.0000 </r>
       <r>   42.2159    0.0000 </r>
       <r>   42.5265    0.0000 </r>
       <r>   42.6204    0.0000 </r>
       <r>   43.1846    0.0000 </r>
       <r>   43.2862    0.0000 </r>
       <r>   43.5069    0.0000 </r>
       <r>   43.5946    0.0000 </r>
       <r>   44.1513    0.0000 </r>
       <r>   44.1590    0.0000 </r>
       <r>   44.7948    0.0000 </r>
       <r>   45.0481    0.0000 </r>
       <r>   45.2217    0.0000 </r>
       <r>   45.4308    0.0000 </r>
       <r>   45.8761    0.0000 </r>
       <r>   46.2785    0.0000 </r>
       <r>   47.0654    0.0000 </r>
       <r>   47.0989    0.0000 </r>
      </set>
      <set comment="kpoint 9">
       <r>   -5.1438    1.0000 </r>
       <r>   -5.0993    1.0000 </r>
       <r>   -5.0993    1.0000 </r>
       <r>   -3.4110    1.0000 </r>
       <r>   -1.4671    1.0000 </r>
       <r>   -1.4132    1.0000 </r>
       <r>   -1.4132    1.0000 </r>
       <r>    1.2321    1.0000 </r>
       <r>    2.1852    1.0000 </r>
       <r>    2.3345    1.0000 </r>
       <r>    2.3345    1.0000 </r>
       <r>    3.3003    1.0000 </r>
       <r>    3.3776    1.0000 </r>
       <r>    4.7138    0.8463 </r>
       <r>    5.5461    0.0000 </r>
       <r>    5.5461    0.0000 </r>
       <r>    6.9544    0.0000 </r>
       <r>    6.9544    0.0000 </r>
       <r>    7.6015    0.0000 </r>
       <r>    8.2737    0.0000 </r>
       <r>    8.2737    0.0000 </r>
       <r>    8.4029    0.0000 </r>
       <r>    8.5608    0.0000 </r>
       <r>    9.0452    0.0000 </r>
       <r>    9.2380    0.0000 </r>
       <r>   10.2905    0.0000 </r>
       <r>   10.2905    0.0000 </r>
       <r>   10.7846    0.0000 </r>
       <r>   12.5153    0.0000 </r>
       <r>   12.6483    0.0000 </r>
       <r>   12.6634    0.0000 </r>
       <r>   12.6634    0.0000 </r>
       <r>   13.8180    0.0000 </r>
       <r>   13.8180    0.0000 </r>
       <r>   13.9178    0.0000 </r>
       <r>   13.9258    0.0000 </r>
       <r>   14.2238    0.0000 </r>
       <r>   14.8906    0.0000 </r>
       <r>   14.8906    0.0000 </r>
       <r>   15.3106    0.0000 </r>
       <r>   16.1986    0.0000 </r>
       <r>   16.1986    0.0000 </r>
       <r>   16.2167    0.0000 </r>
       <r>   16.8829    0.0000 </r>
       <r>   18.1059    0.0000 </r>
       <r>   18.1059    0.0000 </r>
       <r>   18.2484    0.0000 </r>
       <r>   18.8124    0.0000 </r>
       <r>   19.0183    0.0000 </r>
       <r>   19.2543    0.0000 </r>
       <r>   19.2543    0.0000 </r>
       <r>   19.4811    0.0000 </r>
       <r>   20.0666    0.0000 </r>
       <r>   21.5445    0.0000 </r>
       <r>   21.5445    0.0000 </r>
       <r>   22.0190    0.0000 </r>
       <r>   22.3302    0.0000 </r>
       <r>   22.5234    0.0000 </r>
       <r>   22.6385    0.0000 </r>
       <r>   22.6385    0.0000 </r>
       <r>   23.6953    0.0000 </r>
       <r>   23.6953    0.0000 </r>
       <r>   23.7543    0.0000 </r>
       <r>   25.0318    0.0000 </r>
       <r>   25.2826    0.0000 </r>
       <r>   25.9235    0.0000 </r>
       <r>   25.9235    0.0000 </r>
       <r>   26.0797    0.0000 </r>
       <r>   26.9789    0.0000 </r>
       <r>   26.9789    0.0000 </r>
       <r>   27.1744    0.0000 </r>
       <r>   27.1885    0.0000 </r>
       <r>   27.3386    0.0000 </r>
       <r>   27.4965    0.0000 </r>
       <r>   27.4965    0.0000 </r>
       <r>   28.5230    0.0000 </r>
       <r>   28.7767    0.0000 </r>
       <r>   28.7767    0.0000 </r>
       <r>   29.2412    0.0000 </r>
       <r>   29.2422    0.0000 </r>
       <r>   29.4873    0.0000 </r>
       <r>   30.3605    0.0000 </r>
       <r>   30.3605    0.0000 </r>
       <r>   30.4012    0.0000 </r>
       <r>   30.4983    0.0000 </r>
       <r>   30.6960    0.0000 </r>
       <r>   30.6960    0.0000 </r>
       <r>   31.5039    0.0000 </r>
       <r>   32.0108    0.0000 </r>
       <r>   32.0108    0.0000 </r>
       <r>   32.1105    0.0000 </r>
       <r>   32.3798    0.0000 </r>
       <r>   32.7127    0.0000 </r>
       <r>   33.0275    0.0000 </r>
       <r>   33.0275    0.0000 </r>
       <r>   33.6159    0.0000 </r>
       <r>   33.6159    0.0000 </r>
       <r>   33.7267    0.0000 </r>
       <r>   33.7304    0.0000 </r>
       <r>   34.1545    0.0000 </r>
       <r>   34.9633    0.0000 </r>
       <r>   35.2143    0.0000 </r>
       <r>   35.2143    0.0000 </r>
       <r>   35.3142    0.0000 </r>
       <r>   35.6893    0.0000 </r>
       <r>   36.1565    0.0000 </r>
       <r>   36.2434    0.0000 </r>
       <r>   36.2434    0.0000 </r>
       <r>   36.8909    0.0000 </r>
       <r>   37.5065    0.0000 </r>
       <r>   37.5065    0.0000 </r>
       <r>   37.5158    0.0000 </r>
       <r>   37.8805    0.0000 </r>
       <r>   38.1641    0.0000 </r>
       <r>   38.1641    0.0000 </r>
       <r>   38.2652    0.0000 </r>
       <r>   39.0567    0.0000 </r>
       <r>   39.2312    0.0000 </r>
       <r>   39.2312    0.0000 </r>
       <r>   39.2327    0.0000 </r>
       <r>   39.6607    0.0000 </r>
       <r>   39.8050    0.0000 </r>
       <r>   39.8050    0.0000 </r>
       <r>   40.7968    0.0000 </r>
       <r>   41.0443    0.0000 </r>
       <r>   41.7430    0.0000 </r>
       <r>   41.7430    0.0000 </r>
       <r>   41.8300    0.0000 </r>
       <r>   42.1173    0.0000 </r>
       <r>   42.8393    0.0000 </r>
       <r>   42.8818    0.0000 </r>
       <r>   43.0195    0.0000 </r>
       <r>   43.0195    0.0000 </r>
       <r>   43.5084    0.0000 </r>
       <r>   44.1524    0.0000 </r>
       <r>   44.1524    0.0000 </r>
       <r>   44.3379    0.0000 </r>
       <r>   45.0272    0.0000 </r>
       <r>   45.0273    0.0000 </r>
       <r>   45.5302    0.0000 </r>
       <r>   45.5782    0.0000 </r>
       <r>   45.7237    0.0000 </r>
       <r>   45.7239    0.0000 </r>
       <r>   46.2025    0.0000 </r>
      </set>
      <set comment="kpoint 10">
       <r>   -4.9749    1.0000 </r>
       <r>   -4.9749    1.0000 </r>
       <r>   -4.9749    1.0000 </r>
       <r>   -3.4468    1.0000 </r>
       <r>   -1.9427    1.0000 </r>
       <r>   -1.9427    1.0000 </r>
       <r>   -1.9427    1.0000 </r>
       <r>    0.6726    1.0000 </r>
       <r>    3.3338    1.0000 </r>
       <r>    3.3338    1.0000 </r>
       <r>    3.3338    1.0000 </r>
       <r>    3.4542    1.0000 </r>
       <r>    3.4542    1.0000 </r>
       <r>    5.9109    0.0000 </r>
       <r>    5.9109    0.0000 </r>
       <r>    5.9109    0.0000 </r>
       <r>    6.2738    0.0000 </r>
       <r>    6.2738    0.0000 </r>
       <r>    6.2738    0.0000 </r>
       <r>    7.8702    0.0000 </r>
       <r>    7.8702    0.0000 </r>
       <r>    7.8702    0.0000 </r>
       <r>    8.6698    0.0000 </r>
       <r>    8.6698    0.0000 </r>
       <r>    9.7222    0.0000 </r>
       <r>    9.7245    0.0000 </r>
       <r>    9.7245    0.0000 </r>
       <r>    9.7245    0.0000 </r>
       <r>   12.5595    0.0000 </r>
       <r>   12.8279    0.0000 </r>
       <r>   12.8279    0.0000 </r>
       <r>   12.8279    0.0000 </r>
       <r>   15.2190    0.0000 </r>
       <r>   15.2190    0.0000 </r>
       <r>   15.2190    0.0000 </r>
       <r>   15.3436    0.0000 </r>
       <r>   15.3436    0.0000 </r>
       <r>   15.6711    0.0000 </r>
       <r>   15.6711    0.0000 </r>
       <r>   15.6711    0.0000 </r>
       <r>   16.1725    0.0000 </r>
       <r>   16.1725    0.0000 </r>
       <r>   16.1725    0.0000 </r>
       <r>   16.6608    0.0000 </r>
       <r>   16.7909    0.0000 </r>
       <r>   16.7909    0.0000 </r>
       <r>   16.7909    0.0000 </r>
       <r>   17.4461    0.0000 </r>
       <r>   17.4461    0.0000 </r>
       <r>   17.4461    0.0000 </r>
       <r>   17.7175    0.0000 </r>
       <r>   17.7175    0.0000 </r>
       <r>   18.9544    0.0000 </r>
       <r>   21.1681    0.0000 </r>
       <r>   21.1681    0.0000 </r>
       <r>   21.1681    0.0000 </r>
       <r>   24.6217    0.0000 </r>
       <r>   24.6540    0.0000 </r>
       <r>   24.6540    0.0000 </r>
       <r>   24.6540    0.0000 </r>
       <r>   25.1207    0.0000 </r>
       <r>   25.1207    0.0000 </r>
       <r>   25.1207    0.0000 </r>
       <r>   25.6767    0.0000 </r>
       <r>   26.2338    0.0000 </r>
       <r>   26.2338    0.0000 </r>
       <r>   26.2338    0.0000 </r>
       <r>   26.4174    0.0000 </r>
       <r>   26.4174    0.0000 </r>
       <r>   26.4213    0.0000 </r>
       <r>   26.4213    0.0000 </r>
       <r>   26.4213    0.0000 </r>
       <r>   26.7062    0.0000 </r>
       <r>   26.7062    0.0000 </r>
       <r>   26.7062    0.0000 </r>
       <r>   28.3327    0.0000 </r>
       <r>   28.3327    0.0000 </r>
       <r>   28.3327    0.0000 </r>
       <r>   29.5844    0.0000 </r>
       <r>   29.5844    0.0000 </r>
       <r>   30.3096    0.0000 </r>
       <r>   31.1273    0.0000 </r>
       <r>   31.1273    0.0000 </r>
       <r>   31.1273    0.0000 </r>
       <r>   31.3342    0.0000 </r>
       <r>   31.3342    0.0000 </r>
       <r>   31.3342    0.0000 </r>
       <r>   31.8513    0.0000 </r>
       <r>   31.8513    0.0000 </r>
       <r>   32.0242    0.0000 </r>
       <r>   32.0242    0.0000 </r>
       <r>   32.0242    0.0000 </r>
       <r>   32.4408    0.0000 </r>
       <r>   32.4408    0.0000 </r>
       <r>   32.4408    0.0000 </r>
       <r>   32.9218    0.0000 </r>
       <r>   32.9218    0.0000 </r>
       <r>   32.9218    0.0000 </r>
       <r>   33.8734    0.0000 </r>
       <r>   33.8739    0.0000 </r>
       <r>   33.8739    0.0000 </r>
       <r>   35.5383    0.0000 </r>
       <r>   36.3186    0.0000 </r>
       <r>   36.3186    0.0000 </r>
       <r>   36.3186    0.0000 </r>
       <r>   36.4276    0.0000 </r>
       <r>   36.4276    0.0000 </r>
       <r>   36.4276    0.0000 </r>
       <r>   36.9563    0.0000 </r>
       <r>   36.9563    0.0000 </r>
       <r>   36.9563    0.0000 </r>
       <r>   37.5108    0.0000 </r>
       <r>   37.5108    0.0000 </r>
       <r>   37.9402    0.0000 </r>
       <r>   37.9402    0.0000 </r>
       <r>   37.9402    0.0000 </r>
       <r>   38.2262    0.0000 </r>
       <r>   38.2631    0.0000 </r>
       <r>   38.2631    0.0000 </r>
       <r>   38.2631    0.0000 </r>
       <r>   39.7662    0.0000 </r>
       <r>   39.7662    0.0000 </r>
       <r>   39.7662    0.0000 </r>
       <r>   40.6996    0.0000 </r>
       <r>   40.6996    0.0000 </r>
       <r>   40.9015    0.0000 </r>
       <r>   41.5184    0.0000 </r>
       <r>   41.7324    0.0000 </r>
       <r>   41.7324    0.0000 </r>
       <r>   41.7324    0.0000 </r>
       <r>   41.8496    0.0000 </r>
       <r>   41.8496    0.0000 </r>
       <r>   41.8496    0.0000 </r>
       <r>   42.4819    0.0000 </r>
       <r>   42.4819    0.0000 </r>
       <r>   42.4819    0.0000 </r>
       <r>   45.4687    0.0000 </r>
       <r>   45.4687    0.0000 </r>
       <r>   45.7179    0.0000 </r>
       <r>   45.7179    0.0000 </r>
       <r>   45.7179    0.0000 </r>
       <r>   47.1928    0.0000 </r>
       <r>   47.1933    0.0000 </r>
       <r>   47.1939    0.0000 </r>
      </set>
     </set>
     <set comment="spin 2">
      <set comment="kpoint 1">
       <r>   -6.9289    1.0000 </r>
       <r>   -3.2563    1.0000 </r>
       <r>   -3.2563    1.0000 </r>
       <r>   -2.8916    1.0000 </r>
       <r>   -2.8916    1.0000 </r>
       <r>   -2.8916    1.0000 </r>
       <r>    1.2205    1.0000 </r>
       <r>    1.6930    1.0000 </r>
       <r>    1.6930    1.0000 </r>
       <r>    1.6930    1.0000 </r>
       <r>    2.9322    1.0000 </r>
       <r>    2.9322    1.0000 </r>
       <r>    2.9322    1.0000 </r>
[...]
        <r>  0.0000  0.0088  0.0011  0.0037  0.0000  0.0000  0.0000  0.0000  0.0000 </r>
       </set>
       <set comment="band 117">
        <r>  0.0170  0.0002  0.0002  0.0002  0.0000  0.0000  0.0000  0.0000  0.0000 </r>
        <r>  0.0000  0.0000  0.0000  0.0000  0.0000  0.0000  0.0000  0.0000  0.0000 </r>
        <r>  0.0170  0.0002  0.0002  0.0002  0.0000  0.0000  0.0000  0.0000  0.0000 </r>
        <r>  0.0000  0.0000  0.0000  0.0000  0.0000  0.0000  0.0000  0.0000  0.0000 </r>
        <r>  0.0170  0.0002  0.0002  0.0002  0.0000  0.0000  0.0000  0.0000  0.0000 </r>
        <r>  0.0000  0.0000  0.0000  0.0000  0.0000  0.0000  0.0000  0.0000  0.0000 </r>
        <r>  0.0170  0.0002  0.0002  0.0002  0.0000  0.0000  0.0000  0.0000  0.0000 </r>
       </set>
       <set comment="band 118">
        <r>  0.0004  0.0002  0.0000  0.0000  0.0000  0.0000  0.0000  0.0000  0.0000 </r>
        <r>  0.0032  0.0002  0.0000  0.0012  0.0000  0.0000  0.0000  0.0000  0.0000 </r>
        <r>  0.0021  0.0002  0.0000  0.0000  0.0000  0.0000  0.0000  0.0000  0.0000 </r>
        <r>  0.0164  0.0000  0.0002  0.0002  0.0000  0.0000  0.0000  0.0000  0.0000 </r>
        <r>  0.0038  0.0002  0.0000  0.0000  0.0000  0.0000  0.0000  0.0000  0.0000 </r>
        <r>  0.0027  0.0002  0.0012  0.0000  0.0000  0.0000  0.0000  0.0000  0.0000 </r>
        <r>  0.0028  0.0002  0.0000  0.0000  0.0000  0.0000  0.0000  0.0000  0.0000 </r>
       </set>
       <set comment="band 119">
        <r>  0.0036  0.0000  0.0000  0.0003  0.0000  0.0000  0.0000  0.0000  0.0000 </r>
        <r>  0.0010  0.0014  0.0000  0.0001  0.0000  0.0000  0.0000  0.0000  0.0000 </r>
        <r>  0.0009  0.0000  0.0000  0.0002  0.0000  0.0000  0.0000  0.0000  0.0000 </r>
        <r>  0.0020  0.0000  0.0014  0.0001  0.0000  0.0000  0.0000  0.0000  0.0000 </r>
        <r>  0.0021  0.0000  0.0000  0.0002  0.0000  0.0000  0.0000  0.0000  0.0000 </r>
        <r>  0.0194  0.0001  0.0001  0.0000  0.0000  0.0000  0.0000  0.0000  0.0000 </r>
        <r>  0.0025  0.0000  0.0000  0.0002  0.0000  0.0000  0.0000  0.0000  0.0000 </r>
       </set>
       <set comment="band 120">
        <r>  0.0028  0.0001  0.0002  0.0000  0.0000  0.0000  0.0000  0.0000  0.0000 </r>
        <r>  0.0181  0.0000  0.0000  0.0003  0.0000  0.0000  0.0000  0.0000  0.0000 </r>
        <r>  0.0039  0.0001  0.0002  0.0000  0.0000  0.0000  0.0000  0.0000  0.0000 </r>
        <r>  0.0039  0.0000  0.0000  0.0013  0.0000  0.0000  0.0000  0.0000  0.0000 </r>
        <r>  0.0008  0.0000  0.0002  0.0000  0.0000  0.0000  0.0000  0.0000  0.0000 </r>
        <r>  0.0002  0.0013  0.0003  0.0000  0.0000  0.0000  0.0000  0.0000  0.0000 </r>
        <r>  0.0015  0.0000  0.0002  0.0000  0.0000  0.0000  0.0000  0.0000  0.0000 </r>
       </set>
       <set comment="band 121">
        <r>  0.0159  0.0030  0.0027  0.0035  0.0000  0.0000  0.0000  0.0000  0.0000 </r>
        <r>  0.0027  0.0008  0.0000  0.0036  0.0000  0.0000  0.0000  0.0000  0.0000 </r>
        <r>  0.0213  0.0042  0.0037  0.0045  0.0000  0.0000  0.0000  0.0000  0.0000 </r>
        <r>  0.0007  0.0000  0.0008  0.0135  0.0000  0.0000  0.0000  0.0000  0.0000 </r>
        <r>  0.0016  0.0004  0.0001  0.0004  0.0000  0.0000  0.0000  0.0000  0.0000 </r>
        <r>  0.0002  0.0135  0.0036  0.0000  0.0000  0.0000  0.0000  0.0000  0.0000 </r>
        <r>  0.0064  0.0015  0.0010  0.0013  0.0000  0.0000  0.0000  0.0000  0.0000 </r>
       </set>
       <set comment="band 122">
        <r>  0.0163  0.0034  0.0034  0.0027  0.0000  0.0000  0.0000  0.0000  0.0000 </r>
        <r>  0.0003  0.0156  0.0000  0.0007  0.0000  0.0000  0.0000  0.0000  0.0000 </r>
        <r>  0.0054  0.0013  0.0012  0.0007  0.0000  0.0000  0.0000  0.0000  0.0000 </r>
        <r>  0.0001  0.0000  0.0156  0.0017  0.0000  0.0000  0.0000  0.0000  0.0000 </r>
        <r>  0.0110  0.0024  0.0022  0.0018  0.0000  0.0000  0.0000  0.0000  0.0000 </r>
        <r>  0.0031  0.0017  0.0007  0.0000  0.0000  0.0000  0.0000  0.0000  0.0000 </r>
        <r>  0.0125  0.0025  0.0027  0.0020  0.0000  0.0000  0.0000  0.0000  0.0000 </r>
       </set>
       <set comment="band 123">
        <r>  0.0016  0.0001  0.0005  0.0004  0.0000  0.0000  0.0000  0.0000  0.0000 </r>
        <r>  0.0005  0.0015  0.0000  0.0137  0.0000  0.0000  0.0000  0.0000  0.0000 </r>
        <r>  0.0072  0.0011  0.0017  0.0014  0.0000  0.0000  0.0000  0.0000  0.0000 </r>
        <r>  0.0027  0.0000  0.0015  0.0027  0.0000  0.0000  0.0000  0.0000  0.0000 </r>
        <r>  0.0213  0.0037  0.0042  0.0044  0.0000  0.0000  0.0000  0.0000  0.0000 </r>
        <r>  0.0003  0.0027  0.0137  0.0000  0.0000  0.0000  0.0000  0.0000  0.0000 </r>
        <r>  0.0150  0.0025  0.0029  0.0033  0.0000  0.0000  0.0000  0.0000  0.0000 </r>
       </set>
       <set comment="band 124">
        <r>  0.0000  0.0035  0.0068  0.0021  0.0000  0.0000  0.0000  0.0000  0.0000 </r>
        <r>  0.0000  0.0000  0.0071  0.0000  0.0000  0.0000  0.0000  0.0000  0.0000 </r>
        <r>  0.0000  0.0035  0.0068  0.0021  0.0000  0.0000  0.0000  0.0000  0.0000 </r>
        <r>  0.0000  0.0037  0.0000  0.0000  0.0000  0.0000  0.0000  0.0000  0.0000 </r>
        <r>  0.0000  0.0035  0.0068  0.0021  0.0000  0.0000  0.0000  0.0000  0.0000 </r>
        <r>  0.0000  0.0000  0.0000  0.0022  0.0000  0.0000  0.0000  0.0000  0.0000 </r>
        <r>  0.0000  0.0035  0.0068  0.0021  0.0000  0.0000  0.0000  0.0000  0.0000 </r>
       </set>
       <set comment="band 125">
        <r>  0.0000  0.0048  0.0015  0.0062  0.0000  0.0000  0.0000  0.0000  0.0000 </r>
        <r>  0.0000  0.0000  0.0015  0.0000  0.0000  0.0000  0.0000  0.0000  0.0000 </r>
        <r>  0.0000  0.0048  0.0015  0.0062  0.0000  0.0000  0.0000  0.0000  0.0000 </r>
        <r>  0.0000  0.0050  0.0000  0.0000  0.0000  0.0000  0.0000  0.0000  0.0000 </r>
        <r>  0.0000  0.0048  0.0015  0.0062  0.0000  0.0000  0.0000  0.0000  0.0000 </r>
        <r>  0.0000  0.0000  0.0000  0.0065  0.0000  0.0000  0.0000  0.0000  0.0000 </r>
        <r>  0.0000  0.0048  0.0015  0.0062  0.0000  0.0000  0.0000  0.0000  0.0000 </r>
       </set>
       <set comment="band 126">
        <r>  0.0000  0.0000  0.0000  0.0000  0.0000  0.0000  0.0000  0.0000  0.0000 </r>
        <r>  0.0000  0.0000  0.0000  0.0000  0.0000  0.0000  0.0000  0.0000  0.0000 </r>
        <r>  0.0000  0.0000  0.0000  0.0000  0.0000  0.0000  0.0000  0.0000  0.0000 </r>
        <r>  0.0000  0.0000  0.0000  0.0000  0.0000  0.0000  0.0000  0.0000  0.0000 </r>
        <r>  0.0000  0.0000  0.0000  0.0000  0.0000  0.0000  0.0000  0.0000  0.0000 </r>
        <r>  0.0000  0.0000  0.0000  0.0000  0.0000  0.0000  0.0000  0.0000  0.0000 </r>
        <r>  0.0000  0.0000  0.0000  0.0000  0.0000  0.0000  0.0000  0.0000  0.0000 </r>
       </set>
       <set comment="band 127">
        <r>  0.0055  0.0025  0.0025  0.0025  0.0000  0.0000  0.0000  0.0000  0.0000 </r>
        <r>  0.0000  0.0000  0.0047  0.0000  0.0000  0.0000  0.0000  0.0000  0.0000 </r>
        <r>  0.0055  0.0025  0.0025  0.0025  0.0000  0.0000  0.0000  0.0000  0.0000 </r>
        <r>  0.0000  0.0047  0.0000  0.0000  0.0000  0.0000  0.0000  0.0000  0.0000 </r>
        <r>  0.0055  0.0025  0.0025  0.0025  0.0000  0.0000  0.0000  0.0000  0.0000 </r>
        <r>  0.0000  0.0000  0.0000  0.0047  0.0000  0.0000  0.0000  0.0000  0.0000 </r>
        <r>  0.0055  0.0025  0.0025  0.0025  0.0000  0.0000  0.0000  0.0000  0.0000 </r>
       </set>
       <set comment="band 128">
        <r>  0.0000  0.0045  0.0017  0.0005  0.0000  0.0000  0.0000  0.0000  0.0000 </r>
        <r>  0.0113  0.0001  0.0000  0.0011  0.0000  0.0000  0.0000  0.0000  0.0000 </r>
        <r>  0.0001  0.0040  0.0020  0.0002  0.0000  0.0000  0.0000  0.0000  0.0000 </r>
        <r>  0.0358  0.0000  0.0001  0.0004  0.0000  0.0000  0.0000  0.0000  0.0000 </r>
        <r>  0.0006  0.0028  0.0006  0.0002  0.0000  0.0000  0.0000  0.0000  0.0000 </r>
        <r>  0.0036  0.0004  0.0011  0.0000  0.0000  0.0000  0.0000  0.0000  0.0000 </r>
        <r>  0.0003  0.0033  0.0007  0.0009  0.0000  0.0000  0.0000  0.0000  0.0000 </r>
       </set>
       <set comment="band 129">
        <r>  0.0003  0.0001  0.0004  0.0045  0.0000  0.0000  0.0000  0.0000  0.0000 </r>
        <r>  0.0016  0.0015  0.0000  0.0001  0.0000  0.0000  0.0000  0.0000  0.0000 </r>
        <r>  0.0002  0.0007  0.0002  0.0050  0.0000  0.0000  0.0000  0.0000  0.0000 </r>
        <r>  0.0024  0.0000  0.0015  0.0001  0.0000  0.0000  0.0000  0.0000  0.0000 </r>
        <r>  0.0002  0.0006  0.0002  0.0051  0.0000  0.0000  0.0000  0.0000  0.0000 </r>
        <r>  0.0467  0.0001  0.0001  0.0000  0.0000  0.0000  0.0000  0.0000  0.0000 </r>
        <r>  0.0004  0.0000  0.0002  0.0044  0.0000  0.0000  0.0000  0.0000  0.0000 </r>
       </set>
       <set comment="band 130">
        <r>  0.0004  0.0007  0.0033  0.0003  0.0000  0.0000  0.0000  0.0000  0.0000 </r>
        <r>  0.0378  0.0000  0.0000  0.0004  0.0000  0.0000  0.0000  0.0000  0.0000 </r>
        <r>  0.0005  0.0007  0.0032  0.0002  0.0000  0.0000  0.0000  0.0000  0.0000 </r>
        <r>  0.0125  0.0000  0.0000  0.0012  0.0000  0.0000  0.0000  0.0000  0.0000 </r>
        <r>  0.0000  0.0020  0.0045  0.0001  0.0000  0.0000  0.0000  0.0000  0.0000 </r>
        <r>  0.0004  0.0012  0.0004  0.0000  0.0000  0.0000  0.0000  0.0000  0.0000 </r>
        <r>  0.0001  0.0020  0.0044  0.0000  0.0000  0.0000  0.0000  0.0000  0.0000 </r>
       </set>
       <set comment="band 131">
        <r>  0.0000  0.0003  0.0002  0.0009  0.0000  0.0000  0.0000  0.0000  0.0000 </r>
        <r>  0.0000  0.0000  0.0000  0.0000  0.0000  0.0000  0.0000  0.0000  0.0000 </r>
        <r>  0.0000  0.0007  0.0001  0.0009  0.0000  0.0000  0.0000  0.0000  0.0000 </r>
        <r>  0.0000  0.0000  0.0000  0.0001  0.0000  0.0000  0.0000  0.0000  0.0000 </r>
        <r>  0.0000  0.0003  0.0001  0.0002  0.0000  0.0000  0.0000  0.0000  0.0000 </r>
        <r>  0.0000  0.0001  0.0000  0.0000  0.0000  0.0000  0.0000  0.0000  0.0000 </r>
        <r>  0.0000  0.0007  0.0002  0.0002  0.0000  0.0000  0.0000  0.0000  0.0000 </r>
       </set>
       <set comment="band 132">
        <r>  0.0000  0.0007  0.0010  0.0000  0.0000  0.0000  0.0000  0.0000  0.0000 </r>
        <r>  0.0000  0.0001  0.0000  0.0000  0.0000  0.0000  0.0000  0.0000  0.0000 </r>
        <r>  0.0000  0.0002  0.0001  0.0000  0.0000  0.0000  0.0000  0.0000  0.0000 </r>
        <r>  0.0000  0.0000  0.0001  0.0000  0.0000  0.0000  0.0000  0.0000  0.0000 </r>
        <r>  0.0000  0.0007  0.0001  0.0004  0.0000  0.0000  0.0000  0.0000  0.0000 </r>
        <r>  0.0000  0.0000  0.0000  0.0000  0.0000  0.0000  0.0000  0.0000  0.0000 </r>
        <r>  0.0000  0.0002  0.0010  0.0004  0.0000  0.0000  0.0000  0.0000  0.0000 </r>
       </set>
       <set comment="band 133">
        <r>  0.0000  0.0002  0.0000  0.0003  0.0000  0.0000  0.0000  0.0000  0.0000 </r>
        <r>  0.0000  0.0000  0.0000  0.0000  0.0000  0.0000  0.0000  0.0000  0.0000 </r>
        <r>  0.0000  0.0003  0.0010  0.0003  0.0000  0.0000  0.0000  0.0000  0.0000 </r>
        <r>  0.0000  0.0000  0.0000  0.0000  0.0000  0.0000  0.0000  0.0000  0.0000 </r>
        <r>  0.0000  0.0002  0.0010  0.0006  0.0000  0.0000  0.0000  0.0000  0.0000 </r>
        <r>  0.0000  0.0000  0.0000  0.0000  0.0000  0.0000  0.0000  0.0000  0.0000 </r>
        <r>  0.0000  0.0003  0.0000  0.0006  0.0000  0.0000  0.0000  0.0000  0.0000 </r>
       </set>
       <set comment="band 134">
        <r>  0.0280  0.0002  0.0002  0.0003  0.0000  0.0000  0.0000  0.0000  0.0000 </r>
        <r>  0.0039  0.0000  0.0000  0.0000  0.0000  0.0000  0.0000  0.0000  0.0000 </r>
        <r>  0.0304  0.0003  0.0002  0.0003  0.0000  0.0000  0.0000  0.0000  0.0000 </r>
        <r>  0.0011  0.0000  0.0000  0.0001  0.0000  0.0000  0.0000  0.0000  0.0000 </r>
        <r>  0.0028  0.0001  0.0000  0.0000  0.0000  0.0000  0.0000  0.0000  0.0000 </r>
        <r>  0.0001  0.0001  0.0000  0.0000  0.0000  0.0000  0.0000  0.0000  0.0000 </r>
        <r>  0.0056  0.0001  0.0000  0.0001  0.0000  0.0000  0.0000  0.0000  0.0000 </r>
       </set>
       <set comment="band 135">
        <r>  0.0210  0.0002  0.0002  0.0001  0.0000  0.0000  0.0000  0.0000  0.0000 </r>
        <r>  0.0002  0.0001  0.0000  0.0000  0.0000  0.0000  0.0000  0.0000  0.0000 </r>
        <r>  0.0105  0.0001  0.0001  0.0000  0.0000  0.0000  0.0000  0.0000  0.0000 </r>
        <r>  0.0002  0.0000  0.0001  0.0000  0.0000  0.0000  0.0000  0.0000  0.0000 </r>
        <r>  0.0117  0.0001  0.0001  0.0001  0.0000  0.0000  0.0000  0.0000  0.0000 </r>
        <r>  0.0046  0.0000  0.0000  0.0000  0.0000  0.0000  0.0000  0.0000  0.0000 </r>
        <r>  0.0235  0.0002  0.0003  0.0001  0.0000  0.0000  0.0000  0.0000  0.0000 </r>
       </set>
       <set comment="band 136">
        <r>  0.0011  0.0000  0.0000  0.0000  0.0000  0.0000  0.0000  0.0000  0.0000 </r>
        <r>  0.0010  0.0000  0.0000  0.0001  0.0000  0.0000  0.0000  0.0000  0.0000 </r>
        <r>  0.0092  0.0000  0.0001  0.0001  0.0000  0.0000  0.0000  0.0000  0.0000 </r>
        <r>  0.0037  0.0000  0.0000  0.0000  0.0000  0.0000  0.0000  0.0000  0.0000 </r>
        <r>  0.0355  0.0003  0.0003  0.0004  0.0000  0.0000  0.0000  0.0000  0.0000 </r>
        <r>  0.0004  0.0000  0.0001  0.0000  0.0000  0.0000  0.0000  0.0000  0.0000 </r>
        <r>  0.0210  0.0001  0.0002  0.0003  0.0000  0.0000  0.0000  0.0000  0.0000 </r>
       </set>
       <set comment="band 137">
        <r>  0.0000  0.0004  0.0004  0.0003  0.0000  0.0000  0.0000  0.0000  0.0000 </r>
        <r>  0.0000  0.0000  0.0002  0.0000  0.0000  0.0000  0.0000  0.0000  0.0000 </r>
        <r>  0.0000  0.0004  0.0004  0.0003  0.0000  0.0000  0.0000  0.0000  0.0000 </r>
        <r>  0.0000  0.0002  0.0000  0.0000  0.0000  0.0000  0.0000  0.0000  0.0000 </r>
        <r>  0.0000  0.0004  0.0004  0.0003  0.0000  0.0000  0.0000  0.0000  0.0000 </r>
        <r>  0.0000  0.0000  0.0000  0.0002  0.0000  0.0000  0.0000  0.0000  0.0000 </r>
        <r>  0.0000  0.0004  0.0004  0.0003  0.0000  0.0000  0.0000  0.0000  0.0000 </r>
       </set>
       <set comment="band 138">
        <r>  0.0000  0.0004  0.0003  0.0004  0.0000  0.0000  0.0000  0.0000  0.0000 </r>
        <r>  0.0000  0.0000  0.0002  0.0000  0.0000  0.0000  0.0000  0.0000  0.0000 </r>
        <r>  0.0000  0.0004  0.0003  0.0004  0.0000  0.0000  0.0000  0.0000  0.0000 </r>
        <r>  0.0000  0.0002  0.0000  0.0000  0.0000  0.0000  0.0000  0.0000  0.0000 </r>
        <r>  0.0000  0.0004  0.0003  0.0004  0.0000  0.0000  0.0000  0.0000  0.0000 </r>
        <r>  0.0000  0.0000  0.0000  0.0002  0.0000  0.0000  0.0000  0.0000  0.0000 </r>
        <r>  0.0000  0.0004  0.0003  0.0004  0.0000  0.0000  0.0000  0.0000  0.0000 </r>
       </set>
       <set comment="band 139">
        <r>  0.0000  0.0001  0.0000  0.0000  0.0000  0.0000  0.0000  0.0000  0.0000 </r>
        <r>  0.0000  0.0001  0.0000  0.0001  0.0000  0.0000  0.0000  0.0000  0.0000 </r>
        <r>  0.0000  0.0000  0.0002  0.0000  0.0000  0.0000  0.0000  0.0000  0.0000 </r>
        <r>  0.0000  0.0000  0.0001  0.0000  0.0000  0.0000  0.0000  0.0000  0.0000 </r>
        <r>  0.0000  0.0001  0.0002  0.0001  0.0000  0.0000  0.0000  0.0000  0.0000 </r>
        <r>  0.0000  0.0000  0.0001  0.0000  0.0000  0.0000  0.0000  0.0000  0.0000 </r>
        <r>  0.0000  0.0000  0.0000  0.0001  0.0000  0.0000  0.0000  0.0000  0.0000 </r>
       </set>
       <set comment="band 140">
        <r>  0.0000  0.0001  0.0002  0.0001  0.0000  0.0000  0.0000  0.0000  0.0000 </r>
        <r>  0.0000  0.0001  0.0000  0.0001  0.0000  0.0000  0.0000  0.0000  0.0000 </r>
        <r>  0.0000  0.0000  0.0000  0.0001  0.0000  0.0000  0.0000  0.0000  0.0000 </r>
        <r>  0.0000  0.0000  0.0001  0.0000  0.0000  0.0000  0.0000  0.0000  0.0000 </r>
        <r>  0.0000  0.0001  0.0000  0.0001  0.0000  0.0000  0.0000  0.0000  0.0000 </r>
        <r>  0.0000  0.0000  0.0001  0.0000  0.0000  0.0000  0.0000  0.0000  0.0000 </r>
        <r>  0.0000  0.0000  0.0002  0.0001  0.0000  0.0000  0.0000  0.0000  0.0000 </r>
       </set>
       <set comment="band 141">
        <r>  0.0000  0.0001  0.0000  0.0001  0.0000  0.0000  0.0000  0.0000  0.0000 </r>
        <r>  0.0000  0.0000  0.0000  0.0000  0.0000  0.0000  0.0000  0.0000  0.0000 </r>
        <r>  0.0000  0.0001  0.0000  0.0001  0.0000  0.0000  0.0000  0.0000  0.0000 </r>
        <r>  0.0000  0.0000  0.0000  0.0002  0.0000  0.0000  0.0000  0.0000  0.0000 </r>
        <r>  0.0000  0.0001  0.0000  0.0001  0.0000  0.0000  0.0000  0.0000  0.0000 </r>
        <r>  0.0000  0.0002  0.0000  0.0000  0.0000  0.0000  0.0000  0.0000  0.0000 </r>
        <r>  0.0000  0.0001  0.0000  0.0001  0.0000  0.0000  0.0000  0.0000  0.0000 </r>
       </set>
       <set comment="band 142">
        <r>  0.0013  0.0003  0.0001  0.0001  0.0000  0.0000  0.0000  0.0000  0.0000 </r>
        <r>  0.0001  0.0000  0.0000  0.0000  0.0000  0.0000  0.0000  0.0000  0.0000 </r>
        <r>  0.0054  0.0003  0.0001  0.0001  0.0000  0.0000  0.0000  0.0000  0.0000 </r>
        <r>  0.0003  0.0000  0.0000  0.0000  0.0000  0.0000  0.0000  0.0000  0.0000 </r>
        <r>  0.0109  0.0002  0.0000  0.0001  0.0000  0.0000  0.0000  0.0000  0.0000 </r>
        <r>  0.0001  0.0000  0.0000  0.0000  0.0000  0.0000  0.0000  0.0000  0.0000 </r>
        <r>  0.0091  0.0002  0.0000  0.0001  0.0000  0.0000  0.0000  0.0000  0.0000 </r>
       </set>
       <set comment="band 143">
        <r>  0.0090  0.0001  0.0001  0.0002  0.0000  0.0000  0.0000  0.0000  0.0000 </r>
        <r>  0.0000  0.0000  0.0000  0.0000  0.0000  0.0000  0.0000  0.0000  0.0000 </r>
        <r>  0.0022  0.0001  0.0001  0.0003  0.0000  0.0000  0.0000  0.0000  0.0000 </r>
        <r>  0.0001  0.0000  0.0000  0.0000  0.0000  0.0000  0.0000  0.0000  0.0000 </r>
        <r>  0.0077  0.0001  0.0000  0.0003  0.0000  0.0000  0.0000  0.0000  0.0000 </r>
        <r>  0.0003  0.0000  0.0000  0.0000  0.0000  0.0000  0.0000  0.0000  0.0000 </r>
        <r>  0.0075  0.0000  0.0001  0.0003  0.0000  0.0000  0.0000  0.0000  0.0000 </r>
       </set>
       <set comment="band 144">
        <r>  0.0095  0.0000  0.0003  0.0001  0.0000  0.0000  0.0000  0.0000  0.0000 </r>
        <r>  0.0003  0.0000  0.0000  0.0000  0.0000  0.0000  0.0000  0.0000  0.0000 </r>
        <r>  0.0122  0.0000  0.0002  0.0000  0.0000  0.0000  0.0000  0.0000  0.0000 </r>
        <r>  0.0001  0.0000  0.0000  0.0001  0.0000  0.0000  0.0000  0.0000  0.0000 </r>
        <r>  0.0013  0.0001  0.0003  0.0000  0.0000  0.0000  0.0000  0.0000  0.0000 </r>
        <r>  0.0000  0.0000  0.0000  0.0000  0.0000  0.0000  0.0000  0.0000  0.0000 </r>
        <r>  0.0033  0.0001  0.0003  0.0000  0.0000  0.0000  0.0000  0.0000  0.0000 </r>
       </set>
      </set>
     </set>
    </set>
   </array>
  </projected>
 </calculation>
 <structure name="finalpos" >
  <crystal>
   <varray name="basis" >
    <v>       5.43784835       0.00000000       0.00000000 </v>
    <v>       0.00000000       5.43784835       0.00000000 </v>
    <v>       0.00000000       0.00000000       5.43784835 </v>
   </varray>
   <i name="volume">    160.79823434 </i>
   <varray name="rec_basis" >
    <v>       0.18389626       0.00000000       0.00000000 </v>
    <v>       0.00000000       0.18389626       0.00000000 </v>
    <v>       0.00000000       0.00000000       0.18389626 </v>
   </varray>
  </crystal>
  <varray name="positions" >
   <v>       0.25434293       0.74565707       0.25434293 </v>
   <v>       0.00000000       0.00000000       0.50000000 </v>
   <v>       0.25434293       0.25434293       0.74565707 </v>
   <v>       0.00000000       0.50000000       0.00000000 </v>
   <v>       0.74565707       0.74565707       0.74565707 </v>
   <v>       0.50000000       0.00000000       0.00000000 </v>
   <v>       0.74565707       0.25434293       0.25434293 </v>
  </varray>
 </structure>
</modeling>
