   2   2   1   0
  0.2044415E+02  0.3866975E-09  0.3866975E-09  0.3866975E-09  0.5000000E-15
   1.0000000000000000E-004
  CAR
 unknown system
     19.04749737     -8.08227637  301      5.75956028      1.00000000
     -8.082  0.0000E+00  0.0000E+00  0.0000E+00  0.0000E+00
     -7.992  0.0000E+00  0.0000E+00  0.0000E+00  0.0000E+00
     -7.901  0.0000E+00  0.0000E+00  0.0000E+00  0.0000E+00
     -7.811  0.0000E+00  0.0000E+00  0.0000E+00  0.0000E+00
     -7.721  0.0000E+00  0.0000E+00  0.0000E+00  0.0000E+00
     -7.630  0.0000E+00  0.0000E+00  0.0000E+00  0.0000E+00
     -7.540  0.0000E+00  0.0000E+00  0.0000E+00  0.0000E+00
     -7.449  0.0000E+00  0.0000E+00  0.0000E+00  0.0000E+00
     -7.359  0.0000E+00  0.0000E+00  0.0000E+00  0.0000E+00
     -7.268  0.0000E+00  0.0000E+00  0.0000E+00  0.0000E+00
     -7.178  0.0000E+00  0.0000E+00  0.0000E+00  0.0000E+00
     -7.088  0.2495E-12  0.2456E-12  0.2256E-13  0.2221E-13
     -6.997  0.4586E-06  0.4540E-06  0.4147E-07  0.4106E-07
     -6.907  0.1669E-02  0.1661E-02  0.1510E-03  0.1503E-03
     -6.816  0.2489E-01  0.2488E-01  0.2402E-02  0.2400E-02
     -6.726  0.5673E-02  0.5693E-02  0.2915E-02  0.2915E-02
     -6.635  0.1062E-01  0.1057E-01  0.3875E-02  0.3871E-02
     -6.545  0.2009E+00  0.2007E+00  0.2204E-01  0.2202E-01
     -6.454  0.1955E+00  0.1955E+00  0.3972E-01  0.3971E-01
     -6.364  0.4427E-01  0.4439E-01  0.4372E-01  0.4372E-01
     -6.274  0.9716E-04  0.9784E-04  0.4373E-01  0.4373E-01
     -6.183  0.1687E-01  0.1680E-01  0.4526E-01  0.4525E-01
     -6.093  0.2933E+00  0.2931E+00  0.7178E-01  0.7176E-01
     -6.002  0.7662E-01  0.7683E-01  0.7871E-01  0.7871E-01
     -5.912  0.3724E-01  0.3710E-01  0.8207E-01  0.8206E-01
     -5.821  0.6265E+00  0.6262E+00  0.1387E+00  0.1387E+00
     -5.731  0.3484E+00  0.3488E+00  0.1702E+00  0.1702E+00
     -5.641  0.1964E-01  0.1971E-01  0.1720E+00  0.1720E+00
     -5.550  0.9186E-05  0.9242E-05  0.1720E+00  0.1720E+00
     -5.460  0.5684E-02  0.5663E-02  0.1725E+00  0.1725E+00
     -5.369  0.1390E+00  0.1389E+00  0.1851E+00  0.1851E+00
     -5.279  0.5405E-01  0.5413E-01  0.1900E+00  0.1900E+00
     -5.188  0.4130E+00  0.4126E+00  0.2273E+00  0.2273E+00
     -5.098  0.5491E+00  0.5492E+00  0.2770E+00  0.2770E+00
     -5.008  0.5577E+00  0.5580E+00  0.3274E+00  0.3274E+00
     -4.917  0.2353E-01  0.2360E-01  0.3295E+00  0.3295E+00
     -4.827  0.2610E+00  0.2607E+00  0.3532E+00  0.3531E+00
     -4.736  0.5604E+00  0.5606E+00  0.4038E+00  0.4038E+00
     -4.646  0.2007E+00  0.2008E+00  0.4220E+00  0.4220E+00
     -4.555  0.1094E-01  0.1095E-01  0.4230E+00  0.4230E+00
     -4.465  0.3343E+00  0.3340E+00  0.4532E+00  0.4532E+00
     -4.375  0.4305E+00  0.4308E+00  0.4921E+00  0.4921E+00
     -4.284  0.8679E-01  0.8672E-01  0.5000E+00  0.5000E+00
     -4.194  0.7784E+00  0.7782E+00  0.5704E+00  0.5704E+00
     -4.103  0.3008E+00  0.3010E+00  0.5976E+00  0.5976E+00
     -4.013  0.5528E+00  0.5524E+00  0.6476E+00  0.6475E+00
     -3.922  0.9737E+00  0.9740E+00  0.7356E+00  0.7356E+00
     -3.832  0.2206E-01  0.2210E-01  0.7376E+00  0.7376E+00
     -3.742  0.6100E-03  0.6086E-03  0.7377E+00  0.7377E+00
     -3.651  0.8276E-01  0.8271E-01  0.7451E+00  0.7451E+00
     -3.561  0.1844E+00  0.1844E+00  0.7618E+00  0.7618E+00
     -3.470  0.7455E+00  0.7454E+00  0.8292E+00  0.8292E+00
     -3.380  0.6829E+00  0.6830E+00  0.8910E+00  0.8910E+00
     -3.289  0.4474E-01  0.4478E-01  0.8950E+00  0.8950E+00
     -3.199  0.1394E-04  0.1397E-04  0.8950E+00  0.8950E+00
     -3.108  0.2334E-03  0.2334E-03  0.8951E+00  0.8951E+00
     -3.018  0.1480E+00  0.1480E+00  0.9084E+00  0.9084E+00
     -2.928  0.5900E+00  0.5900E+00  0.9618E+00  0.9618E+00
     -2.837  0.3554E-01  0.3554E-01  0.9650E+00  0.9650E+00
     -2.747  0.3539E-02  0.3540E-02  0.9653E+00  0.9653E+00
     -2.656  0.2202E+00  0.2202E+00  0.9852E+00  0.9852E+00
     -2.566  0.1620E+00  0.1620E+00  0.9999E+00  0.9999E+00
     -2.475  0.1305E-02  0.1305E-02  0.1000E+01  0.1000E+01
     -2.385  0.8548E-01  0.8547E-01  0.1008E+01  0.1008E+01
     -2.295  0.2870E+00  0.2870E+00  0.1034E+01  0.1034E+01
     -2.204  0.1420E-01  0.1420E-01  0.1035E+01  0.1035E+01
     -2.114  0.2656E-05  0.2656E-05  0.1035E+01  0.1035E+01
     -2.023  0.3103E-05  0.3107E-05  0.1035E+01  0.1035E+01
     -1.933  0.2187E-01  0.2189E-01  0.1037E+01  0.1037E+01
     -1.842  0.5526E+00  0.5527E+00  0.1087E+01  0.1087E+01
     -1.752  0.1987E+00  0.1987E+00  0.1105E+01  0.1105E+01
     -1.662  0.8193E-03  0.8187E-03  0.1105E+01  0.1105E+01
     -1.571  0.1688E+00  0.1688E+00  0.1120E+01  0.1120E+01
     -1.481  0.1156E+01  0.1155E+01  0.1225E+01  0.1225E+01
     -1.390  0.1006E+01  0.1006E+01  0.1316E+01  0.1316E+01
     -1.300  0.1938E+00  0.1937E+00  0.1333E+01  0.1333E+01
     -1.209  0.2152E+00  0.2152E+00  0.1353E+01  0.1353E+01
     -1.119  0.6610E+00  0.6611E+00  0.1412E+01  0.1412E+01
     -1.029  0.9040E+00  0.9040E+00  0.1494E+01  0.1494E+01
     -0.938  0.1577E-01  0.1577E-01  0.1496E+01  0.1496E+01
     -0.848  0.3840E-02  0.3845E-02  0.1496E+01  0.1496E+01
     -0.757  0.2246E+00  0.2246E+00  0.1516E+01  0.1516E+01
     -0.667  0.1720E+00  0.1719E+00  0.1532E+01  0.1532E+01
     -0.576  0.5159E+00  0.5158E+00  0.1578E+01  0.1578E+01
     -0.486  0.2433E+00  0.2435E+00  0.1600E+01  0.1600E+01
     -0.396  0.1687E-01  0.1691E-01  0.1602E+01  0.1602E+01
     -0.305  0.5235E+00  0.5238E+00  0.1649E+01  0.1649E+01
     -0.215  0.2334E+00  0.2332E+00  0.1670E+01  0.1670E+01
     -0.124  0.8163E-03  0.8135E-03  0.1671E+01  0.1671E+01
     -0.034  0.1990E-04  0.1991E-04  0.1671E+01  0.1671E+01
      0.057  0.5256E-01  0.5257E-01  0.1675E+01  0.1675E+01
      0.147  0.6105E+00  0.6105E+00  0.1731E+01  0.1731E+01
      0.238  0.1106E+00  0.1106E+00  0.1741E+01  0.1741E+01
      0.328  0.1233E-03  0.1233E-03  0.1741E+01  0.1741E+01
      0.418  0.4043E-01  0.4054E-01  0.1744E+01  0.1744E+01
      0.509  0.5979E+00  0.5980E+00  0.1798E+01  0.1798E+01
      0.599  0.1352E+00  0.1350E+00  0.1810E+01  0.1810E+01
      0.690  0.1859E-03  0.1850E-03  0.1810E+01  0.1810E+01
      0.780  0.5812E-02  0.5815E-02  0.1811E+01  0.1811E+01
      0.871  0.1773E+00  0.1774E+00  0.1827E+01  0.1827E+01
      0.961  0.7451E-01  0.7449E-01  0.1834E+01  0.1834E+01
      1.051  0.2523E-03  0.2520E-03  0.1834E+01  0.1834E+01
      1.142  0.4281E-01  0.4265E-01  0.1838E+01  0.1838E+01
      1.232  0.6907E+00  0.6905E+00  0.1900E+01  0.1900E+01
      1.323  0.6161E+00  0.6159E+00  0.1956E+01  0.1956E+01
      1.413  0.7014E+00  0.7016E+00  0.2019E+01  0.2019E+01
      1.504  0.7676E-01  0.7696E-01  0.2026E+01  0.2026E+01
      1.594  0.1533E-01  0.1538E-01  0.2028E+01  0.2028E+01
      1.684  0.5500E+00  0.5503E+00  0.2077E+01  0.2077E+01
      1.775  0.1485E+01  0.1484E+01  0.2212E+01  0.2212E+01
      1.865  0.1225E+01  0.1226E+01  0.2322E+01  0.2322E+01
      1.956  0.2059E+00  0.2062E+00  0.2341E+01  0.2341E+01
      2.046  0.5425E-03  0.5442E-03  0.2341E+01  0.2341E+01
      2.137  0.1982E-03  0.1979E-03  0.2341E+01  0.2341E+01
      2.227  0.1445E+00  0.1444E+00  0.2354E+01  0.2354E+01
      2.317  0.1353E+01  0.1353E+01  0.2477E+01  0.2477E+01
      2.408  0.1887E+01  0.1887E+01  0.2647E+01  0.2647E+01
      2.498  0.9674E-01  0.9680E-01  0.2656E+01  0.2656E+01
      2.589  0.9587E-02  0.9605E-02  0.2657E+01  0.2657E+01
      2.679  0.3152E+00  0.3153E+00  0.2685E+01  0.2685E+01
      2.770  0.6021E+00  0.6021E+00  0.2740E+01  0.2740E+01
      2.860  0.1264E+01  0.1264E+01  0.2854E+01  0.2854E+01
      2.950  0.1333E+00  0.1331E+00  0.2866E+01  0.2866E+01
      3.041  0.3585E+00  0.3589E+00  0.2899E+01  0.2899E+01
      3.131  0.1074E+01  0.1075E+01  0.2996E+01  0.2996E+01
      3.222  0.1569E+01  0.1570E+01  0.3138E+01  0.3138E+01
      3.312  0.1025E+01  0.1024E+01  0.3230E+01  0.3230E+01
      3.403  0.2229E+00  0.2227E+00  0.3250E+01  0.3250E+01
      3.493  0.8561E-01  0.8574E-01  0.3258E+01  0.3258E+01
      3.584  0.4837E+00  0.4838E+00  0.3302E+01  0.3302E+01
      3.674  0.3540E+00  0.3544E+00  0.3334E+01  0.3334E+01
      3.764  0.1016E+01  0.1017E+01  0.3426E+01  0.3426E+01
      3.855  0.7017E+00  0.7010E+00  0.3489E+01  0.3489E+01
      3.945  0.1042E+01  0.1044E+01  0.3584E+01  0.3584E+01
      4.036  0.1382E+01  0.1380E+01  0.3709E+01  0.3709E+01
      4.126  0.3135E-01  0.3115E-01  0.3711E+01  0.3711E+01
      4.217  0.1448E-02  0.1465E-02  0.3712E+01  0.3712E+01
      4.307  0.2131E+00  0.2139E+00  0.3731E+01  0.3731E+01
      4.397  0.2990E+00  0.2983E+00  0.3758E+01  0.3758E+01
      4.488  0.3934E+00  0.3948E+00  0.3793E+01  0.3794E+01
      4.578  0.7980E+00  0.7972E+00  0.3866E+01  0.3866E+01
      4.669  0.4457E+00  0.4454E+00  0.3906E+01  0.3906E+01
      4.759  0.4158E-01  0.4126E-01  0.3910E+01  0.3910E+01
      4.850  0.1944E-04  0.1910E-04  0.3910E+01  0.3910E+01
      4.940  0.3213E-06  0.3305E-06  0.3910E+01  0.3910E+01
      5.030  0.5008E-02  0.5082E-02  0.3910E+01  0.3910E+01
      5.121  0.3086E+00  0.3100E+00  0.3938E+01  0.3938E+01
      5.211  0.5515E+00  0.5505E+00  0.3988E+01  0.3988E+01
      5.302  0.3750E-01  0.3711E-01  0.3991E+01  0.3991E+01
      5.392  0.1966E-04  0.1947E-04  0.3991E+01  0.3991E+01
      5.483  0.8886E-02  0.8998E-02  0.3992E+01  0.3992E+01
      5.573  0.7723E-01  0.7724E-01  0.3999E+01  0.3999E+01
      5.663  0.1059E-01  0.1046E-01  0.4000E+01  0.4000E+01
      5.754  0.7384E-05  0.7179E-05  0.4000E+01  0.4000E+01
      5.844  0.1079E-10  0.1031E-10  0.4000E+01  0.4000E+01
      5.935  0.0000E+00  0.0000E+00  0.4000E+01  0.4000E+01
      6.025  0.0000E+00  0.0000E+00  0.4000E+01  0.4000E+01
      6.116  0.2865E-10  0.2777E-10  0.4000E+01  0.4000E+01
      6.206  0.1759E-04  0.1725E-04  0.4000E+01  0.4000E+01
      6.297  0.2281E-01  0.2262E-01  0.4002E+01  0.4002E+01
      6.387  0.1542E+00  0.1542E+00  0.4016E+01  0.4016E+01
      6.477  0.1642E-01  0.1656E-01  0.4017E+01  0.4017E+01
      6.568  0.2792E-02  0.2755E-02  0.4018E+01  0.4018E+01
      6.658  0.2531E+00  0.2520E+00  0.4041E+01  0.4041E+01
      6.749  0.3170E+00  0.3180E+00  0.4069E+01  0.4069E+01
      6.839  0.2900E-01  0.2892E-01  0.4072E+01  0.4072E+01
      6.930  0.2019E+00  0.2015E+00  0.4090E+01  0.4090E+01
      7.020  0.6236E+00  0.6234E+00  0.4147E+01  0.4146E+01
      7.110  0.1200E+00  0.1209E+00  0.4157E+01  0.4157E+01
      7.201  0.9593E-01  0.9520E-01  0.4166E+01  0.4166E+01
      7.291  0.6178E+00  0.6179E+00  0.4222E+01  0.4222E+01
      7.382  0.2057E+00  0.2060E+00  0.4241E+01  0.4241E+01
      7.472  0.1114E+00  0.1117E+00  0.4251E+01  0.4251E+01
      7.563  0.1207E-01  0.1195E-01  0.4252E+01  0.4252E+01
      7.653  0.1749E+00  0.1746E+00  0.4268E+01  0.4268E+01
      7.743  0.2417E+00  0.2419E+00  0.4289E+01  0.4289E+01
      7.834  0.5083E+00  0.5068E+00  0.4335E+01  0.4335E+01
      7.924  0.1200E+01  0.1200E+01  0.4444E+01  0.4444E+01
      8.015  0.1365E+01  0.1365E+01  0.4567E+01  0.4567E+01
      8.105  0.7973E+00  0.7989E+00  0.4639E+01  0.4639E+01
      8.196  0.9375E-01  0.9355E-01  0.4648E+01  0.4648E+01
      8.286  0.2536E+00  0.2535E+00  0.4671E+01  0.4671E+01
      8.376  0.8245E+00  0.8230E+00  0.4745E+01  0.4745E+01
      8.467  0.1475E+01  0.1475E+01  0.4879E+01  0.4879E+01
      8.557  0.1376E+01  0.1376E+01  0.5003E+01  0.5003E+01
      8.648  0.4144E+00  0.4158E+00  0.5041E+01  0.5041E+01
      8.738  0.7682E-02  0.7615E-02  0.5041E+01  0.5041E+01
      8.829  0.5377E+00  0.5355E+00  0.5090E+01  0.5090E+01
      8.919  0.1692E+01  0.1694E+01  0.5243E+01  0.5243E+01
      9.009  0.2751E+00  0.2756E+00  0.5268E+01  0.5268E+01
      9.100  0.3197E+00  0.3198E+00  0.5297E+01  0.5297E+01
      9.190  0.4016E+00  0.4012E+00  0.5333E+01  0.5333E+01
      9.281  0.6009E+00  0.5998E+00  0.5387E+01  0.5387E+01
      9.371  0.1792E+01  0.1793E+01  0.5549E+01  0.5549E+01
      9.462  0.2112E+00  0.2116E+00  0.5569E+01  0.5569E+01
      9.552  0.2849E+00  0.2845E+00  0.5594E+01  0.5594E+01
      9.643  0.8938E+00  0.8925E+00  0.5675E+01  0.5675E+01
      9.733  0.2372E+01  0.2371E+01  0.5890E+01  0.5889E+01
      9.823  0.1434E+01  0.1437E+01  0.6019E+01  0.6019E+01
      9.914  0.2012E+00  0.2004E+00  0.6038E+01  0.6038E+01
     10.004  0.1188E+01  0.1188E+01  0.6145E+01  0.6145E+01
     10.095  0.2013E+00  0.2021E+00  0.6163E+01  0.6163E+01
     10.185  0.2958E-03  0.2981E-03  0.6163E+01  0.6163E+01
     10.276  0.2782E-01  0.2765E-01  0.6166E+01  0.6166E+01
     10.366  0.6381E+00  0.6372E+00  0.6223E+01  0.6223E+01
     10.456  0.8759E+00  0.8767E+00  0.6303E+01  0.6303E+01
     10.547  0.4040E+00  0.4037E+00  0.6339E+01  0.6339E+01
     10.637  0.5570E+00  0.5575E+00  0.6390E+01  0.6390E+01
     10.728  0.4868E+00  0.4871E+00  0.6434E+01  0.6434E+01
     10.818  0.5971E+00  0.5968E+00  0.6488E+01  0.6488E+01
     10.909  0.5328E+00  0.5328E+00  0.6536E+01  0.6536E+01
     10.999  0.1932E+00  0.1933E+00  0.6553E+01  0.6553E+01
     11.089  0.7313E-02  0.7325E-02  0.6554E+01  0.6554E+01
     11.180  0.2397E-04  0.2344E-04  0.6554E+01  0.6554E+01
     11.270  0.4030E-01  0.3990E-01  0.6558E+01  0.6558E+01
     11.361  0.8338E+00  0.8325E+00  0.6633E+01  0.6633E+01
     11.451  0.1038E+01  0.1039E+01  0.6727E+01  0.6727E+01
     11.542  0.4473E+00  0.4458E+00  0.6767E+01  0.6767E+01
     11.632  0.7571E+00  0.7585E+00  0.6836E+01  0.6836E+01
     11.722  0.1308E+01  0.1308E+01  0.6954E+01  0.6954E+01
     11.813  0.6027E+00  0.6031E+00  0.7009E+01  0.7009E+01
     11.903  0.2320E-02  0.2326E-02  0.7009E+01  0.7009E+01
     11.994  0.9762E-01  0.9745E-01  0.7018E+01  0.7018E+01
     12.084  0.1114E+01  0.1113E+01  0.7118E+01  0.7118E+01
     12.175  0.9978E+00  0.9975E+00  0.7209E+01  0.7208E+01
     12.265  0.7215E+00  0.7219E+00  0.7274E+01  0.7274E+01
     12.355  0.8895E+00  0.8899E+00  0.7354E+01  0.7354E+01
     12.446  0.2292E+00  0.2294E+00  0.7375E+01  0.7375E+01
     12.536  0.1322E+01  0.1321E+01  0.7494E+01  0.7494E+01
     12.627  0.1754E+01  0.1753E+01  0.7653E+01  0.7653E+01
     12.717  0.1507E+01  0.1508E+01  0.7789E+01  0.7789E+01
     12.808  0.5598E+00  0.5605E+00  0.7840E+01  0.7840E+01
     12.898  0.2754E+00  0.2752E+00  0.7865E+01  0.7865E+01
     12.989  0.1057E-01  0.1052E-01  0.7866E+01  0.7866E+01
     13.079  0.7488E-01  0.7492E-01  0.7873E+01  0.7873E+01
     13.169  0.1770E+00  0.1770E+00  0.7889E+01  0.7889E+01
     13.260  0.5755E-02  0.5750E-02  0.7889E+01  0.7889E+01
     13.350  0.6800E-02  0.6822E-02  0.7890E+01  0.7890E+01
     13.441  0.2268E+00  0.2320E+00  0.7910E+01  0.7911E+01
     13.531  0.2685E+00  0.2652E+00  0.7935E+01  0.7935E+01
     13.622  0.2173E-01  0.1530E-01  0.7937E+01  0.7936E+01
     13.712  0.2326E-01  0.2574E-01  0.7939E+01  0.7939E+01
     13.802  0.2706E-02  0.4652E-02  0.7939E+01  0.7939E+01
     13.893  0.1361E+00  0.1355E+00  0.7951E+01  0.7951E+01
     13.983  0.1190E+00  0.1196E+00  0.7962E+01  0.7962E+01
     14.074  0.1186E-02  0.1199E-02  0.7962E+01  0.7962E+01
     14.164  0.1731E+00  0.1710E+00  0.7978E+01  0.7978E+01
     14.255  0.1566E+01  0.1567E+01  0.8119E+01  0.8119E+01
     14.345  0.1144E+01  0.1144E+01  0.8223E+01  0.8223E+01
     14.435  0.9650E+00  0.9660E+00  0.8310E+01  0.8310E+01
     14.526  0.2048E-01  0.2059E-01  0.8312E+01  0.8312E+01
     14.616  0.2420E-02  0.2389E-02  0.8312E+01  0.8312E+01
     14.707  0.3517E+00  0.3482E+00  0.8344E+01  0.8344E+01
     14.797  0.1004E+01  0.9953E+00  0.8435E+01  0.8434E+01
     14.888  0.5957E+00  0.6231E+00  0.8489E+01  0.8490E+01
     14.978  0.1736E+00  0.1588E+00  0.8504E+01  0.8504E+01
     15.068  0.2346E+00  0.3396E+00  0.8526E+01  0.8535E+01
     15.159  0.1763E+01  0.1746E+01  0.8685E+01  0.8693E+01
     15.249  0.7003E+00  0.6120E+00  0.8748E+01  0.8748E+01
     15.340  0.1349E+00  0.1113E+00  0.8760E+01  0.8758E+01
     15.430  0.2610E+00  0.2760E+00  0.8784E+01  0.8783E+01
     15.521  0.3588E+00  0.1664E+00  0.8817E+01  0.8798E+01
     15.611  0.7626E+00  0.9300E+00  0.8886E+01  0.8882E+01
     15.701  0.2972E+00  0.3306E+00  0.8912E+01  0.8912E+01
     15.792  0.1654E-02  0.1889E-02  0.8913E+01  0.8913E+01
     15.882  0.2371E-07  0.2990E-07  0.8913E+01  0.8913E+01
     15.973  0.6013E-15  0.8590E-15  0.8913E+01  0.8913E+01
     16.063  0.0000E+00  0.0000E+00  0.8913E+01  0.8913E+01
     16.154  0.0000E+00  0.0000E+00  0.8913E+01  0.8913E+01
     16.244  0.0000E+00  0.0000E+00  0.8913E+01  0.8913E+01
     16.335  0.0000E+00  0.0000E+00  0.8913E+01  0.8913E+01
     16.425  0.0000E+00  0.0000E+00  0.8913E+01  0.8913E+01
     16.515  0.0000E+00  0.0000E+00  0.8913E+01  0.8913E+01
     16.606  0.0000E+00  0.0000E+00  0.8913E+01  0.8913E+01
     16.696  0.0000E+00  0.0000E+00  0.8913E+01  0.8913E+01
     16.787  0.0000E+00  0.0000E+00  0.8913E+01  0.8913E+01
     16.877  0.1246E-14  0.1168E-08  0.8913E+01  0.8913E+01
     16.968  0.3960E-07  0.2879E-03  0.8913E+01  0.8913E+01
     17.058  0.2204E-02  0.1603E+00  0.8913E+01  0.8927E+01
     17.148  0.3213E+00  0.5817E+00  0.8942E+01  0.8980E+01
     17.239  0.4430E+00  0.3147E-01  0.8982E+01  0.8983E+01
     17.329  0.7244E-02  0.6587E-05  0.8983E+01  0.8983E+01
     17.420  0.3545E-06  0.2692E-11  0.8983E+01  0.8983E+01
     17.510  0.3178E-13  0.1191E-07  0.8983E+01  0.8983E+01
     17.601  0.1438E-09  0.6106E-03  0.8983E+01  0.8983E+01
     17.691  0.4708E-04  0.8281E-01  0.8983E+01  0.8990E+01
     17.781  0.3403E-01  0.1084E+00  0.8986E+01  0.9000E+01
     17.872  0.1493E+00  0.1653E-02  0.8999E+01  0.9000E+01
     17.962  0.1002E-01  0.7462E-07  0.9000E+01  0.9000E+01
     18.053  0.2752E-05  0.6163E-14  0.9000E+01  0.9000E+01
     18.143  0.1497E-11  0.0000E+00  0.9000E+01  0.9000E+01
     18.234  0.0000E+00  0.0000E+00  0.9000E+01  0.9000E+01
     18.324  0.0000E+00  0.0000E+00  0.9000E+01  0.9000E+01
     18.414  0.0000E+00  0.0000E+00  0.9000E+01  0.9000E+01
     18.505  0.0000E+00  0.0000E+00  0.9000E+01  0.9000E+01
     18.595  0.0000E+00  0.0000E+00  0.9000E+01  0.9000E+01
     18.686  0.0000E+00  0.0000E+00  0.9000E+01  0.9000E+01
     18.776  0.0000E+00  0.0000E+00  0.9000E+01  0.9000E+01
     18.867  0.0000E+00  0.0000E+00  0.9000E+01  0.9000E+01
     18.957  0.0000E+00  0.0000E+00  0.9000E+01  0.9000E+01
     19.047  0.0000E+00  0.0000E+00  0.9000E+01  0.9000E+01
     19.04749737     -8.08227637  301      5.75956028      1.00000000
     -8.082  0.0000E+00  0.0000E+00  0.0000E+00  0.0000E+00  0.0000E+00  0.0000E+00  0.0000E+00  0.0000E+00  0.0000E+00  0.0000E+00  0.0000E+00  0.0000E+00  0.0000E+00  0.0000E+00  0.0000E+00  0.0000E+00  0.0000E+00  0.0000E+00
     -7.992  0.0000E+00  0.0000E+00  0.0000E+00  0.0000E+00  0.0000E+00  0.0000E+00  0.0000E+00  0.0000E+00  0.0000E+00  0.0000E+00  0.0000E+00  0.0000E+00  0.0000E+00  0.0000E+00  0.0000E+00  0.0000E+00  0.0000E+00  0.0000E+00
     -7.901  0.0000E+00  0.0000E+00  0.0000E+00  0.0000E+00  0.0000E+00  0.0000E+00  0.0000E+00  0.0000E+00  0.0000E+00  0.0000E+00  0.0000E+00  0.0000E+00  0.0000E+00  0.0000E+00  0.0000E+00  0.0000E+00  0.0000E+00  0.0000E+00
     -7.811  0.0000E+00  0.0000E+00  0.0000E+00  0.0000E+00  0.0000E+00  0.0000E+00  0.0000E+00  0.0000E+00  0.0000E+00  0.0000E+00  0.0000E+00  0.0000E+00  0.0000E+00  0.0000E+00  0.0000E+00  0.0000E+00  0.0000E+00  0.0000E+00
     -7.721  0.0000E+00  0.0000E+00  0.0000E+00  0.0000E+00  0.0000E+00  0.0000E+00  0.0000E+00  0.0000E+00  0.0000E+00  0.0000E+00  0.0000E+00  0.0000E+00  0.0000E+00  0.0000E+00  0.0000E+00  0.0000E+00  0.0000E+00  0.0000E+00
     -7.630  0.0000E+00  0.0000E+00  0.0000E+00  0.0000E+00  0.0000E+00  0.0000E+00  0.0000E+00  0.0000E+00  0.0000E+00  0.0000E+00  0.0000E+00  0.0000E+00  0.0000E+00  0.0000E+00  0.0000E+00  0.0000E+00  0.0000E+00  0.0000E+00
     -7.540  0.0000E+00  0.0000E+00  0.0000E+00  0.0000E+00  0.0000E+00  0.0000E+00  0.0000E+00  0.0000E+00  0.0000E+00  0.0000E+00  0.0000E+00  0.0000E+00  0.0000E+00  0.0000E+00  0.0000E+00  0.0000E+00  0.0000E+00  0.0000E+00
     -7.449  0.0000E+00  0.0000E+00  0.0000E+00  0.0000E+00  0.0000E+00  0.0000E+00  0.0000E+00  0.0000E+00  0.0000E+00  0.0000E+00  0.0000E+00  0.0000E+00  0.0000E+00  0.0000E+00  0.0000E+00  0.0000E+00  0.0000E+00  0.0000E+00
     -7.359  0.0000E+00  0.0000E+00  0.0000E+00  0.0000E+00  0.0000E+00  0.0000E+00  0.0000E+00  0.0000E+00  0.0000E+00  0.0000E+00  0.0000E+00  0.0000E+00  0.0000E+00  0.0000E+00  0.0000E+00  0.0000E+00  0.0000E+00  0.0000E+00
     -7.268  0.0000E+00  0.0000E+00  0.0000E+00  0.0000E+00  0.0000E+00  0.0000E+00  0.0000E+00  0.0000E+00  0.0000E+00  0.0000E+00  0.0000E+00  0.0000E+00  0.0000E+00  0.0000E+00  0.0000E+00  0.0000E+00  0.0000E+00  0.0000E+00
     -7.178  0.0000E+00  0.0000E+00  0.0000E+00  0.0000E+00  0.0000E+00  0.0000E+00  0.0000E+00  0.0000E+00  0.0000E+00  0.0000E+00  0.0000E+00  0.0000E+00  0.0000E+00  0.0000E+00  0.0000E+00  0.0000E+00  0.0000E+00  0.0000E+00
     -7.088  0.5329E-13  0.5246E-13  0.3959E-26  0.8359E-29  0.3959E-26  0.8359E-29  0.3959E-26  0.8359E-29  0.0000E+00  0.0000E+00  0.0000E+00  0.0000E+00  0.0000E+00  0.0000E+00  0.0000E+00  0.0000E+00  0.0000E+00  0.0000E+00
     -6.997  0.9796E-07  0.9698E-07  0.7276E-20  0.1545E-22  0.7276E-20  0.1545E-22  0.7276E-20  0.1545E-22  0.0000E+00  0.0000E+00  0.0000E+00  0.0000E+00  0.0000E+00  0.0000E+00  0.0000E+00  0.0000E+00  0.0000E+00  0.0000E+00
     -6.907  0.3566E-03  0.3549E-03  0.2649E-16  0.5655E-19  0.2649E-16  0.5655E-19  0.2649E-16  0.5655E-19  0.0000E+00  0.0000E+00  0.0000E+00  0.0000E+00  0.0000E+00  0.0000E+00  0.0000E+00  0.0000E+00  0.0000E+00  0.0000E+00
     -6.816  0.5316E-02  0.5315E-02  0.1285E-14  0.8773E-15  0.1285E-14  0.8773E-15  0.1285E-14  0.8773E-15  0.0000E+00  0.0000E+00  0.0000E+00  0.0000E+00  0.0000E+00  0.0000E+00  0.0000E+00  0.0000E+00  0.0000E+00  0.0000E+00
     -6.726  0.1212E-02  0.1216E-02  0.2148E-08  0.2127E-08  0.2148E-08  0.2127E-08  0.2148E-08  0.2127E-08  0.0000E+00  0.0000E+00  0.0000E+00  0.0000E+00  0.0000E+00  0.0000E+00  0.0000E+00  0.0000E+00  0.0000E+00  0.0000E+00
     -6.635  0.2255E-02  0.2244E-02  0.1013E-04  0.1009E-04  0.1013E-04  0.1009E-04  0.1013E-04  0.1009E-04  0.0000E+00  0.0000E+00  0.0000E+00  0.0000E+00  0.0000E+00  0.0000E+00  0.0000E+00  0.0000E+00  0.0000E+00  0.0000E+00
     -6.545  0.4264E-01  0.4262E-01  0.1942E-03  0.1940E-03  0.1942E-03  0.1940E-03  0.1942E-03  0.1940E-03  0.0000E+00  0.0000E+00  0.0000E+00  0.0000E+00  0.0000E+00  0.0000E+00  0.0000E+00  0.0000E+00  0.0000E+00  0.0000E+00
     -6.454  0.4141E-01  0.4143E-01  0.2366E-03  0.2366E-03  0.2366E-03  0.2366E-03  0.2366E-03  0.2366E-03  0.0000E+00  0.0000E+00  0.0000E+00  0.0000E+00  0.0000E+00  0.0000E+00  0.0000E+00  0.0000E+00  0.0000E+00  0.0000E+00
     -6.364  0.9371E-02  0.9399E-02  0.5776E-04  0.5792E-04  0.5776E-04  0.5792E-04  0.5776E-04  0.5792E-04  0.0000E+00  0.0000E+00  0.0000E+00  0.0000E+00  0.0000E+00  0.0000E+00  0.0000E+00  0.0000E+00  0.0000E+00  0.0000E+00
     -6.274  0.2056E-04  0.2071E-04  0.1313E-06  0.1321E-06  0.1313E-06  0.1321E-06  0.1313E-06  0.1321E-06  0.0000E+00  0.0000E+00  0.0000E+00  0.0000E+00  0.0000E+00  0.0000E+00  0.0000E+00  0.0000E+00  0.0000E+00  0.0000E+00
     -6.183  0.3549E-02  0.3535E-02  0.4155E-04  0.4138E-04  0.4155E-04  0.4138E-04  0.4155E-04  0.4138E-04  0.0000E+00  0.0000E+00  0.0000E+00  0.0000E+00  0.0000E+00  0.0000E+00  0.0000E+00  0.0000E+00  0.0000E+00  0.0000E+00
     -6.093  0.6172E-01  0.6169E-01  0.7225E-03  0.7222E-03  0.7225E-03  0.7222E-03  0.7225E-03  0.7222E-03  0.0000E+00  0.0000E+00  0.0000E+00  0.0000E+00  0.0000E+00  0.0000E+00  0.0000E+00  0.0000E+00  0.0000E+00  0.0000E+00
     -6.002  0.1612E-01  0.1617E-01  0.1888E-03  0.1893E-03  0.1888E-03  0.1893E-03  0.1888E-03  0.1893E-03  0.0000E+00  0.0000E+00  0.0000E+00  0.0000E+00  0.0000E+00  0.0000E+00  0.0000E+00  0.0000E+00  0.0000E+00  0.0000E+00
     -5.912  0.7794E-02  0.7765E-02  0.1259E-03  0.1255E-03  0.1259E-03  0.1255E-03  0.1259E-03  0.1255E-03  0.0000E+00  0.0000E+00  0.0000E+00  0.0000E+00  0.0000E+00  0.0000E+00  0.0000E+00  0.0000E+00  0.0000E+00  0.0000E+00
     -5.821  0.1312E+00  0.1311E+00  0.2120E-02  0.2119E-02  0.2120E-02  0.2119E-02  0.2120E-02  0.2119E-02  0.0000E+00  0.0000E+00  0.0000E+00  0.0000E+00  0.0000E+00  0.0000E+00  0.0000E+00  0.0000E+00  0.0000E+00  0.0000E+00
     -5.731  0.7311E-01  0.7320E-01  0.1178E-02  0.1179E-02  0.1178E-02  0.1179E-02  0.1178E-02  0.1179E-02  0.0000E+00  0.0000E+00  0.0000E+00  0.0000E+00  0.0000E+00  0.0000E+00  0.0000E+00  0.0000E+00  0.0000E+00  0.0000E+00
     -5.641  0.4130E-02  0.4145E-02  0.6633E-04  0.6655E-04  0.6633E-04  0.6655E-04  0.6633E-04  0.6655E-04  0.0000E+00  0.0000E+00  0.0000E+00  0.0000E+00  0.0000E+00  0.0000E+00  0.0000E+00  0.0000E+00  0.0000E+00  0.0000E+00
     -5.550  0.1929E-05  0.1940E-05  0.3251E-07  0.3268E-07  0.3251E-07  0.3268E-07  0.3251E-07  0.3268E-07  0.0000E+00  0.0000E+00  0.0000E+00  0.0000E+00  0.0000E+00  0.0000E+00  0.0000E+00  0.0000E+00  0.0000E+00  0.0000E+00
     -5.460  0.1173E-02  0.1168E-02  0.2924E-04  0.2913E-04  0.2924E-04  0.2913E-04  0.2924E-04  0.2913E-04  0.0000E+00  0.0000E+00  0.0000E+00  0.0000E+00  0.0000E+00  0.0000E+00  0.0000E+00  0.0000E+00  0.0000E+00  0.0000E+00
     -5.369  0.2867E-01  0.2866E-01  0.7150E-03  0.7145E-03  0.7150E-03  0.7145E-03  0.7150E-03  0.7145E-03  0.0000E+00  0.0000E+00  0.0000E+00  0.0000E+00  0.0000E+00  0.0000E+00  0.0000E+00  0.0000E+00  0.0000E+00  0.0000E+00
     -5.279  0.1117E-01  0.1118E-01  0.2777E-03  0.2780E-03  0.2777E-03  0.2780E-03  0.2777E-03  0.2780E-03  0.0000E+00  0.0000E+00  0.0000E+00  0.0000E+00  0.0000E+00  0.0000E+00  0.0000E+00  0.0000E+00  0.0000E+00  0.0000E+00
     -5.188  0.8658E-01  0.8650E-01  0.2096E-02  0.2094E-02  0.2096E-02  0.2094E-02  0.2096E-02  0.2094E-02  0.0000E+00  0.0000E+00  0.0000E+00  0.0000E+00  0.0000E+00  0.0000E+00  0.0000E+00  0.0000E+00  0.0000E+00  0.0000E+00
     -5.098  0.1146E+00  0.1147E+00  0.2935E-02  0.2935E-02  0.2935E-02  0.2935E-02  0.2935E-02  0.2935E-02  0.0000E+00  0.0000E+00  0.0000E+00  0.0000E+00  0.0000E+00  0.0000E+00  0.0000E+00  0.0000E+00  0.0000E+00  0.0000E+00
     -5.008  0.1156E+00  0.1156E+00  0.3250E-02  0.3251E-02  0.3250E-02  0.3251E-02  0.3250E-02  0.3251E-02  0.0000E+00  0.0000E+00  0.0000E+00  0.0000E+00  0.0000E+00  0.0000E+00  0.0000E+00  0.0000E+00  0.0000E+00  0.0000E+00
     -4.917  0.4880E-02  0.4894E-02  0.1373E-03  0.1376E-03  0.1373E-03  0.1376E-03  0.1373E-03  0.1376E-03  0.0000E+00  0.0000E+00  0.0000E+00  0.0000E+00  0.0000E+00  0.0000E+00  0.0000E+00  0.0000E+00  0.0000E+00  0.0000E+00
     -4.827  0.5509E-01  0.5503E-01  0.1528E-02  0.1527E-02  0.1528E-02  0.1527E-02  0.1528E-02  0.1527E-02  0.0000E+00  0.0000E+00  0.0000E+00  0.0000E+00  0.0000E+00  0.0000E+00  0.0000E+00  0.0000E+00  0.0000E+00  0.0000E+00
     -4.736  0.1187E+00  0.1187E+00  0.3227E-02  0.3229E-02  0.3227E-02  0.3229E-02  0.3227E-02  0.3229E-02  0.0000E+00  0.0000E+00  0.0000E+00  0.0000E+00  0.0000E+00  0.0000E+00  0.0000E+00  0.0000E+00  0.0000E+00  0.0000E+00
     -4.646  0.4361E-01  0.4363E-01  0.1008E-02  0.1009E-02  0.1008E-02  0.1009E-02  0.1008E-02  0.1009E-02  0.0000E+00  0.0000E+00  0.0000E+00  0.0000E+00  0.0000E+00  0.0000E+00  0.0000E+00  0.0000E+00  0.0000E+00  0.0000E+00
     -4.555  0.2347E-02  0.2350E-02  0.6213E-04  0.6216E-04  0.6213E-04  0.6216E-04  0.6213E-04  0.6216E-04  0.0000E+00  0.0000E+00  0.0000E+00  0.0000E+00  0.0000E+00  0.0000E+00  0.0000E+00  0.0000E+00  0.0000E+00  0.0000E+00
     -4.465  0.6821E-01  0.6815E-01  0.2692E-02  0.2689E-02  0.2692E-02  0.2689E-02  0.2692E-02  0.2689E-02  0.0000E+00  0.0000E+00  0.0000E+00  0.0000E+00  0.0000E+00  0.0000E+00  0.0000E+00  0.0000E+00  0.0000E+00  0.0000E+00
     -4.375  0.8784E-01  0.8791E-01  0.3467E-02  0.3469E-02  0.3467E-02  0.3469E-02  0.3467E-02  0.3469E-02  0.0000E+00  0.0000E+00  0.0000E+00  0.0000E+00  0.0000E+00  0.0000E+00  0.0000E+00  0.0000E+00  0.0000E+00  0.0000E+00
     -4.284  0.1903E-01  0.1901E-01  0.5228E-03  0.5225E-03  0.5228E-03  0.5225E-03  0.5228E-03  0.5225E-03  0.0000E+00  0.0000E+00  0.0000E+00  0.0000E+00  0.0000E+00  0.0000E+00  0.0000E+00  0.0000E+00  0.0000E+00  0.0000E+00
     -4.194  0.1701E+00  0.1701E+00  0.4849E-02  0.4849E-02  0.4849E-02  0.4849E-02  0.4849E-02  0.4849E-02  0.0000E+00  0.0000E+00  0.0000E+00  0.0000E+00  0.0000E+00  0.0000E+00  0.0000E+00  0.0000E+00  0.0000E+00  0.0000E+00
     -4.103  0.6407E-01  0.6412E-01  0.2187E-02  0.2188E-02  0.2187E-02  0.2188E-02  0.2187E-02  0.2188E-02  0.0000E+00  0.0000E+00  0.0000E+00  0.0000E+00  0.0000E+00  0.0000E+00  0.0000E+00  0.0000E+00  0.0000E+00  0.0000E+00
     -4.013  0.1170E+00  0.1169E+00  0.4456E-02  0.4453E-02  0.4456E-02  0.4453E-02  0.4456E-02  0.4453E-02  0.0000E+00  0.0000E+00  0.0000E+00  0.0000E+00  0.0000E+00  0.0000E+00  0.0000E+00  0.0000E+00  0.0000E+00  0.0000E+00
     -3.922  0.2061E+00  0.2062E+00  0.7851E-02  0.7854E-02  0.7851E-02  0.7854E-02  0.7851E-02  0.7854E-02  0.0000E+00  0.0000E+00  0.0000E+00  0.0000E+00  0.0000E+00  0.0000E+00  0.0000E+00  0.0000E+00  0.0000E+00  0.0000E+00
     -3.832  0.4671E-02  0.4679E-02  0.1779E-03  0.1782E-03  0.1779E-03  0.1782E-03  0.1779E-03  0.1782E-03  0.0000E+00  0.0000E+00  0.0000E+00  0.0000E+00  0.0000E+00  0.0000E+00  0.0000E+00  0.0000E+00  0.0000E+00  0.0000E+00
     -3.742  0.1207E-03  0.1204E-03  0.6902E-05  0.6886E-05  0.6902E-05  0.6886E-05  0.6902E-05  0.6886E-05  0.0000E+00  0.0000E+00  0.0000E+00  0.0000E+00  0.0000E+00  0.0000E+00  0.0000E+00  0.0000E+00  0.0000E+00  0.0000E+00
     -3.651  0.1637E-01  0.1637E-01  0.9371E-03  0.9364E-03  0.9371E-03  0.9364E-03  0.9371E-03  0.9364E-03  0.0000E+00  0.0000E+00  0.0000E+00  0.0000E+00  0.0000E+00  0.0000E+00  0.0000E+00  0.0000E+00  0.0000E+00  0.0000E+00
     -3.561  0.3768E-01  0.3769E-01  0.1925E-02  0.1925E-02  0.1925E-02  0.1925E-02  0.1925E-02  0.1925E-02  0.0000E+00  0.0000E+00  0.0000E+00  0.0000E+00  0.0000E+00  0.0000E+00  0.0000E+00  0.0000E+00  0.0000E+00  0.0000E+00