    2    2    1    2
  0.2044415E+02  0.3866975E-09  0.3866975E-09  0.3866975E-09  0.5000000E-15
   1.0000000000000000E-004
  CAR
 unknown system
      8     20      9

  0.1262379E-14  0.1262379E-14  0.1262379E-14  0.2915452E-02
      1         -6.849105       -6.849023   1.000000   1.000000
      2          5.529598        5.529350   1.000000   1.000000
      3          5.529598        5.529350   1.000000   1.000000
      4          5.529598        5.529350   1.000000   1.000000
      5          8.277100        8.277333   0.000000   0.000000
      6          8.277100        8.277333   0.000000   0.000000
      7          8.277100        8.277333   0.000000   0.000000
      8          9.261668        9.261784   0.000000   0.000000
      9         13.645541       13.664871   0.000000   0.000000

  0.1428571E+00  0.1253112E-14  0.1262379E-14  0.2332362E-01
      1         -6.573927       -6.573850   1.000000   1.000000
      2          3.558519        3.558429   1.000000   1.000000
      3          5.159463        5.159272   1.000000   1.000000
      4          5.159463        5.159272   1.000000   1.000000
      5          8.216903        8.217056   0.000000   0.000000
      6          8.819716        8.819901   0.000000   0.000000
      7          8.819716        8.819901   0.000000   0.000000
      8         10.931627       10.931653   0.000000   0.000000
      9         13.098381       13.098367   0.000000   0.000000

  0.2857143E+00  0.1237791E-14  0.1262379E-14  0.2332362E-01
      1         -5.781838       -5.781776   1.000000   1.000000
      2          0.850966        0.850959   1.000000   1.000000
      3          4.619189        4.619042   1.000000   1.000000
      4          4.619189        4.619042   1.000000   1.000000
      5          7.699708        7.699827   0.000000   0.000000
      6          9.307314        9.307482   0.000000   0.000000
      7          9.307314        9.307482   0.000000   0.000000
      8         13.418870       13.418865   0.000000   0.000000
      9         13.473802       13.471108   0.000000   0.000000

  0.4285714E+00  0.1243683E-14  0.1262379E-14  0.2332362E-01
      1         -4.711006       -4.710971   1.000000   1.000000
      2         -1.246884       -1.246838   1.000000   1.000000
      3          4.314491        4.314358   1.000000   1.000000
      4          4.314491        4.314358   1.000000   1.000000
      5          7.375931        7.376035   0.000000   0.000000
      6          9.165011        9.165182   0.000000   0.000000
      7          9.165012        9.165183   0.000000   0.000000
      8         13.889788       13.889987   0.000000   0.000000
      9         15.526810       15.539594   0.000000   0.000000

  0.1428571E+00  0.1428571E+00  0.1262379E-14  0.1749271E-01
      1         -6.480747       -6.480672   1.000000   1.000000
      2          3.870138        3.869991   1.000000   1.000000
      3          4.527409        4.527291   1.000000   1.000000
      4          4.527409        4.527291   1.000000   1.000000
      5          7.618123        7.618326   0.000000   0.000000
      6          9.740708        9.740813   0.000000   0.000000
      7          9.740708        9.740813   0.000000   0.000000
      8         10.320998       10.321098   0.000000   0.000000
      9         12.418709       12.418680   0.000000   0.000000

  0.2857143E+00  0.1428571E+00  0.1262379E-14  0.6997085E-01
      1         -5.853022       -5.852957   1.000000   1.000000
      2          1.666808        1.666758   1.000000   1.000000
      3          3.942011        3.941928   1.000000   1.000000
      4          3.961719        3.961633   1.000000   1.000000
      5          7.833412        7.833550   0.000000   0.000000
      6          9.733008        9.733158   0.000000   0.000000
      7         10.433170       10.433213   0.000000   0.000000
      8         10.568974       10.569062   0.000000   0.000000
      9         14.203236       14.203659   0.000000   0.000000

  0.4285714E+00  0.1428571E+00  0.1262379E-14  0.6997085E-01
      1         -4.811989       -4.811947   1.000000   1.000000
      2         -0.593335       -0.593320   1.000000   1.000000
      3          3.235668        3.235619   1.000000   1.000000
      4          3.760616        3.760532   1.000000   1.000000
      5          7.927887        7.928015   0.000000   0.000000
      6          9.651755        9.651833   0.000000   0.000000
      7         10.356327       10.356438   0.000000   0.000000
      8         11.704725       11.704791   0.000000   0.000000
      9         15.600475       15.601948   0.000000   0.000000

 -0.4285714E+00  0.1428571E+00  0.1262379E-14  0.6997085E-01
      1         -4.239300       -4.239279   1.000000   1.000000
      2         -1.483025       -1.482981   1.000000   1.000000
      3          2.808250        2.808222   1.000000   1.000000
      4          3.961776        3.961674   1.000000   1.000000
      5          8.037536        8.037667   0.000000   0.000000
      6          9.564109        9.564158   0.000000   0.000000
      7          9.948695        9.948841   0.000000   0.000000
      8         14.212380       14.212414   0.000000   0.000000
      9         14.774333       14.776062   0.000000   0.000000

 -0.2857143E+00  0.1428571E+00  0.1262379E-14  0.6997085E-01
      1         -5.191983       -5.191932   1.000000   1.000000
      2          0.109378        0.109374   1.000000   1.000000
      3          2.814136        2.814119   1.000000   1.000000
      4          4.493225        4.493083   1.000000   1.000000
      5          8.447667        8.447801   0.000000   0.000000
      6          9.691868        9.692062   0.000000   0.000000
      7          9.763649        9.763666   0.000000   0.000000
      8         12.624850       12.624927   0.000000   0.000000
      9         12.693291       12.693277   0.000000   0.000000

 -0.1428571E+00  0.1428571E+00  0.1262379E-14  0.3498542E-01
      1         -6.122724       -6.122655   1.000000   1.000000
      2          2.307735        2.307663   1.000000   1.000000
      3          3.523756        3.523724   1.000000   1.000000
      4          5.109399        5.109200   1.000000   1.000000
      5          8.846268        8.846447   0.000000   0.000000
      6          9.044952        9.045177   0.000000   0.000000
      7          9.357050        9.357028   0.000000   0.000000
      8         11.558370       11.558456   0.000000   0.000000
      9         12.132085       12.132088   0.000000   0.000000

  0.2857143E+00  0.2857143E+00  0.1262379E-14  0.1749271E-01
      1         -5.392916       -5.392859   1.000000   1.000000
      2          1.242369        1.242294   1.000000   1.000000
      3          3.316292        3.316240   1.000000   1.000000
      4          3.316292        3.316240   1.000000   1.000000
      5          6.682459        6.682638   0.000000   0.000000
      6          8.448328        8.448484   0.000000   0.000000
      7         12.285953       12.286005   0.000000   0.000000
      8         12.285953       12.286005   0.000000   0.000000
      9         14.887215       14.879668   0.000000   0.000000

  0.4285714E+00  0.2857143E+00  0.1262379E-14  0.6997085E-01
      1         -4.459218       -4.459179   1.000000   1.000000
      2         -0.323335       -0.323371   1.000000   1.000000
      3          2.334621        2.334631   1.000000   1.000000
      4          3.044379        3.044335   1.000000   1.000000
      5          6.984099        6.984258   0.000000   0.000000
      6          8.521717        8.521832   0.000000   0.000000
      7         12.556064       12.556090   0.000000   0.000000
      8         12.702563       12.702628   0.000000   0.000000
      9         17.155727       17.086793   0.000000   0.000000

 -0.4285714E+00  0.2857143E+00  0.1262379E-14  0.6997085E-01
      1         -3.514937       -3.514927   1.000000   1.000000
      2         -1.542831       -1.542829   1.000000   1.000000
      3          1.367647        1.367700   1.000000   1.000000
      4          3.217152        3.217096   1.000000   1.000000
      5          7.241689        7.241853   0.000000   0.000000
      6         10.828229       10.828238   0.000000   0.000000
      7         12.182278       12.182390   0.000000   0.000000
      8         12.300397       12.300445   0.000000   0.000000
      9         15.123320       15.098525   0.000000   0.000000

 -0.2857143E+00  0.2857143E+00  0.1262379E-14  0.3498542E-01
      1         -4.186236       -4.186208   1.000000   1.000000
      2         -0.765320       -0.765338   1.000000   1.000000
      3          1.294100        1.294162   1.000000   1.000000
      4          3.784576        3.784488   1.000000   1.000000
      5          7.859746        7.859906   0.000000   0.000000
      6         11.315960       11.316165   0.000000   0.000000
      7         11.703621       11.703451   0.000000   0.000000
      8         12.592691       12.592848   0.000000   0.000000
      9         12.829782       12.829717   0.000000   0.000000

  0.4285714E+00  0.4285714E+00  0.1262379E-14  0.1749271E-01
      1         -3.644913       -3.644888   1.000000   1.000000
      2         -1.361417       -1.361436   1.000000   1.000000
      3          2.658292        2.658263   1.000000   1.000000
      4          2.658292        2.658263   1.000000   1.000000
      5          6.338403        6.338575   0.000000   0.000000
      6          6.882199        6.882368   0.000000   0.000000
      7         15.088173       15.088256   0.000000   0.000000
      8         15.088173       15.088257   0.000000   0.000000
      9         17.814326       17.697132   0.000000   0.000000

 -0.4285714E+00  0.4285714E+00  0.1262379E-14  0.3498542E-01
      1         -2.663301       -2.663302   1.000000   1.000000
      2         -2.357889       -2.357887   1.000000   1.000000
      3          1.772006        1.772042   1.000000   1.000000
      4          2.721439        2.721406   1.000000   1.000000
      5          6.654861        6.655031   0.000000   0.000000
      6          7.929792        7.929897   0.000000   0.000000
      7         14.858015       14.858250   0.000000   0.000000
      8         15.356237       15.362549   0.000000   0.000000
      9         15.510591       15.552371   0.000000   0.000000

  0.4285714E+00  0.2857143E+00  0.1428571E+00  0.6997085E-01
      1         -5.074620       -5.074570   1.000000   1.000000
      2          0.475777        0.475731   1.000000   1.000000
      3          2.343774        2.343792   1.000000   1.000000
      4          3.687663        3.687594   1.000000   1.000000
      5          8.359277        8.359386   0.000000   0.000000
      6          9.699782        9.699904   0.000000   0.000000
      7          9.974786        9.974863   0.000000   0.000000
      8         12.036162       12.036192   0.000000   0.000000
      9         14.260442       14.260420   0.000000   0.000000

 -0.4285714E+00  0.2857143E+00  0.1428571E+00  0.1399417E+00
      1         -3.999809       -3.999786   1.000000   1.000000
      2         -1.110530       -1.110529   1.000000   1.000000
      3          1.758475        1.758503   1.000000   1.000000
      4          3.137893        3.137861   1.000000   1.000000
      5          8.879677        8.879773   0.000000   0.000000
      6          9.308499        9.308584   0.000000   0.000000
      7         11.375258       11.375337   0.000000   0.000000
      8         12.519335       12.519349   0.000000   0.000000
      9         14.356976       14.357045   0.000000   0.000000

 -0.4285714E+00  0.4285714E+00  0.1428571E+00  0.6997085E-01
      1         -3.435422       -3.435405   1.000000   1.000000
      2         -1.453998       -1.454020   1.000000   1.000000
      3          1.842807        1.842840   1.000000   1.000000
      4          2.259450        2.259466   1.000000   1.000000
      5          7.996940        7.997043   0.000000   0.000000
      6          8.393588        8.393690   0.000000   0.000000
      7         12.074671       12.074735   0.000000   0.000000
      8         14.712989       14.713136   0.000000   0.000000
      9         15.172080       15.171986   0.000000   0.000000

 -0.2857143E+00  0.4285714E+00  0.1428571E+00  0.6997085E-01
      1         -2.987211       -2.987211   1.000000   1.000000
      2         -1.865444       -1.865454   1.000000   1.000000
      3          1.198419        1.198488   1.000000   1.000000
      4          2.355711        2.355722   1.000000   1.000000
      5          8.546485        8.546579   0.000000   0.000000
      6         10.717670       10.717643   0.000000   0.000000
      7         11.551438       11.551592   0.000000   0.000000
      8         11.706450       11.706523   0.000000   0.000000
      9         15.114619       15.114655   0.000000   0.000000
