       N       E                     dE             d eps       ncg     rms          ort
DAV:   1     0.295458134336E+01    0.29546E+01   -0.43010E+03   180   0.980E+02
DAV:   2    -0.174521216640E+02   -0.20407E+02   -0.19632E+02   180   0.965E+01
DAV:   3    -0.179215017575E+02   -0.46938E+00   -0.46846E+00   180   0.147E+01
DAV:   4    -0.179247549235E+02   -0.32532E-02   -0.32528E-02   180   0.142E+00
DAV:   5    -0.179247614105E+02   -0.64870E-05   -0.64867E-05   180   0.516E-02
SDA:   6    -0.174725442636E+02    0.45222E+00   -0.64867E-05   180   0.166E+00 0.000E+00
CGA:   7    -0.175090556753E+02   -0.36511E-01   -0.34916E-01   180   0.593E-01 0.877E-01
CGA:   8    -0.175263360887E+02   -0.17280E-01   -0.16612E-01   180   0.659E-02 0.112E-01
CGA:   9    -0.175337664459E+02   -0.74304E-02    0.60776E-03   180   0.136E-01 0.194E-01
CGA:  10    -0.175366787143E+02   -0.29123E-02   -0.28767E-02   180   0.239E-02 0.296E-02
CGA:  11    -0.175382123256E+02   -0.15336E-02   -0.12168E-02   180   0.602E-03 0.120E-02
CGA:  12    -0.175389063922E+02   -0.69407E-03   -0.73758E-05   180   0.980E-04-0.947E-04
CGA:  13    -0.175389378334E+02   -0.31441E-04   -0.31478E-04   180   0.196E-04 0.305E-05
CGA:  14    -0.175389514394E+02   -0.13606E-04   -0.15223E-04   180   0.136E-04-0.447E-05
CGA:  15    -0.175389566683E+02   -0.52290E-05   -0.59361E-05   180   0.502E-05-0.455E-05
   1 F= -.17538957E+02 E0= -.17538957E+02  d E =-.455536E-13  mag=     0.0000
