PROCAR lm decomposed
# of k-points:   20         # of bands:    9         # of ions:    2

 k-point     1 :    0.00000000 0.00000000 0.00000000     weight = 0.00291545

band     1 # energy   -6.84910484 # occ.  1.00000000

ion      s     py     pz     px    dxy    dyz    dz2    dxz  x2-y2    tot
    1  0.214  0.000  0.000  0.000  0.000  0.000  0.000  0.000  0.000  0.214
    2  0.214  0.000  0.000  0.000  0.000  0.000  0.000  0.000  0.000  0.214
tot    0.427  0.000  0.000  0.000  0.000  0.000  0.000  0.000  0.000  0.427

band     2 # energy    5.52959786 # occ.  1.00000000

ion      s     py     pz     px    dxy    dyz    dz2    dxz  x2-y2    tot
    1  0.000  0.072  0.042  0.102  0.000  0.000  0.000  0.000  0.000  0.216
    2  0.000  0.072  0.042  0.102  0.000  0.000  0.000  0.000  0.000  0.216
tot    0.000  0.144  0.084  0.204  0.000  0.000  0.000  0.000  0.000  0.432

band     3 # energy    5.52959786 # occ.  1.00000000

ion      s     py     pz     px    dxy    dyz    dz2    dxz  x2-y2    tot
    1  0.000  0.119  0.034  0.063  0.000  0.000  0.000  0.000  0.000  0.216
    2  0.000  0.119  0.034  0.063  0.000  0.000  0.000  0.000  0.000  0.216
tot    0.000  0.239  0.067  0.126  0.000  0.000  0.000  0.000  0.000  0.432

band     4 # energy    5.52959796 # occ.  1.00000000

ion      s     py     pz     px    dxy    dyz    dz2    dxz  x2-y2    tot
    1  0.000  0.025  0.140  0.051  0.000  0.000  0.000  0.000  0.000  0.216
    2  0.000  0.025  0.140  0.051  0.000  0.000  0.000  0.000  0.000  0.216
tot    0.000  0.049  0.281  0.102  0.000  0.000  0.000  0.000  0.000  0.432

band     5 # energy    8.27710033 # occ.  0.00000000

ion      s     py     pz     px    dxy    dyz    dz2    dxz  x2-y2    tot
    1  0.000  0.064  0.030  0.058  0.000  0.000  0.000  0.000  0.000  0.152
    2  0.000  0.064  0.030  0.058  0.000  0.000  0.000  0.000  0.000  0.152
tot    0.000  0.128  0.059  0.117  0.000  0.000  0.000  0.000  0.000  0.303

band     6 # energy    8.27710034 # occ.  0.00000000

ion      s     py     pz     px    dxy    dyz    dz2    dxz  x2-y2    tot
    1  0.000  0.059  0.005  0.088  0.000  0.000  0.000  0.000  0.000  0.152
    2  0.000  0.059  0.005  0.088  0.000  0.000  0.000  0.000  0.000  0.152
tot    0.000  0.119  0.009  0.175  0.000  0.000  0.000  0.000  0.000  0.303

band     7 # energy    8.27710041 # occ.  0.00000000

ion      s     py     pz     px    dxy    dyz    dz2    dxz  x2-y2    tot
    1  0.000  0.028  0.118  0.006  0.000  0.000  0.000  0.000  0.000  0.152
    2  0.000  0.028  0.118  0.006  0.000  0.000  0.000  0.000  0.000  0.152
tot    0.000  0.057  0.235  0.011  0.000  0.000  0.000  0.000  0.000  0.303

band     8 # energy    9.26166829 # occ.  0.00000000

ion      s     py     pz     px    dxy    dyz    dz2    dxz  x2-y2    tot
    1  0.361  0.000  0.000  0.000  0.000  0.000  0.000  0.000  0.000  0.361
    2  0.361  0.000  0.000  0.000  0.000  0.000  0.000  0.000  0.000  0.361
tot    0.721  0.000  0.000  0.000  0.000  0.000  0.000  0.000  0.000  0.721

band     9 # energy   13.64554065 # occ.  0.00000000

ion      s     py     pz     px    dxy    dyz    dz2    dxz  x2-y2    tot
    1  0.000  0.000  0.000  0.000  0.000  0.000  0.000  0.000  0.000  0.000
    2  0.000  0.000  0.000  0.000  0.000  0.000  0.000  0.000  0.000  0.000
tot    0.000  0.000  0.000  0.000  0.000  0.000  0.000  0.000  0.000  0.000


 k-point     2 :    0.14285714 0.00000000 0.00000000     weight = 0.02332362

band     1 # energy   -6.57392674 # occ.  1.00000000

ion      s     py     pz     px    dxy    dyz    dz2    dxz  x2-y2    tot
    1  0.212  0.000  0.000  0.003  0.000  0.000  0.000  0.000  0.000  0.215
    2  0.212  0.000  0.000  0.003  0.000  0.000  0.000  0.000  0.000  0.215
tot    0.425  0.001  0.000  0.005  0.000  0.000  0.000  0.000  0.000  0.430

band     2 # energy    3.55851882 # occ.  1.00000000

ion      s     py     pz     px    dxy    dyz    dz2    dxz  x2-y2    tot
    1  0.066  0.017  0.000  0.136  0.000  0.000  0.000  0.000  0.000  0.219
    2  0.066  0.017  0.000  0.136  0.000  0.000  0.000  0.000  0.000  0.219
tot    0.131  0.034  0.000  0.273  0.000  0.000  0.000  0.000  0.000  0.438

band     3 # energy    5.15946269 # occ.  1.00000000

ion      s     py     pz     px    dxy    dyz    dz2    dxz  x2-y2    tot
    1  0.000  0.141  0.054  0.018  0.000  0.000  0.000  0.000  0.000  0.213
    2  0.000  0.141  0.054  0.018  0.000  0.000  0.000  0.000  0.000  0.213
tot    0.000  0.282  0.109  0.035  0.000  0.000  0.000  0.000  0.000  0.426

band     4 # energy    5.15946278 # occ.  1.00000000

ion      s     py     pz     px    dxy    dyz    dz2    dxz  x2-y2    tot
    1  0.000  0.048  0.159  0.006  0.000  0.000  0.000  0.000  0.000  0.213
    2  0.000  0.048  0.159  0.006  0.000  0.000  0.000  0.000  0.000  0.213
tot    0.000  0.096  0.318  0.012  0.000  0.000  0.000  0.000  0.000  0.426

band     5 # energy    8.21690293 # occ.  0.00000000

ion      s     py     pz     px    dxy    dyz    dz2    dxz  x2-y2    tot
    1  0.109  0.010  0.000  0.077  0.000  0.000  0.000  0.000  0.000  0.195
    2  0.109  0.010  0.000  0.077  0.000  0.000  0.000  0.000  0.000  0.195
tot    0.218  0.019  0.000  0.154  0.000  0.000  0.000  0.000  0.000  0.390

band     6 # energy    8.81971564 # occ.  0.00000000

ion      s     py     pz     px    dxy    dyz    dz2    dxz  x2-y2    tot
    1  0.000  0.024  0.128  0.003  0.000  0.000  0.000  0.000  0.000  0.155
    2  0.000  0.024  0.128  0.003  0.000  0.000  0.000  0.000  0.000  0.155
tot    0.000  0.047  0.257  0.006  0.000  0.000  0.000  0.000  0.000  0.310

band     7 # energy    8.81971564 # occ.  0.00000000

ion      s     py     pz     px    dxy    dyz    dz2    dxz  x2-y2    tot
    1  0.000  0.114  0.027  0.014  0.000  0.000  0.000  0.000  0.000  0.155
    2  0.000  0.114  0.027  0.014  0.000  0.000  0.000  0.000  0.000  0.155
tot    0.000  0.228  0.053  0.029  0.000  0.000  0.000  0.000  0.000  0.310

band     8 # energy   10.93162707 # occ.  0.00000000

ion      s     py     pz     px    dxy    dyz    dz2    dxz  x2-y2    tot
    1  0.198  0.011  0.000  0.091  0.000  0.000  0.000  0.000  0.000  0.300
    2  0.198  0.011  0.000  0.091  0.000  0.000  0.000  0.000  0.000  0.300
tot    0.396  0.023  0.000  0.182  0.000  0.000  0.000  0.000  0.000  0.601

band     9 # energy   13.09838119 # occ.  0.00000000

ion      s     py     pz     px    dxy    dyz    dz2    dxz  x2-y2    tot
    1  0.000  0.002  0.000  0.000  0.000  0.000  0.000  0.000  0.000  0.002
    2  0.000  0.002  0.000  0.000  0.000  0.000  0.000  0.000  0.000  0.002
tot    0.000  0.003  0.001  0.000  0.000  0.000  0.000  0.000  0.000  0.004


 k-point     3 :    0.28571429 0.00000000 0.00000000     weight = 0.02332362

band     1 # energy   -5.78183813 # occ.  1.00000000

ion      s     py     pz     px    dxy    dyz    dz2    dxz  x2-y2    tot
    1  0.210  0.001  0.000  0.009  0.000  0.000  0.000  0.000  0.000  0.220
    2  0.210  0.001  0.000  0.009  0.000  0.000  0.000  0.000  0.000  0.220
tot    0.421  0.002  0.000  0.018  0.000  0.000  0.000  0.000  0.000  0.441

band     2 # energy    0.85096572 # occ.  1.00000000

ion      s     py     pz     px    dxy    dyz    dz2    dxz  x2-y2    tot
    1  0.099  0.013  0.000  0.101  0.000  0.000  0.000  0.000  0.000  0.213
    2  0.099  0.013  0.000  0.101  0.000  0.000  0.000  0.000  0.000  0.213
tot    0.198  0.025  0.000  0.202  0.000  0.000  0.000  0.000  0.000  0.425

band     3 # energy    4.61918866 # occ.  1.00000000

ion      s     py     pz     px    dxy    dyz    dz2    dxz  x2-y2    tot
    1  0.000  0.140  0.057  0.018  0.000  0.000  0.000  0.000  0.000  0.214
    2  0.000  0.140  0.057  0.018  0.000  0.000  0.000  0.000  0.000  0.214
tot    0.000  0.281  0.113  0.035  0.000  0.000  0.000  0.000  0.000  0.429

band     4 # energy    4.61918876 # occ.  1.00000000

ion      s     py     pz     px    dxy    dyz    dz2    dxz  x2-y2    tot
    1  0.000  0.050  0.158  0.006  0.000  0.000  0.000  0.000  0.000  0.214
    2  0.000  0.050  0.158  0.006  0.000  0.000  0.000  0.000  0.000  0.214
tot    0.000  0.101  0.316  0.013  0.000  0.000  0.000  0.000  0.000  0.429

band     5 # energy    7.69970814 # occ.  0.00000000

ion      s     py     pz     px    dxy    dyz    dz2    dxz  x2-y2    tot
    1  0.162  0.005  0.000  0.037  0.000  0.000  0.000  0.000  0.000  0.204
    2  0.162  0.005  0.000  0.037  0.000  0.000  0.000  0.000  0.000  0.204
tot    0.324  0.009  0.000  0.074  0.000  0.000  0.000  0.000  0.000  0.408

band     6 # energy    9.30731376 # occ.  0.00000000

ion      s     py     pz     px    dxy    dyz    dz2    dxz  x2-y2    tot
    1  0.000  0.022  0.104  0.003  0.000  0.000  0.000  0.000  0.000  0.129
    2  0.000  0.022  0.104  0.003  0.000  0.000  0.000  0.000  0.000  0.129
tot    0.000  0.045  0.207  0.006  0.000  0.000  0.000  0.000  0.000  0.257

band     7 # energy    9.30731404 # occ.  0.00000000

ion      s     py     pz     px    dxy    dyz    dz2    dxz  x2-y2    tot
    1  0.000  0.092  0.025  0.012  0.000  0.000  0.000  0.000  0.000  0.129
    2  0.000  0.092  0.025  0.012  0.000  0.000  0.000  0.000  0.000  0.129
tot    0.000  0.184  0.050  0.023  0.000  0.000  0.000  0.000  0.000  0.257

band     8 # energy   13.41887018 # occ.  0.00000000

ion      s     py     pz     px    dxy    dyz    dz2    dxz  x2-y2    tot
    1  0.000  0.004  0.020  0.001  0.000  0.000  0.000  0.000  0.000  0.025
    2  0.000  0.004  0.020  0.001  0.000  0.000  0.000  0.000  0.000  0.025
tot    0.000  0.009  0.040  0.001  0.000  0.000  0.000  0.000  0.000  0.049

band     9 # energy   13.47380200 # occ.  0.00000000

ion      s     py     pz     px    dxy    dyz    dz2    dxz  x2-y2    tot
    1  0.079  0.016  0.000  0.142  0.000  0.000  0.000  0.000  0.000  0.237
    2  0.079  0.019  0.000  0.139  0.000  0.000  0.000  0.000  0.000  0.237
tot    0.157  0.035  0.000  0.281  0.000  0.000  0.000  0.000  0.000  0.473


 k-point     4 :    0.42857143 0.00000000 0.00000000     weight = 0.02332362

band     1 # energy   -4.71100580 # occ.  1.00000000

ion      s     py     pz     px    dxy    dyz    dz2    dxz  x2-y2    tot
    1  0.218  0.002  0.000  0.013  0.000  0.000  0.000  0.000  0.000  0.233
    2  0.218  0.002  0.000  0.013  0.000  0.000  0.000  0.000  0.000  0.233
tot    0.435  0.003  0.000  0.026  0.000  0.000  0.000  0.000  0.000  0.465

band     2 # energy   -1.24688389 # occ.  1.00000000

ion      s     py     pz     px    dxy    dyz    dz2    dxz  x2-y2    tot
    1  0.103  0.011  0.000  0.085  0.000  0.000  0.000  0.000  0.000  0.199
    2  0.103  0.011  0.000  0.085  0.000  0.000  0.000  0.000  0.000  0.199
tot    0.207  0.021  0.000  0.170  0.000  0.000  0.000  0.000  0.000  0.398

band     3 # energy    4.31449090 # occ.  1.00000000

ion      s     py     pz     px    dxy    dyz    dz2    dxz  x2-y2    tot
    1  0.000  0.138  0.062  0.017  0.000  0.000  0.000  0.000  0.000  0.217
    2  0.000  0.138  0.062  0.017  0.000  0.000  0.000  0.000  0.000  0.217
tot    0.000  0.276  0.124  0.035  0.000  0.000  0.000  0.000  0.000  0.435

band     4 # energy    4.31449103 # occ.  1.00000000

ion      s     py     pz     px    dxy    dyz    dz2    dxz  x2-y2    tot
    1  0.000  0.055  0.155  0.007  0.000  0.000  0.000  0.000  0.000  0.217
    2  0.000  0.055  0.155  0.007  0.000  0.000  0.000  0.000  0.000  0.217
tot    0.000  0.110  0.311  0.014  0.000  0.000  0.000  0.000  0.000  0.435

band     5 # energy    7.37593115 # occ.  0.00000000

ion      s     py     pz     px    dxy    dyz    dz2    dxz  x2-y2    tot
    1  0.183  0.003  0.000  0.020  0.000  0.000  0.000  0.000  0.000  0.205
    2  0.183  0.003  0.000  0.020  0.000  0.000  0.000  0.000  0.000  0.205
tot    0.365  0.005  0.000  0.040  0.000  0.000  0.000  0.000  0.000  0.411

band     6 # energy    9.16501149 # occ.  0.00000000

ion      s     py     pz     px    dxy    dyz    dz2    dxz  x2-y2    tot
    1  0.000  0.040  0.054  0.005  0.000  0.000  0.000  0.000  0.000  0.099
    2  0.000  0.040  0.054  0.005  0.000  0.000  0.000  0.000  0.000  0.099
tot    0.000  0.080  0.107  0.010  0.000  0.000  0.000  0.000  0.000  0.197

band     7 # energy    9.16501245 # occ.  0.00000000

ion      s     py     pz     px    dxy    dyz    dz2    dxz  x2-y2    tot
    1  0.000  0.048  0.045  0.006  0.000  0.000  0.000  0.000  0.000  0.099
    2  0.000  0.048  0.045  0.006  0.000  0.000  0.000  0.000  0.000  0.099
tot    0.000  0.095  0.090  0.012  0.000  0.000  0.000  0.000  0.000  0.197

band     8 # energy   13.88978803 # occ.  0.00000000

ion      s     py     pz     px    dxy    dyz    dz2    dxz  x2-y2    tot
    1  0.004  0.007  0.000  0.054  0.000  0.000  0.000  0.000  0.000  0.065
    2  0.004  0.007  0.000  0.054  0.000  0.000  0.000  0.000  0.000  0.065
tot    0.008  0.014  0.000  0.109  0.000  0.000  0.000  0.000  0.000  0.131

band     9 # energy   15.52681029 # occ.  0.00000000

ion      s     py     pz     px    dxy    dyz    dz2    dxz  x2-y2    tot
    1  0.000  0.017  0.022  0.002  0.000  0.000  0.000  0.000  0.000  0.040
    2  0.000  0.017  0.022  0.002  0.000  0.000  0.000  0.000  0.000  0.040
tot    0.000  0.033  0.043  0.003  0.000  0.000  0.000  0.000  0.000  0.080


 k-point     5 :    0.14285714 0.14285714 0.00000000     weight = 0.01749271

band     1 # energy   -6.48074748 # occ.  1.00000000

ion      s     py     pz     px    dxy    dyz    dz2    dxz  x2-y2    tot
    1  0.212  0.001  0.000  0.003  0.000  0.000  0.000  0.000  0.000  0.216
    2  0.212  0.001  0.000  0.003  0.000  0.000  0.000  0.000  0.000  0.216
tot    0.423  0.003  0.000  0.005  0.000  0.000  0.000  0.000  0.000  0.431

band     2 # energy    3.87013752 # occ.  1.00000000

ion      s     py     pz     px    dxy    dyz    dz2    dxz  x2-y2    tot
    1  0.104  0.047  0.000  0.094  0.000  0.000  0.000  0.000  0.000  0.246
    2  0.104  0.047  0.000  0.094  0.000  0.000  0.000  0.000  0.000  0.246
tot    0.209  0.094  0.000  0.188  0.000  0.000  0.000  0.000  0.000  0.492

band     3 # energy    4.52740926 # occ.  1.00000000

ion      s     py     pz     px    dxy    dyz    dz2    dxz  x2-y2    tot
    1  0.000  0.135  0.000  0.068  0.000  0.000  0.000  0.000  0.000  0.203
    2  0.000  0.135  0.000  0.068  0.000  0.000  0.000  0.000  0.000  0.203
tot    0.000  0.271  0.000  0.135  0.000  0.000  0.000  0.000  0.000  0.406

band     4 # energy    4.52740933 # occ.  1.00000000

ion      s     py     pz     px    dxy    dyz    dz2    dxz  x2-y2    tot
    1  0.000  0.000  0.203  0.000  0.000  0.000  0.000  0.000  0.000  0.203
    2  0.000  0.000  0.203  0.000  0.000  0.000  0.000  0.000  0.000  0.203
tot    0.000  0.000  0.406  0.000  0.000  0.000  0.000  0.000  0.000  0.406

band     5 # energy    7.61812338 # occ.  0.00000000

ion      s     py     pz     px    dxy    dyz    dz2    dxz  x2-y2    tot
    1  0.023  0.038  0.000  0.076  0.000  0.000  0.000  0.000  0.000  0.137
    2  0.023  0.038  0.000  0.076  0.000  0.000  0.000  0.000  0.000  0.137
tot    0.046  0.076  0.000  0.152  0.000  0.000  0.000  0.000  0.000  0.273

band     6 # energy    9.74070783 # occ.  0.00000000

ion      s     py     pz     px    dxy    dyz    dz2    dxz  x2-y2    tot
    1  0.000  0.065  0.068  0.032  0.000  0.000  0.000  0.000  0.000  0.165
    2  0.000  0.065  0.068  0.032  0.000  0.000  0.000  0.000  0.000  0.165
tot    0.000  0.129  0.135  0.065  0.000  0.000  0.000  0.000  0.000  0.329

band     7 # energy    9.74070785 # occ.  0.00000000

ion      s     py     pz     px    dxy    dyz    dz2    dxz  x2-y2    tot
    1  0.000  0.045  0.097  0.023  0.000  0.000  0.000  0.000  0.000  0.165
    2  0.000  0.045  0.097  0.023  0.000  0.000  0.000  0.000  0.000  0.165
tot    0.000  0.090  0.194  0.045  0.000  0.000  0.000  0.000  0.000  0.329

band     8 # energy   10.32099843 # occ.  0.00000000

ion      s     py     pz     px    dxy    dyz    dz2    dxz  x2-y2    tot
    1  0.177  0.024  0.000  0.048  0.000  0.000  0.000  0.000  0.000  0.249
    2  0.177  0.024  0.000  0.048  0.000  0.000  0.000  0.000  0.000  0.249
tot    0.355  0.048  0.000  0.095  0.000  0.000  0.000  0.000  0.000  0.498

band     9 # energy   12.41870896 # occ.  0.00000000

ion      s     py     pz     px    dxy    dyz    dz2    dxz  x2-y2    tot
    1  0.077  0.005  0.000  0.009  0.000  0.000  0.000  0.000  0.000  0.091
    2  0.077  0.005  0.000  0.009  0.000  0.000  0.000  0.000  0.000  0.091
tot    0.155  0.009  0.000  0.018  0.000  0.000  0.000  0.000  0.000  0.182


 k-point     6 :    0.28571429 0.14285714 0.00000000     weight = 0.06997085

band     1 # energy   -5.85302157 # occ.  1.00000000

ion      s     py     pz     px    dxy    dyz    dz2    dxz  x2-y2    tot
    1  0.209  0.001  0.000  0.010  0.000  0.000  0.000  0.000  0.000  0.219
    2  0.209  0.001  0.000  0.010  0.000  0.000  0.000  0.000  0.000  0.219
tot    0.419  0.001  0.000  0.019  0.000  0.000  0.000  0.000  0.000  0.439

band     2 # energy    1.66680753 # occ.  1.00000000

ion      s     py     pz     px    dxy    dyz    dz2    dxz  x2-y2    tot
    1  0.114  0.011  0.000  0.105  0.000  0.000  0.000  0.000  0.000  0.230
    2  0.114  0.011  0.000  0.105  0.000  0.000  0.000  0.000  0.000  0.230
tot    0.228  0.022  0.000  0.210  0.000  0.000  0.000  0.000  0.000  0.460

band     3 # energy    3.94201143 # occ.  1.00000000

ion      s     py     pz     px    dxy    dyz    dz2    dxz  x2-y2    tot
    1  0.029  0.150  0.000  0.029  0.000  0.000  0.000  0.000  0.000  0.208
    2  0.029  0.150  0.000  0.029  0.000  0.000  0.000  0.000  0.000  0.208
tot    0.057  0.300  0.000  0.059  0.000  0.000  0.000  0.000  0.000  0.416

band     4 # energy    3.96171923 # occ.  1.00000000

ion      s     py     pz     px    dxy    dyz    dz2    dxz  x2-y2    tot
    1  0.000  0.000  0.202  0.000  0.000  0.000  0.000  0.000  0.000  0.202
    2  0.000  0.000  0.202  0.000  0.000  0.000  0.000  0.000  0.000  0.202
tot    0.000  0.000  0.405  0.000  0.000  0.000  0.000  0.000  0.000  0.405

band     5 # energy    7.83341191 # occ.  0.00000000

ion      s     py     pz     px    dxy    dyz    dz2    dxz  x2-y2    tot
    1  0.034  0.072  0.000  0.030  0.000  0.000  0.000  0.000  0.000  0.136
    2  0.034  0.072  0.000  0.030  0.000  0.000  0.000  0.000  0.000  0.136
tot    0.069  0.144  0.000  0.059  0.000  0.000  0.000  0.000  0.000  0.272

band     6 # energy    9.73300839 # occ.  0.00000000

ion      s     py     pz     px    dxy    dyz    dz2    dxz  x2-y2    tot
    1  0.096  0.104  0.000  0.011  0.000  0.000  0.000  0.000  0.000  0.211
    2  0.096  0.104  0.000  0.011  0.000  0.000  0.000  0.000  0.000  0.211
tot    0.191  0.209  0.000  0.022  0.000  0.000  0.000  0.000  0.000  0.422

band     7 # energy   10.43317048 # occ.  0.00000000

ion      s     py     pz     px    dxy    dyz    dz2    dxz  x2-y2    tot
    1  0.008  0.017  0.000  0.041  0.000  0.000  0.000  0.000  0.000  0.065
    2  0.008  0.017  0.000  0.041  0.000  0.000  0.000  0.000  0.000  0.065
tot    0.015  0.034  0.000  0.081  0.000  0.000  0.000  0.000  0.000  0.131

band     8 # energy   10.56897406 # occ.  0.00000000

ion      s     py     pz     px    dxy    dyz    dz2    dxz  x2-y2    tot
    1  0.000  0.000  0.150  0.000  0.000  0.000  0.000  0.000  0.000  0.150
    2  0.000  0.000  0.150  0.000  0.000  0.000  0.000  0.000  0.000  0.150
tot    0.000  0.000  0.300  0.000  0.000  0.000  0.000  0.000  0.000  0.300

band     9 # energy   14.20323597 # occ.  0.00000000

ion      s     py     pz     px    dxy    dyz    dz2    dxz  x2-y2    tot
    1  0.104  0.008  0.000  0.101  0.000  0.000  0.000  0.000  0.000  0.215
    2  0.104  0.008  0.000  0.101  0.000  0.000  0.000  0.000  0.000  0.214
tot    0.209  0.017  0.001  0.203  0.000  0.000  0.000  0.000  0.000  0.429


 k-point     7 :    0.42857143 0.14285714 0.00000000     weight = 0.06997085

band     1 # energy   -4.81198870 # occ.  1.00000000

ion      s     py     pz     px    dxy    dyz    dz2    dxz  x2-y2    tot
    1  0.211  0.001  0.000  0.017  0.000  0.000  0.000  0.000  0.000  0.229
    2  0.211  0.001  0.000  0.017  0.000  0.000  0.000  0.000  0.000  0.229
tot    0.422  0.002  0.000  0.033  0.000  0.000  0.000  0.000  0.000  0.457

band     2 # energy   -0.59333470 # occ.  1.00000000

ion      s     py     pz     px    dxy    dyz    dz2    dxz  x2-y2    tot
    1  0.120  0.012  0.000  0.082  0.000  0.000  0.000  0.000  0.000  0.214
    2  0.120  0.012  0.000  0.082  0.000  0.000  0.000  0.000  0.000  0.214
tot    0.240  0.024  0.000  0.164  0.000  0.000  0.000  0.000  0.000  0.428

band     3 # energy    3.23566820 # occ.  1.00000000

ion      s     py     pz     px    dxy    dyz    dz2    dxz  x2-y2    tot
    1  0.038  0.139  0.000  0.027  0.000  0.000  0.000  0.000  0.000  0.205
    2  0.038  0.139  0.000  0.027  0.000  0.000  0.000  0.000  0.000  0.205
tot    0.076  0.279  0.000  0.055  0.000  0.000  0.000  0.000  0.000  0.409

band     4 # energy    3.76061567 # occ.  1.00000000

ion      s     py     pz     px    dxy    dyz    dz2    dxz  x2-y2    tot
    1  0.000  0.000  0.206  0.000  0.000  0.000  0.000  0.000  0.000  0.206
    2  0.000  0.000  0.206  0.000  0.000  0.000  0.000  0.000  0.000  0.206
tot    0.000  0.000  0.412  0.000  0.000  0.000  0.000  0.000  0.000  0.412

band     5 # energy    7.92788659 # occ.  0.00000000

ion      s     py     pz     px    dxy    dyz    dz2    dxz  x2-y2    tot
    1  0.065  0.046  0.000  0.023  0.000  0.000  0.000  0.000  0.000  0.134
    2  0.065  0.046  0.000  0.023  0.000  0.000  0.000  0.000  0.000  0.134
tot    0.130  0.092  0.000  0.046  0.000  0.000  0.000  0.000  0.000  0.268

band     6 # energy    9.65175464 # occ.  0.00000000

ion      s     py     pz     px    dxy    dyz    dz2    dxz  x2-y2    tot
    1  0.063  0.100  0.000  0.001  0.000  0.000  0.000  0.000  0.000  0.164
    2  0.063  0.100  0.000  0.001  0.000  0.000  0.000  0.000  0.000  0.164
tot    0.125  0.201  0.000  0.002  0.000  0.000  0.000  0.000  0.000  0.328

band     7 # energy   10.35632653 # occ.  0.00000000

ion      s     py     pz     px    dxy    dyz    dz2    dxz  x2-y2    tot
    1  0.000  0.000  0.113  0.000  0.000  0.000  0.000  0.000  0.000  0.113
    2  0.000  0.000  0.113  0.000  0.000  0.000  0.000  0.000  0.000  0.113
tot    0.000  0.000  0.227  0.000  0.000  0.000  0.000  0.000  0.000  0.227

band     8 # energy   11.70472450 # occ.  0.00000000

ion      s     py     pz     px    dxy    dyz    dz2    dxz  x2-y2    tot
    1  0.022  0.050  0.000  0.034  0.000  0.000  0.000  0.000  0.000  0.106
    2  0.022  0.050  0.000  0.034  0.000  0.000  0.000  0.000  0.000  0.106
tot    0.043  0.101  0.000  0.069  0.000  0.000  0.000  0.000  0.000  0.213

band     9 # energy   15.60047471 # occ.  0.00000000

ion      s     py     pz     px    dxy    dyz    dz2    dxz  x2-y2    tot
    1  0.005  0.006  0.000  0.049  0.000  0.000  0.000  0.000  0.000  0.061
    2  0.005  0.006  0.000  0.049  0.000  0.000  0.000  0.000  0.000  0.060
tot    0.009  0.013  0.000  0.098  0.000  0.000  0.000  0.000  0.000  0.121


 k-point     8 :   -0.42857143 0.14285714 0.00000000     weight = 0.06997085

band     1 # energy   -4.23930024 # occ.  1.00000000

ion      s     py     pz     px    dxy    dyz    dz2    dxz  x2-y2    tot
    1  0.221  0.005  0.000  0.012  0.000  0.000  0.000  0.000  0.000  0.238
    2  0.221  0.005  0.000  0.012  0.000  0.000  0.000  0.000  0.000  0.238
tot    0.441  0.011  0.000  0.024  0.000  0.000  0.000  0.000  0.000  0.476

band     2 # energy   -1.48302533 # occ.  1.00000000

ion      s     py     pz     px    dxy    dyz    dz2    dxz  x2-y2    tot
    1  0.112  0.008  0.000  0.082  0.000  0.000  0.000  0.000  0.000  0.203
    2  0.112  0.008  0.000  0.082  0.000  0.000  0.000  0.000  0.000  0.203
tot    0.225  0.017  0.000  0.164  0.000  0.000  0.000  0.000  0.000  0.406

band     3 # energy    2.80825037 # occ.  1.00000000

ion      s     py     pz     px    dxy    dyz    dz2    dxz  x2-y2    tot
    1  0.037  0.139  0.000  0.024  0.000  0.000  0.000  0.000  0.000  0.200
    2  0.037  0.139  0.000  0.024  0.000  0.000  0.000  0.000  0.000  0.200
tot    0.073  0.278  0.000  0.048  0.000  0.000  0.000  0.000  0.000  0.400

band     4 # energy    3.96177639 # occ.  1.00000000

ion      s     py     pz     px    dxy    dyz    dz2    dxz  x2-y2    tot
    1  0.000  0.000  0.211  0.000  0.000  0.000  0.000  0.000  0.000  0.211
    2  0.000  0.000  0.211  0.000  0.000  0.000  0.000  0.000  0.000  0.211
tot    0.000  0.000  0.422  0.000  0.000  0.000  0.000  0.000  0.000  0.422

band     5 # energy    8.03753603 # occ.  0.00000000

ion      s     py     pz     px    dxy    dyz    dz2    dxz  x2-y2    tot
    1  0.087  0.030  0.000  0.030  0.000  0.000  0.000  0.000  0.000  0.147
    2  0.087  0.030  0.000  0.030  0.000  0.000  0.000  0.000  0.000  0.147
tot    0.174  0.059  0.000  0.060  0.000  0.000  0.000  0.000  0.000  0.294

band     6 # energy    9.56410871 # occ.  0.00000000

ion      s     py     pz     px    dxy    dyz    dz2    dxz  x2-y2    tot
    1  0.049  0.091  0.000  0.002  0.000  0.000  0.000  0.000  0.000  0.142
    2  0.049  0.091  0.000  0.002  0.000  0.000  0.000  0.000  0.000  0.142
tot    0.099  0.181  0.000  0.004  0.000  0.000  0.000  0.000  0.000  0.284

band     7 # energy    9.94869502 # occ.  0.00000000

ion      s     py     pz     px    dxy    dyz    dz2    dxz  x2-y2    tot
    1  0.000  0.000  0.104  0.000  0.000  0.000  0.000  0.000  0.000  0.104
    2  0.000  0.000  0.104  0.000  0.000  0.000  0.000  0.000  0.000  0.104
tot    0.000  0.000  0.208  0.000  0.000  0.000  0.000  0.000  0.000  0.208

band     8 # energy   14.21238003 # occ.  0.00000000

ion      s     py     pz     px    dxy    dyz    dz2    dxz  x2-y2    tot
    1  0.005  0.072  0.000  0.052  0.000  0.000  0.000  0.000  0.000  0.130
    2  0.005  0.073  0.000  0.055  0.000  0.000  0.000  0.000  0.000  0.133
tot    0.011  0.145  0.000  0.107  0.000  0.000  0.000  0.000  0.000  0.263

band     9 # energy   14.77433288 # occ.  0.00000000

ion      s     py     pz     px    dxy    dyz    dz2    dxz  x2-y2    tot
    1  0.014  0.004  0.004  0.075  0.000  0.000  0.000  0.000  0.000  0.097
    2  0.014  0.004  0.004  0.074  0.000  0.000  0.000  0.000  0.000  0.096
tot    0.028  0.008  0.009  0.149  0.000  0.000  0.000  0.000  0.000  0.193


 k-point     9 :   -0.28571429 0.14285714 0.00000000     weight = 0.06997085

band     1 # energy   -5.19198277 # occ.  1.00000000

ion      s     py     pz     px    dxy    dyz    dz2    dxz  x2-y2    tot
    1  0.210  0.007  0.000  0.009  0.000  0.000  0.000  0.000  0.000  0.225
    2  0.210  0.007  0.000  0.009  0.000  0.000  0.000  0.000  0.000  0.225
tot    0.419  0.013  0.000  0.017  0.000  0.000  0.000  0.000  0.000  0.450

band     2 # energy    0.10937808 # occ.  1.00000000

ion      s     py     pz     px    dxy    dyz    dz2    dxz  x2-y2    tot
    1  0.120  0.012  0.000  0.087  0.000  0.000  0.000  0.000  0.000  0.220
    2  0.120  0.012  0.000  0.087  0.000  0.000  0.000  0.000  0.000  0.220
tot    0.240  0.025  0.000  0.175  0.000  0.000  0.000  0.000  0.000  0.439

band     3 # energy    2.81413621 # occ.  1.00000000

ion      s     py     pz     px    dxy    dyz    dz2    dxz  x2-y2    tot
    1  0.027  0.136  0.000  0.029  0.000  0.000  0.000  0.000  0.000  0.193
    2  0.027  0.136  0.000  0.029  0.000  0.000  0.000  0.000  0.000  0.193
tot    0.055  0.273  0.000  0.058  0.000  0.000  0.000  0.000  0.000  0.385

band     4 # energy    4.49322485 # occ.  1.00000000

ion      s     py     pz     px    dxy    dyz    dz2    dxz  x2-y2    tot
    1  0.000  0.000  0.217  0.000  0.000  0.000  0.000  0.000  0.000  0.217
    2  0.000  0.000  0.217  0.000  0.000  0.000  0.000  0.000  0.000  0.217
tot    0.000  0.000  0.433  0.000  0.000  0.000  0.000  0.000  0.000  0.433

band     5 # energy    8.44766680 # occ.  0.00000000

ion      s     py     pz     px    dxy    dyz    dz2    dxz  x2-y2    tot
    1  0.102  0.021  0.000  0.050  0.000  0.000  0.000  0.000  0.000  0.173
    2  0.102  0.021  0.000  0.050  0.000  0.000  0.000  0.000  0.000  0.173
tot    0.203  0.043  0.000  0.100  0.000  0.000  0.000  0.000  0.000  0.347

band     6 # energy    9.69186758 # occ.  0.00000000

ion      s     py     pz     px    dxy    dyz    dz2    dxz  x2-y2    tot
    1  0.000  0.000  0.126  0.000  0.000  0.000  0.000  0.000  0.000  0.126
    2  0.000  0.000  0.126  0.000  0.000  0.000  0.000  0.000  0.000  0.126
tot    0.000  0.000  0.253  0.000  0.000  0.000  0.000  0.000  0.000  0.253

band     7 # energy    9.76364907 # occ.  0.00000000

ion      s     py     pz     px    dxy    dyz    dz2    dxz  x2-y2    tot
    1  0.028  0.091  0.000  0.012  0.000  0.000  0.000  0.000  0.000  0.131
    2  0.028  0.091  0.000  0.012  0.000  0.000  0.000  0.000  0.000  0.131
tot    0.056  0.182  0.000  0.025  0.000  0.000  0.000  0.000  0.000  0.262

band     8 # energy   12.62484968 # occ.  0.00000000

ion      s     py     pz     px    dxy    dyz    dz2    dxz  x2-y2    tot
    1  0.050  0.019  0.000  0.095  0.000  0.000  0.000  0.000  0.000  0.163
    2  0.050  0.019  0.000  0.095  0.000  0.000  0.000  0.000  0.000  0.163
tot    0.100  0.038  0.000  0.189  0.000  0.000  0.000  0.000  0.000  0.327

band     9 # energy   12.69329080 # occ.  0.00000000

ion      s     py     pz     px    dxy    dyz    dz2    dxz  x2-y2    tot
    1  0.000  0.000  0.026  0.000  0.000  0.000  0.000  0.000  0.000  0.026
    2  0.000  0.000  0.026  0.000  0.000  0.000  0.000  0.000  0.000  0.026
tot    0.000  0.000  0.051  0.000  0.000  0.000  0.000  0.000  0.000  0.051


 k-point    10 :   -0.14285714 0.14285714 0.00000000     weight = 0.03498542

band     1 # energy   -6.12272395 # occ.  1.00000000

ion      s     py     pz     px    dxy    dyz    dz2    dxz  x2-y2    tot