<?xml version="1.0" encoding="ISO-8859-1"?>
<modeling>
 <generator>
  <i name="program" type="string">vasp </i>
  <i name="version" type="string">6.4.1  </i>
  <i name="subversion" type="string">05Apr23 (build May 18 2023 13:19:41) complex                          parallel </i>
  <i name="platform" type="string">LinuxNV_CrayMPICH </i>
  <i name="date" type="string">2023 10 12 </i>
  <i name="time" type="string">12:43:40 </i>
 </generator>
 <incar>
  <i type="string" name="PREC">Accurate</i>
  <i type="string" name="ALGO">All</i>
  <i type="int" name="ISPIN">     2</i>
  <i type="int" name="NELM">   200</i>
  <i name="EDIFF">      0.00001000</i>
  <i type="int" name="NSW">     0</i>
  <i name="ENCUT">    680.00000000</i>
  <i name="ENAUG">   1360.00000000</i>
  <i type="logical" name="LREAL"> F  </i>
  <i type="int" name="ISMEAR">     0</i>
  <i name="SIGMA">      0.05000000</i>
  <i name="KSPACING">      0.28754316</i>
  <i type="int" name="LMAXMIX">     6</i>
  <i type="logical" name="LWAVE"> F  </i>
  <i type="logical" name="LCHARG"> T  </i>
  <i type="int" name="LORBIT">    11</i>
  <i type="logical" name="LASPH"> T  </i>
  <i type="logical" name="LAECHG"> T  </i>
  <i type="string" name="METAGGA">R2scan</i>
  <i type="logical" name="LMIXTAU"> T  </i>
 </incar>
 <primitive_cell>
  <structure name="primitive_cell" >
   <crystal>
    <varray name="basis" >
     <v>       3.34889828       0.00000000       1.93348733 </v>
     <v>       1.11629943       3.15737158       1.93348733 </v>
     <v>       0.00000000       0.00000000       3.86697465 </v>
    </varray>
    <i name="volume">     40.88829275 </i>
    <varray name="rec_basis" >
     <v>       0.29860567      -0.10557305       0.00000000 </v>
     <v>       0.00000000       0.31671914       0.00000000 </v>
     <v>      -0.14930283      -0.10557305       0.25860009 </v>
    </varray>
   </crystal>
   <varray name="positions" >
    <v>       0.25000000       0.25000000       0.25000000 </v>
    <v>       0.00000000       0.00000000       0.00000000 </v>
   </varray>
  </structure>
  <varray name="primitive_index" >
   <v type="int" >        1 </v>
   <v type="int" >        2 </v>
  </varray>
 </primitive_cell>
 <kpoints>
  <generation param="Gamma">
   <v type="int" name="divisions">       7        7        7 </v>
   <v name="usershift">      0.00000000       0.00000000       0.00000000 </v>
   <v name="genvec1">      0.14285714      -0.00000000       0.00000000 </v>
   <v name="genvec2">      0.00000000       0.14285714       0.00000000 </v>
   <v name="genvec3">     -0.00000000      -0.00000000       0.14285714 </v>
   <v name="shift">      0.00000000       0.00000000       0.00000000 </v>
  </generation>
  <varray name="kpointlist" >
   <v>       0.00000000       0.00000000       0.00000000 </v>
   <v>       0.14285714       0.00000000       0.00000000 </v>
   <v>       0.28571429       0.00000000       0.00000000 </v>
   <v>       0.42857143       0.00000000       0.00000000 </v>
   <v>       0.14285714       0.14285714       0.00000000 </v>
   <v>       0.28571429       0.14285714       0.00000000 </v>
   <v>       0.42857143       0.14285714       0.00000000 </v>
   <v>      -0.42857143       0.14285714       0.00000000 </v>
   <v>      -0.28571429       0.14285714       0.00000000 </v>
   <v>      -0.14285714       0.14285714       0.00000000 </v>
   <v>       0.28571429       0.28571429       0.00000000 </v>
   <v>       0.42857143       0.28571429       0.00000000 </v>
   <v>      -0.42857143       0.28571429       0.00000000 </v>
   <v>      -0.28571429       0.28571429       0.00000000 </v>
   <v>       0.42857143       0.42857143       0.00000000 </v>
   <v>      -0.42857143       0.42857143       0.00000000 </v>
   <v>       0.42857143       0.28571429       0.14285714 </v>
   <v>      -0.42857143       0.28571429       0.14285714 </v>
   <v>      -0.42857143       0.42857143       0.14285714 </v>
   <v>      -0.28571429       0.42857143       0.14285714 </v>
  </varray>
  <varray name="weights" >
   <v>       0.00291545 </v>
   <v>       0.02332362 </v>
   <v>       0.02332362 </v>
   <v>       0.02332362 </v>
   <v>       0.01749271 </v>
   <v>       0.06997085 </v>
   <v>       0.06997085 </v>
   <v>       0.06997085 </v>
   <v>       0.06997085 </v>
   <v>       0.03498542 </v>
   <v>       0.01749271 </v>
   <v>       0.06997085 </v>
   <v>       0.06997085 </v>
   <v>       0.03498542 </v>
   <v>       0.01749271 </v>
   <v>       0.03498542 </v>
   <v>       0.06997085 </v>
   <v>       0.13994169 </v>
   <v>       0.06997085 </v>
   <v>       0.06997085 </v>
  </varray>
 </kpoints>
 <parameters>
  <separator name="general" >
   <i type="string" name="SYSTEM">unknown system</i>
   <i type="logical" name="LCOMPAT"> F  </i>
  </separator>
  <separator name="electronic" >
   <i type="string" name="PREC">accura</i>
   <i name="ENMAX">    680.00000000</i>
   <i name="ENAUG">   1360.00000000</i>
   <i name="EDIFF">      0.00001000</i>
   <i type="int" name="IALGO">    58</i>
   <i type="int" name="IWAVPR">    10</i>
   <i type="int" name="NBANDS">     9</i>
   <i type="int" name="NBANDSLOW">    -1</i>
   <i type="int" name="NBANDSHIGH">    -1</i>
   <i name="NELECT">      8.00000000</i>
   <i type="int" name="TURBO">     0</i>
   <i type="int" name="IRESTART">     0</i>
   <i type="int" name="NREBOOT">     0</i>
   <i type="int" name="NMIN">     0</i>
   <i name="EREF">      0.00000000</i>
   <separator name="electronic smearing" >
    <i type="int" name="ISMEAR">     0</i>
    <i name="SIGMA">      0.05000000</i>
    <i name="KSPACING">      0.28754316</i>
    <i type="logical" name="KGAMMA"> T  </i>
    <i type="logical" name="KBLOWUP"> T  </i>
   </separator>
   <separator name="electronic projectors" >
    <i type="logical" name="LREAL"> F  </i>
    <v name="ROPT">      0.00000000</v>
    <i type="int" name="LMAXPAW">  -100</i>
    <i type="int" name="LMAXMIX">     6</i>
    <i type="logical" name="NLSPLINE"> F  </i>
   </separator>
   <separator name="electronic startup" >
    <i type="int" name="ISTART">     0</i>
    <i type="int" name="ICHARG">     2</i>
    <i type="int" name="INIWAV">     1</i>
   </separator>
   <separator name="electronic spin" >
    <i type="int" name="ISPIN">     2</i>
    <i type="logical" name="LNONCOLLINEAR"> F  </i>
    <v name="MAGMOM">      1.00000000      1.00000000</v>
    <i name="NUPDOWN">     -1.00000000</i>
    <i type="logical" name="LSORBIT"> F  </i>
    <v name="SAXIS">      0.00000000      0.00000000      1.00000000</v>
    <i type="logical" name="LSPIRAL"> F  </i>
    <v name="QSPIRAL">      0.00000000      0.00000000      0.00000000</v>
    <i type="logical" name="LZEROZ"> F  </i>
   </separator>
   <separator name="electronic exchange-correlation" >
    <i type="logical" name="LASPH"> T  </i>
    <i type="logical" name="LMETAGGA"> F  </i>
   </separator>
   <separator name="electronic convergence" >
    <i type="int" name="NELM">   200</i>
    <i type="int" name="NELMDL">     0</i>
    <i type="int" name="NELMIN">     2</i>
    <i name="ENINI">    680.00000000</i>
    <separator name="electronic convergence detail" >
     <i type="logical" name="LDIAG"> T  </i>
     <i type="logical" name="LSUBROT"> F  </i>
     <i name="WEIMIN">      0.00000000</i>
     <i name="EBREAK">      0.00000028</i>
     <i name="DEPER">      0.30000000</i>
     <i type="int" name="NRMM">     4</i>
     <i name="TIME">      0.40000000</i>
    </separator>
   </separator>
   <separator name="electronic mixer" >
    <i name="AMIX">      0.40000000</i>
    <i name="BMIX">      1.00000000</i>
    <i name="AMIN">      0.10000000</i>
    <i name="AMIX_MAG">      1.60000000</i>
    <i name="BMIX_MAG">      1.00000000</i>
    <separator name="electronic mixer details" >
     <i type="int" name="IMIX">     4</i>
     <i type="logical" name="MIXFIRST"> F  </i>
     <i type="int" name="MAXMIX">   -45</i>
     <i name="WC">    100.00000000</i>
     <i type="int" name="INIMIX">     1</i>
     <i type="int" name="MIXPRE">     1</i>
     <i type="int" name="MREMOVE">     5</i>
    </separator>
   </separator>
   <separator name="electronic dipolcorrection" >
    <i type="logical" name="LDIPOL"> F  </i>
    <i type="logical" name="LMONO"> F  </i>
    <i type="int" name="IDIPOL">     0</i>
    <i name="EPSILON">      1.00000000</i>
    <v name="DIPOL">   -100.00000000   -100.00000000   -100.00000000</v>
    <i name="EFIELD">      0.00000000</i>
   </separator>
  </separator>
  <separator name="grids" >
   <i type="int" name="NGX">    36</i>
   <i type="int" name="NGY">    36</i>
   <i type="int" name="NGZ">    36</i>
   <i type="int" name="NGXF">    72</i>
   <i type="int" name="NGYF">    72</i>
   <i type="int" name="NGZF">    72</i>
   <i type="logical" name="ADDGRID"> F  </i>
  </separator>
  <separator name="ionic" >
   <i type="int" name="NSW">     0</i>
   <i type="int" name="IBRION">    -1</i>
   <i type="int" name="MDALGO">     0</i>
   <i type="int" name="ISIF">     2</i>
   <i name="PSTRESS">      0.00000000</i>
   <i name="EDIFFG">      0.00010000</i>
   <i type="int" name="NFREE">     0</i>
   <i name="POTIM">      0.50000000</i>
   <i name="SMASS">     -3.00000000</i>
   <i name="SCALEE">      1.00000000</i>
  </separator>
  <separator name="ionic md" >
   <i name="TEBEG">      0.00010000</i>
   <i name="TEEND">      0.00010000</i>
   <i type="int" name="NBLOCK">     1</i>
   <i type="int" name="KBLOCK">     1</i>
   <i type="int" name="NPACO">   256</i>
   <i name="APACO">     10.00000000</i>
  </separator>
  <separator name="symmetry" >
   <i type="int" name="ISYM">     2</i>
   <i name="SYMPREC">      0.00001000</i>
  </separator>
  <separator name="dos" >
   <i type="int" name="LORBIT">    11</i>
   <v name="RWIGS">     -1.00000000</v>
   <i type="int" name="NEDOS">   301</i>
   <i name="EMIN">     10.00000000</i>
   <i name="EMAX">    -10.00000000</i>
   <i name="EFERMI">      0.00000000</i>
  </separator>
  <separator name="writing" >
   <i type="int" name="NWRITE">     2</i>
   <i type="logical" name="LWAVE"> F  </i>
   <i type="logical" name="LDOWNSAMPLE"> F  </i>
   <i type="logical" name="LCHARG"> T  </i>
   <i type="logical" name="LPARD"> F  </i>
   <i type="logical" name="LVTOT"> F  </i>
   <i type="logical" name="LVHAR"> F  </i>
   <i type="logical" name="LELF"> F  </i>
   <i type="logical" name="LOPTICS"> F  </i>
   <v name="STM">      0.00000000      0.00000000      0.00000000      0.00000000      0.00000000      0.00000000      0.00000000</v>
  </separator>
  <separator name="performance" >
   <i type="int" name="NPAR">     1</i>
   <i type="int" name="NSIM">     4</i>
   <i type="int" name="NBLK">    -1</i>
   <i type="logical" name="LPLANE"> T  </i>
   <i type="logical" name="LSCALAPACK"> T  </i>
   <i type="logical" name="LSCAAWARE"> F  </i>
   <i type="logical" name="LSCALU"> F  </i>
   <i type="logical" name="LASYNC"> F  </i>
   <i type="logical" name="LORBITALREAL"> F  </i>
  </separator>
  <separator name="miscellaneous" >
   <i type="int" name="IDIOT">     3</i>
   <i type="int" name="PHON_NSTRUCT">    -1</i>
   <i type="logical" name="LMUSIC"> F  </i>
   <v name="POMASS">     28.08500000</v>
   <v name="DARWINR">      0.00000000</v>
   <v name="DARWINV">      1.00000000</v>
   <i type="logical" name="LCORR"> T  </i>
  </separator>
  <i type="logical" name="GGA_COMPAT"> T  </i>
  <i type="logical" name="LBERRY"> F  </i>
  <i type="int" name="ICORELEVEL">     0</i>
  <i type="logical" name="LDAU"> F  </i>
  <i type="int" name="I_CONSTRAINED_M">     0</i>
  <separator name="electronic exchange-correlation" >
   <i type="string" name="GGA">--</i>
   <i type="int" name="VOSKOWN">     0</i>
   <i type="logical" name="LHFCALC"> F  </i>
   <i type="string" name="PRECFOCK"></i>
   <i type="logical" name="LSYMGRAD"> F  </i>
   <i type="logical" name="LHFONE"> F  </i>
   <i type="logical" name="LRHFCALC"> F  </i>
   <i type="logical" name="LTHOMAS"> F  </i>
   <i type="logical" name="LMODELHF"> F  </i>
   <i type="logical" name="LFOCKACE"> F  </i>
   <i name="ENCUT4O">     -1.00000000</i>
   <i type="int" name="EXXOEP">     0</i>
   <i type="int" name="FOURORBIT">     0</i>
   <i name="AEXX">      0.00000000</i>
   <i name="HFALPHA">      0.00000000</i>
   <i name="MCALPHA">      0.00000000</i>
   <i name="ALDAX">      1.00000000</i>
   <i name="AGGAX">      1.00000000</i>
   <i name="ALDAC">      1.00000000</i>
   <i name="AGGAC">      1.00000000</i>
   <i type="int" name="NKREDX">     1</i>
   <i type="int" name="NKREDY">     1</i>
   <i type="int" name="NKREDZ">     1</i>
   <i type="logical" name="SHIFTRED"> F  </i>
   <i type="logical" name="ODDONLY"> F  </i>
   <i type="logical" name="EVENONLY"> F  </i>
   <i type="int" name="LMAXFOCK">     0</i>
   <i type="int" name="NMAXFOCKAE">     0</i>
   <i type="logical" name="LFOCKAEDFT"> F  </i>
   <i name="HFSCREEN">      0.00000000</i>
   <i name="HFSCREENC">      0.00000000</i>
   <i type="int" name="NBANDSGWLOW">     0</i>
  </separator>
  <separator name="vdW DFT" >
   <i type="logical" name="LUSE_VDW"> F  </i>
   <i type="int" name="IVDW_NL">     2</i>
   <i type="logical" name="LSPIN_VDW"> F  </i>
   <i name="Zab_VDW">     -0.84910000</i>
   <i name="PARAM1">      0.12340000</i>
   <i name="PARAM2">      1.00000000</i>
   <i name="PARAM3">      0.00000000</i>
  </separator>
  <separator name="model GW" >
   <i type="int" name="MODEL_GW">     0</i>
   <i name="MODEL_EPS0">     12.26648782</i>
   <i name="MODEL_ALPHA">      1.00000000</i>
  </separator>
  <separator name="linear response parameters" >
   <i type="logical" name="LEPSILON"> F  </i>
   <i type="logical" name="LRPA"> F  </i>
   <i type="logical" name="LNABLA"> F  </i>
   <i type="logical" name="LVEL"> F  </i>
   <i name="CSHIFT">      0.10000000</i>
   <i name="OMEGAMAX">     -1.00000000</i>
   <i name="DEG_THRESHOLD">      0.00200000</i>
   <i name="RTIME">     -0.10000000</i>
   <i name="WPLASMAI">      0.00000000</i>
   <v name="DFIELD">      0.00000000      0.00000000      0.00000000</v>
   <v name="WPLASMA">      0.00000000      0.00000000      0.00000000      0.00000000      0.00000000      0.00000000      0.00000000      0.00000000      0.00000000</v>
  </separator>
  <separator name="orbital magnetization" >
   <i type="logical" name="NUCIND"> F  </i>
   <v name="MAGPOS">      0.00000000      0.00000000      0.00000000</v>
   <i type="logical" name="LNICSALL"> T  </i>
   <i type="logical" name="ORBITALMAG"> F  </i>
   <i type="logical" name="LMAGBLOCH"> F  </i>
   <i type="logical" name="LCHIMAG"> F  </i>
   <i type="logical" name="LGAUGE"> T  </i>
   <i type="int" name="MAGATOM">     0</i>
   <v name="MAGDIPOL">      0.00000000      0.00000000      0.00000000</v>
   <v name="AVECCONST">      0.00000000      0.00000000      0.00000000</v>
  </separator>
  <separator name="response functions" >
   <i type="logical" name="LALL_IN_ONE"> F  </i>
   <i type="int" name="IALL_IN_ONE">    -1</i>
   <i type="int" name="NBANDS_WAVE">    -1</i>
   <i type="logical" name="LFINITE_TEMPERATURE"> F  </i>
   <i type="logical" name="LADDER"> F  </i>
   <i type="logical" name="LRPAFORCE"> F  </i>
   <i type="logical" name="LFXC"> F  </i>
   <i type="logical" name="LHARTREE"> T  </i>
   <i type="int" name="IBSE">     0</i>
   <v type="int" name="KPOINT">    -1     0     0     0</v>
   <i type="logical" name="LTCTC"> F  </i>
   <i type="logical" name="LTCTE"> F  </i>
   <i type="logical" name="LTETE"> F  </i>
   <i type="logical" name="LTRIPLET"> F  </i>
   <i type="logical" name="LFXCEPS"> F  </i>
   <i type="logical" name="LFXHEG"> F  </i>
   <i type="int" name="NATURALO">     2</i>
   <i type="logical" name="LHOLEGF"> F  </i>
   <i type="logical" name="L2ORDER"> F  </i>
   <i type="logical" name="LDMP1"> F  </i>
   <i type="logical" name="LMP2LT"> F  </i>
   <i type="logical" name="LSMP2LT"> F  </i>
   <i type="logical" name="LGWLF"> F  </i>
   <i name="ENCUTGW">     -1.60000002</i>
   <i name="ENCUTGWSOFT">     -1.60000002</i>
   <i name="ENCUTLF">     -1.00000000</i>
   <i type="logical" name="LESF_SPLINES"> F  </i>
   <i type="int" name="LMAXMP2">    -1</i>
   <i name="SCISSOR">      0.00000000</i>
   <i type="int" name="NOMEGA">     0</i>
   <i type="int" name="NOMEGAR">     0</i>
   <i type="int" name="NBANDSGW">    -1</i>
   <i type="int" name="NBANDSO">    -1</i>
   <i type="int" name="NBANDSV">    -1</i>
   <i type="int" name="NELMGW">     1</i>
   <i type="int" name="NELMHF">     1</i>
   <i type="int" name="DIM">     3</i>
   <i type="int" name="IESPILON">     4</i>
   <i type="int" name="ANTIRES">     0</i>
   <i name="OMEGAMAX">    -30.00000000</i>
   <i name="OMEGAMIN">    -30.00000000</i>
   <i name="OMEGATL">   -200.00000000</i>
   <i type="int" name="OMEGAGRID">     0</i>
   <i name="CSHIFT">     -0.10000000</i>
   <i type="logical" name="LSELFENERGY"> F  </i>
   <i type="logical" name="LSPECTRAL"> F  </i>
   <i type="logical" name="LSPECTRALGW"> F  </i>
   <i type="logical" name="LSINGLES"> F  </i>
   <i type="logical" name="LFERMIGW"> F  </i>
   <i type="logical" name="ODDONLYGW"> F  </i>
   <i type="logical" name="EVENONLYGW"> F  </i>
   <i type="int" name="NKREDLFX">     1</i>
   <i type="int" name="NKREDLFY">     1</i>
   <i type="int" name="NKREDLFZ">     1</i>
   <i type="int" name="MAXMEM">  2800</i>
   <i type="int" name="TELESCOPE">     0</i>
   <i type="int" name="NTAUPAR">    -1</i>
   <i type="int" name="NOMEGAPAR">    -1</i>
   <i name="DAMP_NEWTON">      0.80000001</i>
   <i name="LAMBDA">      1.00000000</i>
  </separator>
  <separator name="External order field" >
   <i name="OFIELD_KAPPA">      0.00000000</i>
   <v name="OFIELD_K">      0.00000000      0.00000000      0.00000000</v>
   <i name="OFIELD_Q6_NEAR">      0.00000000</i>
   <i name="OFIELD_Q6_FAR">      0.00000000</i>
   <i name="OFIELD_A">      0.00000000</i>
  </separator>
  <separator name="optional k-points parameters" >
   <i type="int" name="KPOINTS_OPT_MODE">     1</i>
   <i type="logical" name="LKPOINTS_OPT"> F  </i>
  </separator>
 </parameters>
 <atominfo>
  <atoms>       2 </atoms>
  <types>       1 </types>
  <array name="atoms" >
   <dimension dim="1">ion</dimension>
   <field type="string">element</field>
   <field type="int">atomtype</field>
   <set>
    <rc><c>Si</c><c>   1</c></rc>
    <rc><c>Si</c><c>   1</c></rc>
   </set>
  </array>
  <array name="atomtypes" >
   <dimension dim="1">type</dimension>
   <field type="int">atomspertype</field>
   <field type="string">element</field>
   <field>mass</field>
   <field>valence</field>
   <field type="string">pseudopotential</field>
   <set>
    <rc><c>   2</c><c>Si</c><c>     28.08500000</c><c>      4.00000000</c><c>  PAW_PBE Si 05Jan2001                  </c></rc>
   </set>
  </array>
 </atominfo>
 <structure name="initialpos" >
  <crystal>
   <varray name="basis" >
    <v>       3.34889828       0.00000000       1.93348733 </v>
    <v>       1.11629943       3.15737158       1.93348733 </v>
    <v>       0.00000000       0.00000000       3.86697465 </v>
   </varray>
   <i name="volume">     40.88829275 </i>
   <varray name="rec_basis" >
    <v>       0.29860567      -0.10557305       0.00000000 </v>
    <v>       0.00000000       0.31671914       0.00000000 </v>
    <v>      -0.14930283      -0.10557305       0.25860009 </v>
   </varray>
  </crystal>
  <varray name="positions" >
   <v>       0.25000000       0.25000000       0.25000000 </v>
   <v>       0.00000000       0.00000000       0.00000000 </v>
  </varray>
 </structure>
 <calculation>
  <scstep>
   <time name="total">    5.72    5.72</time>
   <energy>
    <i name="alphaZ">      3.29318037 </i>
    <i name="ewald">   -226.94490225 </i>
    <i name="hartreedc">    -11.32338905 </i>
    <i name="XCdc">     -9.61922023 </i>
    <i name="pawpsdc">    166.29657821 </i>
    <i name="pawaedc">   -144.48464942 </i>
    <i name="eentropy">     -0.00078744 </i>
    <i name="bandstr">     19.60454928 </i>
    <i name="atom">    206.13322186 </i>
    <i name="e_fr_energy">      2.95458134 </i>
    <i name="e_wo_entrp">      2.95536878 </i>
    <i name="e_0_energy">      2.95497506 </i>
   </energy>
  </scstep>
  <scstep>
   <time name="total">    5.33    5.33</time>
   <energy>
    <i name="e_fr_energy">    -17.45212166 </i>
    <i name="e_wo_entrp">    -17.45144171 </i>
    <i name="e_0_energy">    -17.45178169 </i>
   </energy>
  </scstep>
  <scstep>
   <time name="total">    5.04    5.04</time>
   <energy>
    <i name="e_fr_energy">    -17.92150176 </i>
    <i name="e_wo_entrp">    -17.92084404 </i>
    <i name="e_0_energy">    -17.92117290 </i>
   </energy>
  </scstep>
  <scstep>
   <time name="total">    5.73    5.73</time>
   <energy>
    <i name="e_fr_energy">    -17.92475492 </i>
    <i name="e_wo_entrp">    -17.92409949 </i>
    <i name="e_0_energy">    -17.92442721 </i>
   </energy>
  </scstep>
  <scstep>
   <time name="total">    5.58    5.58</time>
   <energy>
    <i name="e_fr_energy">    -17.92476141 </i>
    <i name="e_wo_entrp">    -17.92410598 </i>
    <i name="e_0_energy">    -17.92443370 </i>
   </energy>
  </scstep>
  <scstep>
   <time name="total">    9.38    9.38</time>
   <energy>
    <i name="e_fr_energy">    -17.47254426 </i>
    <i name="e_wo_entrp">    -17.47203504 </i>
    <i name="e_0_energy">    -17.47228965 </i>
   </energy>
  </scstep>
  <scstep>
   <time name="total">    9.50    9.50</time>
   <energy>
    <i name="e_fr_energy">    -17.50905568 </i>
    <i name="e_wo_entrp">    -17.50880782 </i>
    <i name="e_0_energy">    -17.50893175 </i>
   </energy>
  </scstep>
  <scstep>
   <time name="total">    9.40    9.40</time>
   <energy>
    <i name="e_fr_energy">    -17.52633609 </i>
    <i name="e_wo_entrp">    -17.52609020 </i>
    <i name="e_0_energy">    -17.52621315 </i>
   </energy>
  </scstep>
  <scstep>
   <time name="total">    9.66    9.66</time>
   <energy>
    <i name="e_fr_energy">    -17.53376645 </i>
    <i name="e_wo_entrp">    -17.53375357 </i>
    <i name="e_0_energy">    -17.53376001 </i>
   </energy>
  </scstep>
  <scstep>
   <time name="total">    9.41    9.41</time>
   <energy>
    <i name="e_fr_energy">    -17.53667871 </i>
    <i name="e_wo_entrp">    -17.53667871 </i>
    <i name="e_0_energy">    -17.53667871 </i>
   </energy>
  </scstep>
  <scstep>
   <time name="total">   17.54   17.54</time>
   <energy>
    <i name="e_fr_energy">    -17.53821233 </i>
    <i name="e_wo_entrp">    -17.53821233 </i>
    <i name="e_0_energy">    -17.53821233 </i>
   </energy>
  </scstep>
  <scstep>
   <time name="total">    8.87    8.87</time>
   <energy>
    <i name="e_fr_energy">    -17.53890639 </i>
    <i name="e_wo_entrp">    -17.53890639 </i>
    <i name="e_0_energy">    -17.53890639 </i>
   </energy>
  </scstep>
  <scstep>
   <time name="total">    8.94    8.94</time>
   <energy>
    <i name="e_fr_energy">    -17.53893783 </i>
    <i name="e_wo_entrp">    -17.53893783 </i>
    <i name="e_0_energy">    -17.53893783 </i>
   </energy>
  </scstep>
  <scstep>
   <time name="total">    9.47    9.47</time>
   <energy>
    <i name="e_fr_energy">    -17.53895144 </i>
    <i name="e_wo_entrp">    -17.53895144 </i>
    <i name="e_0_energy">    -17.53895144 </i>
   </energy>
  </scstep>
  <scstep>
   <time name="total">   10.96   10.96</time>
   <energy>
    <i name="alphaZ">      3.29318037 </i>
    <i name="ewald">   -226.94490225 </i>
    <i name="hartreedc">    -15.21673751 </i>
    <i name="XCdc">     -8.87164952 </i>
    <i name="pawpsdc">   1453.80401204 </i>
    <i name="pawaedc">  -1432.15778947 </i>
    <i name="eentropy">     -0.00000000 </i>
    <i name="bandstr">      2.42170779 </i>
    <i name="atom">    206.13322186 </i>
    <i name="e_fr_energy">    -17.53895667 </i>
    <i name="e_wo_entrp">    -17.53895667 </i>
    <i name="e_0_energy">    -17.53895667 </i>
   </energy>
  </scstep>
  <structure>
   <crystal>
    <varray name="basis" >
     <v>       3.34889828       0.00000000       1.93348733 </v>
     <v>       1.11629943       3.15737158       1.93348733 </v>
     <v>       0.00000000       0.00000000       3.86697465 </v>
    </varray>
    <i name="volume">     40.88829275 </i>
    <varray name="rec_basis" >
     <v>       0.29860567      -0.10557305       0.00000000 </v>
     <v>       0.00000000       0.31671914       0.00000000 </v>
     <v>      -0.14930283      -0.10557305       0.25860009 </v>
    </varray>
   </crystal>
   <varray name="positions" >
    <v>       0.25000000       0.25000000       0.25000000 </v>
    <v>       0.00000000       0.00000000       0.00000000 </v>
   </varray>
  </structure>
  <varray name="forces" >
   <v>       0.00000000       0.00000000       0.00000000 </v>
   <v>      -0.00000000      -0.00000000      -0.00000000 </v>
  </varray>
  <varray name="stress" >
   <v>     -14.63151372      -0.00000000       0.00000000 </v>
   <v>      -0.00000000     -14.63151372       0.00000000 </v>
   <v>       0.00000000      -0.00000000     -14.63151372 </v>
  </varray>
  <energy>
   <i name="e_fr_energy">    -17.53895667 </i>
   <i name="e_wo_entrp">    -17.53895667 </i>
   <i name="e_0_energy">    -17.53895667 </i>
  </energy>
  <time name="totalsc">  143.23  143.24</time>
  <eigenvalues>
   <array>
    <dimension dim="1">band</dimension>
    <dimension dim="2">kpoint</dimension>
    <dimension dim="3">spin</dimension>
    <field>eigene</field>
    <field>occ</field>
    <set>
     <set comment="spin 1">
      <set comment="kpoint 1">
       <r>   -6.8491    1.0000 </r>
       <r>    5.5296    1.0000 </r>
       <r>    5.5296    1.0000 </r>
       <r>    5.5296    1.0000 </r>
       <r>    8.2771    0.0000 </r>
       <r>    8.2771    0.0000 </r>
       <r>    8.2771    0.0000 </r>
       <r>    9.2617    0.0000 </r>
       <r>   13.6455    0.0000 </r>
      </set>
      <set comment="kpoint 2">
       <r>   -6.5739    1.0000 </r>
       <r>    3.5585    1.0000 </r>
       <r>    5.1595    1.0000 </r>
       <r>    5.1595    1.0000 </r>
       <r>    8.2169    0.0000 </r>
       <r>    8.8197    0.0000 </r>
       <r>    8.8197    0.0000 </r>
       <r>   10.9316    0.0000 </r>
       <r>   13.0984    0.0000 </r>
      </set>
      <set comment="kpoint 3">
       <r>   -5.7818    1.0000 </r>
       <r>    0.8510    1.0000 </r>
       <r>    4.6192    1.0000 </r>
       <r>    4.6192    1.0000 </r>
       <r>    7.6997    0.0000 </r>
       <r>    9.3073    0.0000 </r>
       <r>    9.3073    0.0000 </r>
       <r>   13.4189    0.0000 </r>
       <r>   13.4738    0.0000 </r>
      </set>
      <set comment="kpoint 4">
       <r>   -4.7110    1.0000 </r>
       <r>   -1.2469    1.0000 </r>
       <r>    4.3145    1.0000 </r>
       <r>    4.3145    1.0000 </r>
       <r>    7.3759    0.0000 </r>
       <r>    9.1650    0.0000 </r>
       <r>    9.1650    0.0000 </r>
       <r>   13.8898    0.0000 </r>
       <r>   15.5268    0.0000 </r>
      </set>
      <set comment="kpoint 5">
       <r>   -6.4807    1.0000 </r>
       <r>    3.8701    1.0000 </r>
       <r>    4.5274    1.0000 </r>
       <r>    4.5274    1.0000 </r>
       <r>    7.6181    0.0000 </r>
       <r>    9.7407    0.0000 </r>
       <r>    9.7407    0.0000 </r>
       <r>   10.3210    0.0000 </r>
       <r>   12.4187    0.0000 </r>
      </set>
      <set comment="kpoint 6">
       <r>   -5.8530    1.0000 </r>
       <r>    1.6668    1.0000 </r>
       <r>    3.9420    1.0000 </r>
       <r>    3.9617    1.0000 </r>
       <r>    7.8334    0.0000 </r>
       <r>    9.7330    0.0000 </r>
       <r>   10.4332    0.0000 </r>
       <r>   10.5690    0.0000 </r>
       <r>   14.2032    0.0000 </r>
      </set>
      <set comment="kpoint 7">
       <r>   -4.8120    1.0000 </r>
       <r>   -0.5933    1.0000 </r>
       <r>    3.2357    1.0000 </r>
       <r>    3.7606    1.0000 </r>
       <r>    7.9279    0.0000 </r>
       <r>    9.6518    0.0000 </r>
       <r>   10.3563    0.0000 </r>
       <r>   11.7047    0.0000 </r>
       <r>   15.6005    0.0000 </r>
      </set>
      <set comment="kpoint 8">
       <r>   -4.2393    1.0000 </r>
       <r>   -1.4830    1.0000 </r>
       <r>    2.8083    1.0000 </r>
       <r>    3.9618    1.0000 </r>
       <r>    8.0375    0.0000 </r>
       <r>    9.5641    0.0000 </r>
       <r>    9.9487    0.0000 </r>
       <r>   14.2124    0.0000 </r>
       <r>   14.7743    0.0000 </r>
      </set>
      <set comment="kpoint 9">
       <r>   -5.1920    1.0000 </r>
       <r>    0.1094    1.0000 </r>
       <r>    2.8141    1.0000 </r>
       <r>    4.4932    1.0000 </r>
       <r>    8.4477    0.0000 </r>
       <r>    9.6919    0.0000 </r>
       <r>    9.7636    0.0000 </r>
       <r>   12.6248    0.0000 </r>
       <r>   12.6933    0.0000 </r>
      </set>
      <set comment="kpoint 10">
       <r>   -6.1227    1.0000 </r>
       <r>    2.3077    1.0000 </r>
       <r>    3.5238    1.0000 </r>
       <r>    5.1094    1.0000 </r>
       <r>    8.8463    0.0000 </r>
       <r>    9.0450    0.0000 </r>
       <r>    9.3570    0.0000 </r>
       <r>   11.5584    0.0000 </r>
       <r>   12.1321    0.0000 </r>
      </set>
      <set comment="kpoint 11">
       <r>   -5.3929    1.0000 </r>
       <r>    1.2424    1.0000 </r>
       <r>    3.3163    1.0000 </r>
       <r>    3.3163    1.0000 </r>
       <r>    6.6825    0.0000 </r>
       <r>    8.4483    0.0000 </r>
       <r>   12.2860    0.0000 </r>
       <r>   12.2860    0.0000 </r>
       <r>   14.8872    0.0000 </r>
      </set>
      <set comment="kpoint 12">
       <r>   -4.4592    1.0000 </r>
       <r>   -0.3233    1.0000 </r>
       <r>    2.3346    1.0000 </r>
       <r>    3.0444    1.0000 </r>
       <r>    6.9841    0.0000 </r>
       <r>    8.5217    0.0000 </r>
       <r>   12.5561    0.0000 </r>
       <r>   12.7026    0.0000 </r>
       <r>   17.1557    0.0000 </r>
      </set>
      <set comment="kpoint 13">
       <r>   -3.5149    1.0000 </r>
       <r>   -1.5428    1.0000 </r>
       <r>    1.3676    1.0000 </r>
       <r>    3.2172    1.0000 </r>
       <r>    7.2417    0.0000 </r>
       <r>   10.8282    0.0000 </r>
       <r>   12.1823    0.0000 </r>
       <r>   12.3004    0.0000 </r>
       <r>   15.1233    0.0000 </r>
      </set>
      <set comment="kpoint 14">
       <r>   -4.1862    1.0000 </r>
       <r>   -0.7653    1.0000 </r>
       <r>    1.2941    1.0000 </r>
       <r>    3.7846    1.0000 </r>
       <r>    7.8597    0.0000 </r>
       <r>   11.3160    0.0000 </r>
       <r>   11.7036    0.0000 </r>
       <r>   12.5927    0.0000 </r>
       <r>   12.8298    0.0000 </r>
      </set>
      <set comment="kpoint 15">
       <r>   -3.6449    1.0000 </r>
       <r>   -1.3614    1.0000 </r>
       <r>    2.6583    1.0000 </r>
       <r>    2.6583    1.0000 </r>
       <r>    6.3384    0.0000 </r>
       <r>    6.8822    0.0000 </r>
       <r>   15.0882    0.0000 </r>
       <r>   15.0882    0.0000 </r>
       <r>   17.8143    0.0000 </r>
      </set>
      <set comment="kpoint 16">
       <r>   -2.6633    1.0000 </r>
       <r>   -2.3579    1.0000 </r>
       <r>    1.7720    1.0000 </r>
       <r>    2.7214    1.0000 </r>
       <r>    6.6549    0.0000 </r>
       <r>    7.9298    0.0000 </r>
       <r>   14.8580    0.0000 </r>
       <r>   15.3562    0.0000 </r>
       <r>   15.5106    0.0000 </r>
      </set>
      <set comment="kpoint 17">
       <r>   -5.0746    1.0000 </r>
       <r>    0.4758    1.0000 </r>
       <r>    2.3438    1.0000 </r>
       <r>    3.6877    1.0000 </r>
       <r>    8.3593    0.0000 </r>
       <r>    9.6998    0.0000 </r>
       <r>    9.9748    0.0000 </r>
       <r>   12.0362    0.0000 </r>
       <r>   14.2604    0.0000 </r>
      </set>
      <set comment="kpoint 18">
       <r>   -3.9998    1.0000 </r>
       <r>   -1.1105    1.0000 </r>
       <r>    1.7585    1.0000 </r>
       <r>    3.1379    1.0000 </r>
       <r>    8.8797    0.0000 </r>
       <r>    9.3085    0.0000 </r>
       <r>   11.3753    0.0000 </r>
       <r>   12.5193    0.0000 </r>
       <r>   14.3570    0.0000 </r>
      </set>
      <set comment="kpoint 19">
       <r>   -3.4354    1.0000 </r>
       <r>   -1.4540    1.0000 </r>
       <r>    1.8428    1.0000 </r>
       <r>    2.2595    1.0000 </r>
       <r>    7.9969    0.0000 </r>
       <r>    8.3936    0.0000 </r>
       <r>   12.0747    0.0000 </r>
       <r>   14.7130    0.0000 </r>
       <r>   15.1721    0.0000 </r>
      </set>
      <set comment="kpoint 20">
       <r>   -2.9872    1.0000 </r>
       <r>   -1.8654    1.0000 </r>
       <r>    1.1984    1.0000 </r>
       <r>    2.3557    1.0000 </r>
       <r>    8.5465    0.0000 </r>
       <r>   10.7177    0.0000 </r>
       <r>   11.5514    0.0000 </r>
       <r>   11.7065    0.0000 </r>
       <r>   15.1146    0.0000 </r>
      </set>
     </set>
     <set comment="spin 2">
      <set comment="kpoint 1">
       <r>   -6.8490    1.0000 </r>
       <r>    5.5293    1.0000 </r>
       <r>    5.5293    1.0000 </r>
       <r>    5.5293    1.0000 </r>
       <r>    8.2773    0.0000 </r>
       <r>    8.2773    0.0000 </r>
       <r>    8.2773    0.0000 </r>
       <r>    9.2618    0.0000 </r>
       <r>   13.6649    0.0000 </r>
      </set>
      <set comment="kpoint 2">
       <r>   -6.5738    1.0000 </r>
       <r>    3.5584    1.0000 </r>
       <r>    5.1593    1.0000 </r>
       <r>    5.1593    1.0000 </r>
       <r>    8.2171    0.0000 </r>
       <r>    8.8199    0.0000 </r>
       <r>    8.8199    0.0000 </r>
       <r>   10.9317    0.0000 </r>
       <r>   13.0984    0.0000 </r>
      </set>
      <set comment="kpoint 3">
       <r>   -5.7818    1.0000 </r>
       <r>    0.8510    1.0000 </r>
       <r>    4.6190    1.0000 </r>
       <r>    4.6190    1.0000 </r>
       <r>    7.6998    0.0000 </r>
       <r>    9.3075    0.0000 </r>
       <r>    9.3075    0.0000 </r>
       <r>   13.4189    0.0000 </r>
       <r>   13.4711    0.0000 </r>
      </set>
      <set comment="kpoint 4">
       <r>   -4.7110    1.0000 </r>
       <r>   -1.2468    1.0000 </r>
       <r>    4.3144    1.0000 </r>
       <r>    4.3144    1.0000 </r>
       <r>    7.3760    0.0000 </r>
       <r>    9.1652    0.0000 </r>
       <r>    9.1652    0.0000 </r>
       <r>   13.8900    0.0000 </r>
       <r>   15.5396    0.0000 </r>
      </set>
      <set comment="kpoint 5">
       <r>   -6.4807    1.0000 </r>
       <r>    3.8700    1.0000 </r>
       <r>    4.5273    1.0000 </r>
       <r>    4.5273    1.0000 </r>
       <r>    7.6183    0.0000 </r>
       <r>    9.7408    0.0000 </r>
       <r>    9.7408    0.0000 </r>
       <r>   10.3211    0.0000 </r>
       <r>   12.4187    0.0000 </r>
      </set>
      <set comment="kpoint 6">
       <r>   -5.8530    1.0000 </r>
       <r>    1.6668    1.0000 </r>
       <r>    3.9419    1.0000 </r>
       <r>    3.9616    1.0000 </r>
       <r>    7.8335    0.0000 </r>
       <r>    9.7332    0.0000 </r>
       <r>   10.4332    0.0000 </r>
       <r>   10.5691    0.0000 </r>
       <r>   14.2037    0.0000 </r>
      </set>
      <set comment="kpoint 7">
       <r>   -4.8119    1.0000 </r>
       <r>   -0.5933    1.0000 </r>
       <r>    3.2356    1.0000 </r>
       <r>    3.7605    1.0000 </r>
       <r>    7.9280    0.0000 </r>
       <r>    9.6518    0.0000 </r>
       <r>   10.3564    0.0000 </r>
       <r>   11.7048    0.0000 </r>
       <r>   15.6019    0.0000 </r>
      </set>
      <set comment="kpoint 8">
       <r>   -4.2393    1.0000 </r>
       <r>   -1.4830    1.0000 </r>
       <r>    2.8082    1.0000 </r>
       <r>    3.9617    1.0000 </r>
       <r>    8.0377    0.0000 </r>
       <r>    9.5642    0.0000 </r>
       <r>    9.9488    0.0000 </r>
       <r>   14.2124    0.0000 </r>
       <r>   14.7761    0.0000 </r>
      </set>
      <set comment="kpoint 9">
       <r>   -5.1919    1.0000 </r>
       <r>    0.1094    1.0000 </r>
       <r>    2.8141    1.0000 </r>
       <r>    4.4931    1.0000 </r>
       <r>    8.4478    0.0000 </r>
       <r>    9.6921    0.0000 </r>
       <r>    9.7637    0.0000 </r>
       <r>   12.6249    0.0000 </r>
       <r>   12.6933    0.0000 </r>
      </set>
      <set comment="kpoint 10">
       <r>   -6.1227    1.0000 </r>
       <r>    2.3077    1.0000 </r>
       <r>    3.5237    1.0000 </r>
       <r>    5.1092    1.0000 </r>
       <r>    8.8464    0.0000 </r>
       <r>    9.0452    0.0000 </r>
       <r>    9.3570    0.0000 </r>
       <r>   11.5585    0.0000 </r>
       <r>   12.1321    0.0000 </r>
      </set>
      <set comment="kpoint 11">
       <r>   -5.3929    1.0000 </r>
       <r>    1.2423    1.0000 </r>
       <r>    3.3162    1.0000 </r>
       <r>    3.3162    1.0000 </r>
       <r>    6.6826    0.0000 </r>
       <r>    8.4485    0.0000 </r>
       <r>   12.2860    0.0000 </r>
       <r>   12.2860    0.0000 </r>
       <r>   14.8797    0.0000 </r>
      </set>
      <set comment="kpoint 12">
       <r>   -4.4592    1.0000 </r>
       <r>   -0.3234    1.0000 </r>
       <r>    2.3346    1.0000 </r>
       <r>    3.0443    1.0000 </r>
       <r>    6.9843    0.0000 </r>
       <r>    8.5218    0.0000 </r>
       <r>   12.5561    0.0000 </r>
       <r>   12.7026    0.0000 </r>
       <r>   17.0868    0.0000 </r>
      </set>
      <set comment="kpoint 13">
       <r>   -3.5149    1.0000 </r>
       <r>   -1.5428    1.0000 </r>
       <r>    1.3677    1.0000 </r>
       <r>    3.2171    1.0000 </r>
       <r>    7.2419    0.0000 </r>
       <r>   10.8282    0.0000 </r>
       <r>   12.1824    0.0000 </r>
       <r>   12.3004    0.0000 </r>
       <r>   15.0985    0.0000 </r>
      </set>
      <set comment="kpoint 14">
       <r>   -4.1862    1.0000 </r>
       <r>   -0.7653    1.0000 </r>
       <r>    1.2942    1.0000 </r>
       <r>    3.7845    1.0000 </r>
       <r>    7.8599    0.0000 </r>
       <r>   11.3162    0.0000 </r>
       <r>   11.7035    0.0000 </r>
       <r>   12.5928    0.0000 </r>
       <r>   12.8297    0.0000 </r>
      </set>
      <set comment="kpoint 15">
       <r>   -3.6449    1.0000 </r>
       <r>   -1.3614    1.0000 </r>
       <r>    2.6583    1.0000 </r>
       <r>    2.6583    1.0000 </r>
       <r>    6.3386    0.0000 </r>
       <r>    6.8824    0.0000 </r>
       <r>   15.0883    0.0000 </r>
       <r>   15.0883    0.0000 </r>
       <r>   17.6971    0.0000 </r>
      </set>
      <set comment="kpoint 16">
       <r>   -2.6633    1.0000 </r>
       <r>   -2.3579    1.0000 </r>
       <r>    1.7720    1.0000 </r>
       <r>    2.7214    1.0000 </r>
       <r>    6.6550    0.0000 </r>
       <r>    7.9299    0.0000 </r>
       <r>   14.8583    0.0000 </r>
       <r>   15.3625    0.0000 </r>
       <r>   15.5524    0.0000 </r>
      </set>
      <set comment="kpoint 17">
       <r>   -5.0746    1.0000 </r>
       <r>    0.4757    1.0000 </r>
       <r>    2.3438    1.0000 </r>
       <r>    3.6876    1.0000 </r>
       <r>    8.3594    0.0000 </r>
       <r>    9.6999    0.0000 </r>
       <r>    9.9749    0.0000 </r>
       <r>   12.0362    0.0000 </r>
       <r>   14.2604    0.0000 </r>
      </set>
      <set comment="kpoint 18">
       <r>   -3.9998    1.0000 </r>
       <r>   -1.1105    1.0000 </r>
       <r>    1.7585    1.0000 </r>
       <r>    3.1379    1.0000 </r>
       <r>    8.8798    0.0000 </r>
       <r>    9.3086    0.0000 </r>
       <r>   11.3753    0.0000 </r>
       <r>   12.5193    0.0000 </r>
       <r>   14.3570    0.0000 </r>
      </set>
      <set comment="kpoint 19">
       <r>   -3.4354    1.0000 </r>
       <r>   -1.4540    1.0000 </r>
       <r>    1.8428    1.0000 </r>
       <r>    2.2595    1.0000 </r>
       <r>    7.9970    0.0000 </r>
       <r>    8.3937    0.0000 </r>
       <r>   12.0747    0.0000 </r>
       <r>   14.7131    0.0000 </r>
       <r>   15.1720    0.0000 </r>
      </set>
      <set comment="kpoint 20">
       <r>   -2.9872    1.0000 </r>
       <r>   -1.8655    1.0000 </r>
       <r>    1.1985    1.0000 </r>
       <r>    2.3557    1.0000 </r>
       <r>    8.5466    0.0000 </r>
       <r>   10.7176    0.0000 </r>
       <r>   11.5516    0.0000 </r>
       <r>   11.7065    0.0000 </r>
       <r>   15.1147    0.0000 </r>
      </set>
     </set>
    </set>
   </array>
  </eigenvalues>
  <separator name="orbital magnetization" >
   <v name="MAGDIPOLOUT">      0.00000000      0.00000000      0.00000000</v>
  </separator>
  <dos>
   <i name="efermi">      5.75956028 </i>
   <total>
    <array>
     <dimension dim="1">gridpoints</dimension>
     <dimension dim="2">spin</dimension>
     <field>energy</field>
     <field>total</field>
     <field>integrated</field>
     <set>
      <set comment="spin 1">
       <r>    -8.0823     0.0000     0.0000 </r>
       <r>    -7.9918     0.0000     0.0000 </r>
       <r>    -7.9014     0.0000     0.0000 </r>
       <r>    -7.8110     0.0000     0.0000 </r>
       <r>    -7.7205     0.0000     0.0000 </r>
       <r>    -7.6301     0.0000     0.0000 </r>
       <r>    -7.5397     0.0000     0.0000 </r>
       <r>    -7.4492     0.0000     0.0000 </r>
       <r>    -7.3588     0.0000     0.0000 </r>
       <r>    -7.2684     0.0000     0.0000 </r>
       <r>    -7.1780     0.0000     0.0000 </r>
       <r>    -7.0875     0.0000     0.0000 </r>
       <r>    -6.9971     0.0000     0.0000 </r>
       <r>    -6.9067     0.0017     0.0002 </r>
       <r>    -6.8162     0.0249     0.0024 </r>
       <r>    -6.7258     0.0057     0.0029 </r>
       <r>    -6.6354     0.0106     0.0039 </r>
       <r>    -6.5449     0.2009     0.0220 </r>
       <r>    -6.4545     0.1955     0.0397 </r>
       <r>    -6.3641     0.0443     0.0437 </r>
       <r>    -6.2736     0.0001     0.0437 </r>
       <r>    -6.1832     0.0169     0.0453 </r>
       <r>    -6.0928     0.2933     0.0718 </r>
       <r>    -6.0023     0.0766     0.0787 </r>
       <r>    -5.9119     0.0372     0.0821 </r>
       <r>    -5.8215     0.6265     0.1387 </r>
       <r>    -5.7310     0.3484     0.1702 </r>
       <r>    -5.6406     0.0196     0.1720 </r>
       <r>    -5.5502     0.0000     0.1720 </r>
       <r>    -5.4597     0.0057     0.1725 </r>
       <r>    -5.3693     0.1390     0.1851 </r>
       <r>    -5.2789     0.0541     0.1900 </r>
       <r>    -5.1884     0.4130     0.2273 </r>
       <r>    -5.0980     0.5491     0.2770 </r>
       <r>    -5.0076     0.5577     0.3274 </r>
       <r>    -4.9171     0.0235     0.3295 </r>
       <r>    -4.8267     0.2610     0.3532 </r>
       <r>    -4.7363     0.5604     0.4038 </r>
       <r>    -4.6458     0.2007     0.4220 </r>
       <r>    -4.5554     0.0109     0.4230 </r>
       <r>    -4.4650     0.3343     0.4532 </r>
       <r>    -4.3745     0.4305     0.4921 </r>
       <r>    -4.2841     0.0868     0.5000 </r>
       <r>    -4.1937     0.7784     0.5704 </r>
       <r>    -4.1032     0.3008     0.5976 </r>
       <r>    -4.0128     0.5528     0.6476 </r>
       <r>    -3.9224     0.9737     0.7356 </r>
       <r>    -3.8319     0.0221     0.7376 </r>
       <r>    -3.7415     0.0006     0.7377 </r>
       <r>    -3.6511     0.0828     0.7451 </r>
       <r>    -3.5606     0.1844     0.7618 </r>
       <r>    -3.4702     0.7455     0.8292 </r>
       <r>    -3.3798     0.6829     0.8910 </r>
       <r>    -3.2893     0.0447     0.8950 </r>
       <r>    -3.1989     0.0000     0.8950 </r>
       <r>    -3.1085     0.0002     0.8951 </r>
       <r>    -3.0181     0.1480     0.9084 </r>
       <r>    -2.9276     0.5900     0.9618 </r>
       <r>    -2.8372     0.0355     0.9650 </r>
       <r>    -2.7468     0.0035     0.9653 </r>
       <r>    -2.6563     0.2202     0.9852 </r>
       <r>    -2.5659     0.1620     0.9999 </r>
       <r>    -2.4755     0.0013     1.0000 </r>
       <r>    -2.3850     0.0855     1.0077 </r>
       <r>    -2.2946     0.2870     1.0337 </r>
       <r>    -2.2042     0.0142     1.0350 </r>
       <r>    -2.1137     0.0000     1.0350 </r>
       <r>    -2.0233     0.0000     1.0350 </r>
       <r>    -1.9329     0.0219     1.0370 </r>
       <r>    -1.8424     0.5526     1.0869 </r>
       <r>    -1.7520     0.1987     1.1049 </r>
       <r>    -1.6616     0.0008     1.1050 </r>
       <r>    -1.5711     0.1688     1.1202 </r>
       <r>    -1.4807     1.1555     1.2247 </r>
       <r>    -1.3903     1.0057     1.3157 </r>
       <r>    -1.2998     0.1938     1.3332 </r>
       <r>    -1.2094     0.2152     1.3527 </r>
       <r>    -1.1190     0.6610     1.4125 </r>
       <r>    -1.0285     0.9040     1.4942 </r>
       <r>    -0.9381     0.0158     1.4956 </r>
       <r>    -0.8477     0.0038     1.4960 </r>
       <r>    -0.7572     0.2246     1.5163 </r>
       <r>    -0.6668     0.1720     1.5318 </r>
       <r>    -0.5764     0.5159     1.5785 </r>
       <r>    -0.4859     0.2433     1.6005 </r>
       <r>    -0.3955     0.0169     1.6020 </r>
       <r>    -0.3051     0.5235     1.6494 </r>
       <r>    -0.2146     0.2334     1.6705 </r>
       <r>    -0.1242     0.0008     1.6706 </r>
       <r>    -0.0338     0.0000     1.6706 </r>
       <r>     0.0567     0.0526     1.6753 </r>
       <r>     0.1471     0.6105     1.7305 </r>
       <r>     0.2375     0.1106     1.7405 </r>
       <r>     0.3280     0.0001     1.7405 </r>
       <r>     0.4184     0.0404     1.7442 </r>
       <r>     0.5088     0.5979     1.7983 </r>
       <r>     0.5993     0.1352     1.8105 </r>
       <r>     0.6897     0.0002     1.8105 </r>
       <r>     0.7801     0.0058     1.8110 </r>
       <r>     0.8705     0.1773     1.8271 </r>
       <r>     0.9610     0.0745     1.8338 </r>
       <r>     1.0514     0.0003     1.8338 </r>
       <r>     1.1418     0.0428     1.8377 </r>
       <r>     1.2323     0.6907     1.9001 </r>
       <r>     1.3227     0.6161     1.9559 </r>
       <r>     1.4131     0.7014     2.0193 </r>
       <r>     1.5036     0.0768     2.0262 </r>
       <r>     1.5940     0.0153     2.0276 </r>
       <r>     1.6844     0.5500     2.0774 </r>
       <r>     1.7749     1.4848     2.2116 </r>
       <r>     1.8653     1.2252     2.3224 </r>
       <r>     1.9557     0.2059     2.3411 </r>
       <r>     2.0462     0.0005     2.3411 </r>
       <r>     2.1366     0.0002     2.3411 </r>
       <r>     2.2270     0.1445     2.3542 </r>
       <r>     2.3175     1.3531     2.4766 </r>
       <r>     2.4079     1.8872     2.6472 </r>
       <r>     2.4983     0.0967     2.6560 </r>
       <r>     2.5888     0.0096     2.6568 </r>
       <r>     2.6792     0.3152     2.6853 </r>
       <r>     2.7696     0.6021     2.7398 </r>
       <r>     2.8601     1.2642     2.8541 </r>
       <r>     2.9505     0.1333     2.8662 </r>
       <r>     3.0409     0.3585     2.8986 </r>
       <r>     3.1314     1.0743     2.9957 </r>
       <r>     3.2218     1.5692     3.1376 </r>
       <r>     3.3122     1.0248     3.2303 </r>
       <r>     3.4027     0.2229     3.2505 </r>
       <r>     3.4931     0.0856     3.2582 </r>
       <r>     3.5835     0.4837     3.3020 </r>
       <r>     3.6740     0.3540     3.3340 </r>
       <r>     3.7644     1.0162     3.4259 </r>
       <r>     3.8548     0.7017     3.4893 </r>
       <r>     3.9453     1.0418     3.5836 </r>
       <r>     4.0357     1.3821     3.7085 </r>
       <r>     4.1261     0.0314     3.7114 </r>
       <r>     4.2166     0.0014     3.7115 </r>
       <r>     4.3070     0.2131     3.7308 </r>
       <r>     4.3974     0.2990     3.7578 </r>
       <r>     4.4879     0.3934     3.7934 </r>
       <r>     4.5783     0.7980     3.8656 </r>
       <r>     4.6687     0.4457     3.9059 </r>
       <r>     4.7591     0.0416     3.9096 </r>
       <r>     4.8496     0.0000     3.9096 </r>
       <r>     4.9400     0.0000     3.9096 </r>
       <r>     5.0304     0.0050     3.9101 </r>
       <r>     5.1209     0.3086     3.9380 </r>
       <r>     5.2113     0.5515     3.9879 </r>
       <r>     5.3017     0.0375     3.9913 </r>
       <r>     5.3922     0.0000     3.9913 </r>
       <r>     5.4826     0.0089     3.9921 </r>
       <r>     5.5730     0.0772     3.9990 </r>
       <r>     5.6635     0.0106     4.0000 </r>
       <r>     5.7539     0.0000     4.0000 </r>
       <r>     5.8443     0.0000     4.0000 </r>
       <r>     5.9348     0.0000     4.0000 </r>
       <r>     6.0252     0.0000     4.0000 </r>
       <r>     6.1156     0.0000     4.0000 </r>
       <r>     6.2061     0.0000     4.0000 </r>
       <r>     6.2965     0.0228     4.0021 </r>
       <r>     6.3869     0.1542     4.0160 </r>
       <r>     6.4774     0.0164     4.0175 </r>
       <r>     6.5678     0.0028     4.0177 </r>
       <r>     6.6582     0.2531     4.0406 </r>
       <r>     6.7487     0.3170     4.0693 </r>
       <r>     6.8391     0.0290     4.0719 </r>
       <r>     6.9295     0.2019     4.0902 </r>
       <r>     7.0200     0.6236     4.1466 </r>
       <r>     7.1104     0.1200     4.1574 </r>
       <r>     7.2008     0.0959     4.1661 </r>
       <r>     7.2913     0.6178     4.2220 </r>
       <r>     7.3817     0.2057     4.2406 </r>
       <r>     7.4721     0.1114     4.2507 </r>
       <r>     7.5626     0.0121     4.2517 </r>
       <r>     7.6530     0.1749     4.2676 </r>
       <r>     7.7434     0.2417     4.2894 </r>
       <r>     7.8339     0.5083     4.3354 </r>
       <r>     7.9243     1.1997     4.4439 </r>
       <r>     8.0147     1.3646     4.5673 </r>
       <r>     8.1052     0.7973     4.6394 </r>
       <r>     8.1956     0.0937     4.6479 </r>
       <r>     8.2860     0.2536     4.6708 </r>
       <r>     8.3765     0.8245     4.7454 </r>
       <r>     8.4669     1.4753     4.8788 </r>
       <r>     8.5573     1.3758     5.0032 </r>
       <r>     8.6478     0.4144     5.0407 </r>
       <r>     8.7382     0.0077     5.0414 </r>
       <r>     8.8286     0.5377     5.0900 </r>
       <r>     8.9190     1.6922     5.2430 </r>
       <r>     9.0095     0.2751     5.2679 </r>
       <r>     9.0999     0.3197     5.2968 </r>
       <r>     9.1903     0.4016     5.3331 </r>
       <r>     9.2808     0.6009     5.3875 </r>
       <r>     9.3712     1.7917     5.5495 </r>
       <r>     9.4616     0.2112     5.5686 </r>
       <r>     9.5521     0.2849     5.5944 </r>
       <r>     9.6425     0.8938     5.6752 </r>
       <r>     9.7329     2.3725     5.8897 </r>
       <r>     9.8234     1.4341     6.0194 </r>
       <r>     9.9138     0.2012     6.0376 </r>
       <r>    10.0042     1.1880     6.1450 </r>
       <r>    10.0947     0.2013     6.1632 </r>
       <r>    10.1851     0.0003     6.1633 </r>
       <r>    10.2755     0.0278     6.1658 </r>
       <r>    10.3660     0.6381     6.2235 </r>
       <r>    10.4564     0.8759     6.3027 </r>
       <r>    10.5468     0.4040     6.3392 </r>
       <r>    10.6373     0.5570     6.3896 </r>
       <r>    10.7277     0.4868     6.4336 </r>
       <r>    10.8181     0.5971     6.4876 </r>
       <r>    10.9086     0.5328     6.5358 </r>
       <r>    10.9990     0.1932     6.5533 </r>
       <r>    11.0894     0.0073     6.5539 </r>
       <r>    11.1799     0.0000     6.5539 </r>
       <r>    11.2703     0.0403     6.5576 </r>
       <r>    11.3607     0.8338     6.6330 </r>
       <r>    11.4512     1.0378     6.7268 </r>
       <r>    11.5416     0.4473     6.7673 </r>
       <r>    11.6320     0.7571     6.8358 </r>
       <r>    11.7225     1.3080     6.9540 </r>
       <r>    11.8129     0.6027     7.0085 </r>
       <r>    11.9033     0.0023     7.0088 </r>
       <r>    11.9938     0.0976     7.0176 </r>
       <r>    12.0842     1.1137     7.1183 </r>
       <r>    12.1746     0.9978     7.2085 </r>
       <r>    12.2651     0.7215     7.2738 </r>
       <r>    12.3555     0.8895     7.3542 </r>
       <r>    12.4459     0.2292     7.3749 </r>
       <r>    12.5364     1.3219     7.4945 </r>
       <r>    12.6268     1.7540     7.6531 </r>
       <r>    12.7172     1.5074     7.7894 </r>
       <r>    12.8076     0.5598     7.8401 </r>
       <r>    12.8981     0.2754     7.8650 </r>
       <r>    12.9885     0.0106     7.8659 </r>
       <r>    13.0789     0.0749     7.8727 </r>
       <r>    13.1694     0.1770     7.8887 </r>
       <r>    13.2598     0.0058     7.8892 </r>
       <r>    13.3502     0.0068     7.8898 </r>
       <r>    13.4407     0.2268     7.9103 </r>
       <r>    13.5311     0.2685     7.9346 </r>
       <r>    13.6215     0.0217     7.9366 </r>
       <r>    13.7120     0.0233     7.9387 </r>
       <r>    13.8024     0.0027     7.9389 </r>
       <r>    13.8928     0.1361     7.9512 </r>
       <r>    13.9833     0.1190     7.9620 </r>
       <r>    14.0737     0.0012     7.9621 </r>
       <r>    14.1641     0.1731     7.9778 </r>
       <r>    14.2546     1.5663     8.1194 </r>
       <r>    14.3450     1.1437     8.2228 </r>
       <r>    14.4354     0.9650     8.3101 </r>
       <r>    14.5259     0.0205     8.3120 </r>
       <r>    14.6163     0.0024     8.3122 </r>
       <r>    14.7067     0.3517     8.3440 </r>
       <r>    14.7972     1.0036     8.4347 </r>
       <r>    14.8876     0.5957     8.4886 </r>
       <r>    14.9780     0.1736     8.5043 </r>
       <r>    15.0685     0.2346     8.5255 </r>
       <r>    15.1589     1.7631     8.6850 </r>
       <r>    15.2493     0.7003     8.7483 </r>
       <r>    15.3398     0.1349     8.7605 </r>
       <r>    15.4302     0.2610     8.7841 </r>
       <r>    15.5206     0.3588     8.8165 </r>
       <r>    15.6111     0.7626     8.8855 </r>
       <r>    15.7015     0.2972     8.9124 </r>
       <r>    15.7919     0.0017     8.9125 </r>
       <r>    15.8824     0.0000     8.9125 </r>
       <r>    15.9728     0.0000     8.9125 </r>
       <r>    16.0632     0.0000     8.9125 </r>
       <r>    16.1537     0.0000     8.9125 </r>
       <r>    16.2441     0.0000     8.9125 </r>
       <r>    16.3345     0.0000     8.9125 </r>
       <r>    16.4250     0.0000     8.9125 </r>
       <r>    16.5154     0.0000     8.9125 </r>
       <r>    16.6058     0.0000     8.9125 </r>
       <r>    16.6963     0.0000     8.9125 </r>
       <r>    16.7867     0.0000     8.9125 </r>
       <r>    16.8771     0.0000     8.9125 </r>
       <r>    16.9675     0.0000     8.9125 </r>
       <r>    17.0580     0.0022     8.9127 </r>
       <r>    17.1484     0.3213     8.9418 </r>
       <r>    17.2388     0.4430     8.9819 </r>
       <r>    17.3293     0.0072     8.9825 </r>
       <r>    17.4197     0.0000     8.9825 </r>
       <r>    17.5101     0.0000     8.9825 </r>
       <r>    17.6006     0.0000     8.9825 </r>
       <r>    17.6910     0.0000     8.9825 </r>
       <r>    17.7814     0.0340     8.9856 </r>
       <r>    17.8719     0.1493     8.9991 </r>
       <r>    17.9623     0.0100     9.0000 </r>
       <r>    18.0527     0.0000     9.0000 </r>
       <r>    18.1432     0.0000     9.0000 </r>
       <r>    18.2336     0.0000     9.0000 </r>
       <r>    18.3240     0.0000     9.0000 </r>
       <r>    18.4145     0.0000     9.0000 </r>
       <r>    18.5049     0.0000     9.0000 </r>
       <r>    18.5953     0.0000     9.0000 </r>
       <r>    18.6858     0.0000     9.0000 </r>
       <r>    18.7762     0.0000     9.0000 </r>
       <r>    18.8666     0.0000     9.0000 </r>
       <r>    18.9571     0.0000     9.0000 </r>
       <r>    19.0475     0.0000     9.0000 </r>
      </set>
      <set comment="spin 2">
       <r>    -8.0823     0.0000     0.0000 </r>
       <r>    -7.9918     0.0000     0.0000 </r>
       <r>    -7.9014     0.0000     0.0000 </r>
       <r>    -7.8110     0.0000     0.0000 </r>
       <r>    -7.7205     0.0000     0.0000 </r>
       <r>    -7.6301     0.0000     0.0000 </r>
       <r>    -7.5397     0.0000     0.0000 </r>
       <r>    -7.4492     0.0000     0.0000 </r>
       <r>    -7.3588     0.0000     0.0000 </r>
       <r>    -7.2684     0.0000     0.0000 </r>
       <r>    -7.1780     0.0000     0.0000 </r>
       <r>    -7.0875     0.0000     0.0000 </r>
       <r>    -6.9971     0.0000     0.0000 </r>
       <r>    -6.9067     0.0017     0.0002 </r>
       <r>    -6.8162     0.0249     0.0024 </r>
       <r>    -6.7258     0.0057     0.0029 </r>
       <r>    -6.6354     0.0106     0.0039 </r>
       <r>    -6.5449     0.2007     0.0220 </r>
       <r>    -6.4545     0.1955     0.0397 </r>
       <r>    -6.3641     0.0444     0.0437 </r>
       <r>    -6.2736     0.0001     0.0437 </r>
       <r>    -6.1832     0.0168     0.0453 </r>
       <r>    -6.0928     0.2931     0.0718 </r>
       <r>    -6.0023     0.0768     0.0787 </r>
       <r>    -5.9119     0.0371     0.0821 </r>
       <r>    -5.8215     0.6262     0.1387 </r>
       <r>    -5.7310     0.3488     0.1702 </r>
       <r>    -5.6406     0.0197     0.1720 </r>
       <r>    -5.5502     0.0000     0.1720 </r>
       <r>    -5.4597     0.0057     0.1725 </r>
       <r>    -5.3693     0.1389     0.1851 </r>
       <r>    -5.2789     0.0541     0.1900 </r>
       <r>    -5.1884     0.4126     0.2273 </r>
       <r>    -5.0980     0.5492     0.2770 </r>
       <r>    -5.0076     0.5580     0.3274 </r>
       <r>    -4.9171     0.0236     0.3295 </r>
       <r>    -4.8267     0.2607     0.3531 </r>
       <r>    -4.7363     0.5606     0.4038 </r>
       <r>    -4.6458     0.2008     0.4220 </r>
       <r>    -4.5554     0.0110     0.4230 </r>
       <r>    -4.4650     0.3340     0.4532 </r>
       <r>    -4.3745     0.4308     0.4921 </r>
       <r>    -4.2841     0.0867     0.5000 </r>
       <r>    -4.1937     0.7782     0.5704 </r>
       <r>    -4.1032     0.3010     0.5976 </r>
       <r>    -4.0128     0.5524     0.6475 </r>
       <r>    -3.9224     0.9740     0.7356 </r>
       <r>    -3.8319     0.0221     0.7376 </r>
       <r>    -3.7415     0.0006     0.7377 </r>
       <r>    -3.6511     0.0827     0.7451 </r>
       <r>    -3.5606     0.1844     0.7618 </r>
       <r>    -3.4702     0.7454     0.8292 </r>
       <r>    -3.3798     0.6830     0.8910 </r>
       <r>    -3.2893     0.0448     0.8950 </r>
       <r>    -3.1989     0.0000     0.8950 </r>
       <r>    -3.1085     0.0002     0.8951 </r>
       <r>    -3.0181     0.1480     0.9084 </r>
       <r>    -2.9276     0.5900     0.9618 </r>
       <r>    -2.8372     0.0355     0.9650 </r>
       <r>    -2.7468     0.0035     0.9653 </r>
       <r>    -2.6563     0.2202     0.9852 </r>
       <r>    -2.5659     0.1620     0.9999 </r>
       <r>    -2.4755     0.0013     1.0000 </r>
       <r>    -2.3850     0.0855     1.0077 </r>
       <r>    -2.2946     0.2870     1.0337 </r>
       <r>    -2.2042     0.0142     1.0350 </r>
       <r>    -2.1137     0.0000     1.0350 </r>
       <r>    -2.0233     0.0000     1.0350 </r>
       <r>    -1.9329     0.0219     1.0370 </r>
       <r>    -1.8424     0.5527     1.0869 </r>
       <r>    -1.7520     0.1987     1.1049 </r>
       <r>    -1.6616     0.0008     1.1050 </r>
       <r>    -1.5711     0.1688     1.1202 </r>
       <r>    -1.4807     1.1553     1.2247 </r>
       <r>    -1.3903     1.0060     1.3157 </r>
       <r>    -1.2998     0.1937     1.3332 </r>
       <r>    -1.2094     0.2152     1.3527 </r>
       <r>    -1.1190     0.6611     1.4125 </r>
       <r>    -1.0285     0.9040     1.4942 </r>
       <r>    -0.9381     0.0158     1.4956 </r>
       <r>    -0.8477     0.0038     1.4960 </r>
       <r>    -0.7572     0.2246     1.5163 </r>
       <r>    -0.6668     0.1719     1.5318 </r>
       <r>    -0.5764     0.5158     1.5785 </r>
       <r>    -0.4859     0.2435     1.6005 </r>
       <r>    -0.3955     0.0169     1.6020 </r>
       <r>    -0.3051     0.5238     1.6494 </r>
       <r>    -0.2146     0.2332     1.6705 </r>
       <r>    -0.1242     0.0008     1.6706 </r>
       <r>    -0.0338     0.0000     1.6706 </r>
       <r>     0.0567     0.0526     1.6753 </r>
       <r>     0.1471     0.6105     1.7305 </r>
       <r>     0.2375     0.1106     1.7405 </r>
       <r>     0.3280     0.0001     1.7405 </r>
       <r>     0.4184     0.0405     1.7442 </r>
       <r>     0.5088     0.5980     1.7983 </r>
       <r>     0.5993     0.1350     1.8105 </r>
       <r>     0.6897     0.0002     1.8105 </r>
       <r>     0.7801     0.0058     1.8110 </r>
       <r>     0.8705     0.1774     1.8271 </r>
       <r>     0.9610     0.0745     1.8338 </r>
       <r>     1.0514     0.0003     1.8338 </r>
       <r>     1.1418     0.0426     1.8377 </r>
       <r>     1.2323     0.6905     1.9001 </r>
       <r>     1.3227     0.6159     1.9558 </r>
       <r>     1.4131     0.7016     2.0193 </r>
       <r>     1.5036     0.0770     2.0262 </r>
       <r>     1.5940     0.0154     2.0276 </r>
       <r>     1.6844     0.5503     2.0774 </r>
       <r>     1.7749     1.4838     2.2116 </r>
       <r>     1.8653     1.2256     2.3224 </r>
       <r>     1.9557     0.2062     2.3411 </r>
       <r>     2.0462     0.0005     2.3411 </r>
       <r>     2.1366     0.0002     2.3411 </r>
       <r>     2.2270     0.1444     2.3542 </r>
       <r>     2.3175     1.3532     2.4766 </r>
       <r>     2.4079     1.8872     2.6472 </r>
       <r>     2.4983     0.0968     2.6560 </r>
       <r>     2.5888     0.0096     2.6568 </r>
       <r>     2.6792     0.3153     2.6854 </r>
       <r>     2.7696     0.6021     2.7398 </r>
       <r>     2.8601     1.2640     2.8541 </r>
       <r>     2.9505     0.1331     2.8662 </r>
       <r>     3.0409     0.3589     2.8986 </r>
       <r>     3.1314     1.0745     2.9958 </r>
       <r>     3.2218     1.5696     3.1377 </r>
       <r>     3.3122     1.0242     3.2303 </r>
       <r>     3.4027     0.2227     3.2505 </r>
       <r>     3.4931     0.0857     3.2582 </r>
       <r>     3.5835     0.4838     3.3020 </r>
       <r>     3.6740     0.3544     3.3340 </r>
       <r>     3.7644     1.0167     3.4260 </r>
       <r>     3.8548     0.7010     3.4894 </r>
       <r>     3.9453     1.0436     3.5838 </r>
       <r>     4.0357     1.3800     3.7086 </r>
       <r>     4.1261     0.0311     3.7114 </r>
       <r>     4.2166     0.0015     3.7115 </r>
       <r>     4.3070     0.2139     3.7308 </r>
       <r>     4.3974     0.2983     3.7578 </r>
       <r>     4.4879     0.3948     3.7935 </r>
       <r>     4.5783     0.7972     3.8656 </r>
       <r>     4.6687     0.4454     3.9059 </r>
       <r>     4.7591     0.0413     3.9096 </r>
       <r>     4.8496     0.0000     3.9096 </r>
       <r>     4.9400     0.0000     3.9096 </r>
       <r>     5.0304     0.0051     3.9101 </r>
       <r>     5.1209     0.3100     3.9381 </r>
       <r>     5.2113     0.5505     3.9879 </r>
       <r>     5.3017     0.0371     3.9913 </r>
       <r>     5.3922     0.0000     3.9913 </r>
       <r>     5.4826     0.0090     3.9921 </r>
       <r>     5.5730     0.0772     3.9991 </r>
       <r>     5.6635     0.0105     4.0000 </r>
       <r>     5.7539     0.0000     4.0000 </r>
       <r>     5.8443     0.0000     4.0000 </r>
       <r>     5.9348     0.0000     4.0000 </r>
       <r>     6.0252     0.0000     4.0000 </r>
       <r>     6.1156     0.0000     4.0000 </r>
       <r>     6.2061     0.0000     4.0000 </r>
       <r>     6.2965     0.0226     4.0020 </r>
       <r>     6.3869     0.1542     4.0160 </r>
       <r>     6.4774     0.0166     4.0175 </r>
       <r>     6.5678     0.0028     4.0177 </r>
       <r>     6.6582     0.2520     4.0405 </r>
       <r>     6.7487     0.3180     4.0693 </r>
       <r>     6.8391     0.0289     4.0719 </r>
       <r>     6.9295     0.2015     4.0901 </r>
       <r>     7.0200     0.6234     4.1465 </r>
       <r>     7.1104     0.1209     4.1574 </r>
       <r>     7.2008     0.0952     4.1660 </r>
       <r>     7.2913     0.6179     4.2219 </r>
       <r>     7.3817     0.2060     4.2405 </r>
       <r>     7.4721     0.1117     4.2507 </r>
       <r>     7.5626     0.0120     4.2517 </r>
       <r>     7.6530     0.1746     4.2675 </r>
       <r>     7.7434     0.2419     4.2894 </r>
       <r>     7.8339     0.5068     4.3352 </r>
       <r>     7.9243     1.1996     4.4437 </r>
       <r>     8.0147     1.3647     4.5671 </r>
       <r>     8.1052     0.7989     4.6394 </r>
       <r>     8.1956     0.0936     4.6478 </r>
       <r>     8.2860     0.2535     4.6708 </r>
       <r>     8.3765     0.8230     4.7452 </r>
       <r>     8.4669     1.4753     4.8786 </r>
       <r>     8.5573     1.3761     5.0031 </r>
       <r>     8.6478     0.4158     5.0407 </r>
       <r>     8.7382     0.0076     5.0413 </r>
       <r>     8.8286     0.5355     5.0898 </r>
       <r>     8.9190     1.6935     5.2429 </r>
       <r>     9.0095     0.2756     5.2678 </r>
       <r>     9.0999     0.3198     5.2968 </r>
       <r>     9.1903     0.4012     5.3330 </r>
       <r>     9.2808     0.5998     5.3873 </r>
       <r>     9.3712     1.7931     5.5495 </r>
       <r>     9.4616     0.2116     5.5686 </r>
       <r>     9.5521     0.2845     5.5943 </r>
       <r>     9.6425     0.8925     5.6750 </r>
       <r>     9.7329     2.3707     5.8894 </r>
       <r>     9.8234     1.4374     6.0194 </r>
       <r>     9.9138     0.2004     6.0375 </r>
       <r>    10.0042     1.1880     6.1450 </r>
       <r>    10.0947     0.2021     6.1632 </r>
       <r>    10.1851     0.0003     6.1633 </r>
       <r>    10.2755     0.0277     6.1658 </r>
       <r>    10.3660     0.6372     6.2234 </r>
       <r>    10.4564     0.8767     6.3027 </r>
       <r>    10.5468     0.4037     6.3392 </r>
       <r>    10.6373     0.5575     6.3896 </r>
       <r>    10.7277     0.4871     6.4336 </r>
       <r>    10.8181     0.5968     6.4876 </r>
       <r>    10.9086     0.5328     6.5358 </r>
       <r>    10.9990     0.1933     6.5533 </r>
       <r>    11.0894     0.0073     6.5539 </r>
       <r>    11.1799     0.0000     6.5539 </r>
       <r>    11.2703     0.0399     6.5575 </r>
       <r>    11.3607     0.8325     6.6328 </r>
       <r>    11.4512     1.0393     6.7268 </r>
       <r>    11.5416     0.4458     6.7671 </r>
       <r>    11.6320     0.7585     6.8357 </r>
       <r>    11.7225     1.3078     6.9540 </r>
       <r>    11.8129     0.6031     7.0085 </r>
       <r>    11.9033     0.0023     7.0088 </r>
       <r>    11.9938     0.0975     7.0176 </r>
       <r>    12.0842     1.1132     7.1182 </r>
       <r>    12.1746     0.9975     7.2084 </r>
       <r>    12.2651     0.7219     7.2737 </r>
       <r>    12.3555     0.8899     7.3542 </r>
       <r>    12.4459     0.2294     7.3749 </r>
       <r>    12.5364     1.3213     7.4944 </r>
       <r>    12.6268     1.7535     7.6530 </r>
       <r>    12.7172     1.5081     7.7894 </r>
       <r>    12.8076     0.5605     7.8401 </r>
       <r>    12.8981     0.2752     7.8650 </r>
       <r>    12.9885     0.0105     7.8659 </r>
       <r>    13.0789     0.0749     7.8727 </r>
       <r>    13.1694     0.1770     7.8887 </r>
       <r>    13.2598     0.0057     7.8892 </r>
       <r>    13.3502     0.0068     7.8898 </r>
       <r>    13.4407     0.2320     7.9108 </r>
       <r>    13.5311     0.2652     7.9348 </r>
       <r>    13.6215     0.0153     7.9362 </r>
       <r>    13.7120     0.0257     7.9385 </r>
       <r>    13.8024     0.0047     7.9389 </r>
       <r>    13.8928     0.1355     7.9512 </r>
       <r>    13.9833     0.1196     7.9620 </r>
       <r>    14.0737     0.0012     7.9621 </r>
       <r>    14.1641     0.1710     7.9776 </r>
       <r>    14.2546     1.5672     8.1193 </r>
       <r>    14.3450     1.1439     8.2227 </r>
       <r>    14.4354     0.9660     8.3101 </r>
       <r>    14.5259     0.0206     8.3120 </r>
       <r>    14.6163     0.0024     8.3122 </r>
       <r>    14.7067     0.3482     8.3437 </r>
       <r>    14.7972     0.9953     8.4337 </r>
       <r>    14.8876     0.6231     8.4900 </r>
       <r>    14.9780     0.1588     8.5044 </r>
       <r>    15.0685     0.3396     8.5351 </r>
       <r>    15.1589     1.7456     8.6929 </r>
       <r>    15.2493     0.6120     8.7483 </r>
       <r>    15.3398     0.1113     8.7584 </r>
       <r>    15.4302     0.2760     8.7833 </r>
       <r>    15.5206     0.1664     8.7984 </r>
       <r>    15.6111     0.9300     8.8825 </r>
       <r>    15.7015     0.3306     8.9124 </r>
       <r>    15.7919     0.0019     8.9125 </r>
       <r>    15.8824     0.0000     8.9125 </r>
       <r>    15.9728     0.0000     8.9125 </r>
       <r>    16.0632     0.0000     8.9125 </r>
       <r>    16.1537     0.0000     8.9125 </r>
       <r>    16.2441     0.0000     8.9125 </r>
       <r>    16.3345     0.0000     8.9125 </r>
       <r>    16.4250     0.0000     8.9125 </r>
       <r>    16.5154     0.0000     8.9125 </r>
       <r>    16.6058     0.0000     8.9125 </r>
       <r>    16.6963     0.0000     8.9125 </r>
       <r>    16.7867     0.0000     8.9125 </r>
       <r>    16.8771     0.0000     8.9125 </r>
       <r>    16.9675     0.0003     8.9126 </r>
       <r>    17.0580     0.1603     8.9271 </r>
       <r>    17.1484     0.5817     8.9797 </r>
       <r>    17.2388     0.0315     8.9825 </r>
       <r>    17.3293     0.0000     8.9825 </r>
       <r>    17.4197     0.0000     8.9825 </r>
       <r>    17.5101     0.0000     8.9825 </r>
       <r>    17.6006     0.0006     8.9826 </r>
       <r>    17.6910     0.0828     8.9901 </r>
       <r>    17.7814     0.1084     8.9999 </r>
       <r>    17.8719     0.0017     9.0000 </r>
       <r>    17.9623     0.0000     9.0000 </r>
       <r>    18.0527     0.0000     9.0000 </r>
       <r>    18.1432     0.0000     9.0000 </r>
       <r>    18.2336     0.0000     9.0000 </r>
       <r>    18.3240     0.0000     9.0000 </r>
       <r>    18.4145     0.0000     9.0000 </r>
       <r>    18.5049     0.0000     9.0000 </r>
       <r>    18.5953     0.0000     9.0000 </r>
       <r>    18.6858     0.0000     9.0000 </r>
       <r>    18.7762     0.0000     9.0000 </r>
       <r>    18.8666     0.0000     9.0000 </r>
       <r>    18.9571     0.0000     9.0000 </r>
       <r>    19.0475     0.0000     9.0000 </r>
      </set>
     </set>
    </array>
   </total>
   <partial>
    <array>
     <dimension dim="1">gridpoints</dimension>
     <dimension dim="2">spin</dimension>
     <dimension dim="3">ion</dimension>
     <field>energy</field>
     <field>    s</field>
     <field>   py</field>
     <field>   pz</field>
     <field>   px</field>
     <field>  dxy</field>
     <field>  dyz</field>
     <field>  dz2</field>
     <field>  dxz</field>
     <field>x2-y2</field>
     <set>
      <set comment="ion 1">
       <set comment="spin 1">
        <r>    -8.0823     0.0000     0.0000     0.0000     0.0000     0.0000     0.0000     0.0000     0.0000     0.0000 </r>
        <r>    -7.9918     0.0000     0.0000     0.0000     0.0000     0.0000     0.0000     0.0000     0.0000     0.0000 </r>
        <r>    -7.9014     0.0000     0.0000     0.0000     0.0000     0.0000     0.0000     0.0000     0.0000     0.0000 </r>
        <r>    -7.8110     0.0000     0.0000     0.0000     0.0000     0.0000     0.0000     0.0000     0.0000     0.0000 </r>
        <r>    -7.7205     0.0000     0.0000     0.0000     0.0000     0.0000     0.0000     0.0000     0.0000     0.0000 </r>
        <r>    -7.6301     0.0000     0.0000     0.0000     0.0000     0.0000     0.0000     0.0000     0.0000     0.0000 </r>
        <r>    -7.5397     0.0000     0.0000     0.0000     0.0000     0.0000     0.0000     0.0000     0.0000     0.0000 </r>
        <r>    -7.4492     0.0000     0.0000     0.0000     0.0000     0.0000     0.0000     0.0000     0.0000     0.0000 </r>
        <r>    -7.3588     0.0000     0.0000     0.0000     0.0000     0.0000     0.0000     0.0000     0.0000     0.0000 </r>
        <r>    -7.2684     0.0000     0.0000     0.0000     0.0000     0.0000     0.0000     0.0000     0.0000     0.0000 </r>
        <r>    -7.1780     0.0000     0.0000     0.0000     0.0000     0.0000     0.0000     0.0000     0.0000     0.0000 </r>
        <r>    -7.0875     0.0000     0.0000     0.0000     0.0000     0.0000     0.0000     0.0000     0.0000     0.0000 </r>
        <r>    -6.9971     0.0000     0.0000     0.0000     0.0000     0.0000     0.0000     0.0000     0.0000     0.0000 </r>
        <r>    -6.9067     0.0004     0.0000     0.0000     0.0000     0.0000     0.0000     0.0000     0.0000     0.0000 </r>
        <r>    -6.8162     0.0053     0.0000     0.0000     0.0000     0.0000     0.0000     0.0000     0.0000     0.0000 </r>
        <r>    -6.7258     0.0012     0.0000     0.0000     0.0000     0.0000     0.0000     0.0000     0.0000     0.0000 </r>
        <r>    -6.6354     0.0023     0.0000     0.0000     0.0000     0.0000     0.0000     0.0000     0.0000     0.0000 </r>
        <r>    -6.5449     0.0426     0.0002     0.0002     0.0002     0.0000     0.0000     0.0000     0.0000     0.0000 </r>
        <r>    -6.4545     0.0414     0.0002     0.0002     0.0002     0.0000     0.0000     0.0000     0.0000     0.0000 </r>
        <r>    -6.3641     0.0094     0.0001     0.0001     0.0001     0.0000     0.0000     0.0000     0.0000     0.0000 </r>
        <r>    -6.2736     0.0000     0.0000     0.0000     0.0000     0.0000     0.0000     0.0000     0.0000     0.0000 </r>
        <r>    -6.1832     0.0035     0.0000     0.0000     0.0000     0.0000     0.0000     0.0000     0.0000     0.0000 </r>
        <r>    -6.0928     0.0617     0.0007     0.0007     0.0007     0.0000     0.0000     0.0000     0.0000     0.0000 </r>
        <r>    -6.0023     0.0161     0.0002     0.0002     0.0002     0.0000     0.0000     0.0000     0.0000     0.0000 </r>
        <r>    -5.9119     0.0078     0.0001     0.0001     0.0001     0.0000     0.0000     0.0000     0.0000     0.0000 </r>
        <r>    -5.8215     0.1312     0.0021     0.0021     0.0021     0.0000     0.0000     0.0000     0.0000     0.0000 </r>
        <r>    -5.7310     0.0731     0.0012     0.0012     0.0012     0.0000     0.0000     0.0000     0.0000     0.0000 </r>
        <r>    -5.6406     0.0041     0.0001     0.0001     0.0001     0.0000     0.0000     0.0000     0.0000     0.0000 </r>
        <r>    -5.5502     0.0000     0.0000     0.0000     0.0000     0.0000     0.0000     0.0000     0.0000     0.0000 </r>
        <r>    -5.4597     0.0012     0.0000     0.0000     0.0000     0.0000     0.0000     0.0000     0.0000     0.0000 </r>
        <r>    -5.3693     0.0287     0.0007     0.0007     0.0007     0.0000     0.0000     0.0000     0.0000     0.0000 </r>
        <r>    -5.2789     0.0112     0.0003     0.0003     0.0003     0.0000     0.0000     0.0000     0.0000     0.0000 </r>
        <r>    -5.1884     0.0866     0.0021     0.0021     0.0021     0.0000     0.0000     0.0000     0.0000     0.0000 </r>
        <r>    -5.0980     0.1146     0.0029     0.0029     0.0029     0.0000     0.0000     0.0000     0.0000     0.0000 </r>
        <r>    -5.0076     0.1156     0.0033     0.0033     0.0033     0.0000     0.0000     0.0000     0.0000     0.0000 </r>
        <r>    -4.9171     0.0049     0.0001     0.0001     0.0001     0.0000     0.0000     0.0000     0.0000     0.0000 </r>
        <r>    -4.8267     0.0551     0.0015     0.0015     0.0015     0.0000     0.0000     0.0000     0.0000     0.0000 </r>
        <r>    -4.7363     0.1187     0.0032     0.0032     0.0032     0.0000     0.0000     0.0000     0.0000     0.0000 </r>
        <r>    -4.6458     0.0436     0.0010     0.0010     0.0010     0.0000     0.0000     0.0000     0.0000     0.0000 </r>
        <r>    -4.5554     0.0023     0.0001     0.0001     0.0001     0.0000     0.0000     0.0000     0.0000     0.0000 </r>
        <r>    -4.4650     0.0682     0.0027     0.0027     0.0027     0.0000     0.0000     0.0000     0.0000     0.0000 </r>
        <r>    -4.3745     0.0878     0.0035     0.0035     0.0035     0.0000     0.0000     0.0000     0.0000     0.0000 </r>
        <r>    -4.2841     0.0190     0.0005     0.0005     0.0005     0.0000     0.0000     0.0000     0.0000     0.0000 </r>
        <r>    -4.1937     0.1701     0.0048     0.0048     0.0048     0.0000     0.0000     0.0000     0.0000     0.0000 </r>
        <r>    -4.1032     0.0641     0.0022     0.0022     0.0022     0.0000     0.0000     0.0000     0.0000     0.0000 </r>
        <r>    -4.0128     0.1170     0.0045     0.0045     0.0045     0.0000     0.0000     0.0000     0.0000     0.0000 </r>
        <r>    -3.9224     0.2061     0.0079     0.0079     0.0079     0.0000     0.0000     0.0000     0.0000     0.0000 </r>
        <r>    -3.8319     0.0047     0.0002     0.0002     0.0002     0.0000     0.0000     0.0000     0.0000     0.0000 </r>
        <r>    -3.7415     0.0001     0.0000     0.0000     0.0000     0.0000     0.0000     0.0000     0.0000     0.0000 </r>
        <r>    -3.6511     0.0164     0.0009     0.0009     0.0009     0.0000     0.0000     0.0000     0.0000     0.0000 </r>
        <r>    -3.5606     0.0377     0.0019     0.0019     0.0019     0.0000     0.0000     0.0000     0.0000     0.0000 </r>
        <r>    -3.4702     0.1578     0.0071     0.0071     0.0071     0.0000     0.0000     0.0000     0.0000     0.0000 </r>
        <r>    -3.3798     0.1392     0.0075     0.0075     0.0075     0.0000     0.0000     0.0000     0.0000     0.0000 </r>
        <r>    -3.2893     0.0091     0.0005     0.0005     0.0005     0.0000     0.0000     0.0000     0.0000     0.0000 </r>
        <r>    -3.1989     0.0000     0.0000     0.0000     0.0000     0.0000     0.0000     0.0000     0.0000     0.0000 </r>
        <r>    -3.1085     0.0000     0.0000     0.0000     0.0000     0.0000     0.0000     0.0000     0.0000     0.0000 </r>
        <r>    -3.0181     0.0311     0.0017     0.0017     0.0017     0.0000     0.0000     0.0000     0.0000     0.0000 </r>
        <r>    -2.9276     0.1242     0.0067     0.0067     0.0067     0.0000     0.0000     0.0000     0.0000     0.0000 </r>
        <r>    -2.8372     0.0075     0.0004     0.0004     0.0004     0.0000     0.0000     0.0000     0.0000     0.0000 </r>
        <r>    -2.7468     0.0007     0.0000     0.0000     0.0000     0.0000     0.0000     0.0000     0.0000     0.0000 </r>
        <r>    -2.6563     0.0444     0.0030     0.0030     0.0030     0.0000     0.0000     0.0000     0.0000     0.0000 </r>
        <r>    -2.5659     0.0327     0.0022     0.0022     0.0022     0.0000     0.0000     0.0000     0.0000     0.0000 </r>
        <r>    -2.4755     0.0003     0.0000     0.0000     0.0000     0.0000     0.0000     0.0000     0.0000     0.0000 </r>
        <r>    -2.3850     0.0162     0.0014     0.0014     0.0014     0.0000     0.0000     0.0000     0.0000     0.0000 </r>
        <r>    -2.2946     0.0543     0.0047     0.0047     0.0047     0.0000     0.0000     0.0000     0.0000     0.0000 </r>
        <r>    -2.2042     0.0027     0.0002     0.0002     0.0002     0.0000     0.0000     0.0000     0.0000     0.0000 </r>
        <r>    -2.1137     0.0000     0.0000     0.0000     0.0000     0.0000     0.0000     0.0000     0.0000     0.0000 </r>
        <r>    -2.0233     0.0000     0.0000     0.0000     0.0000     0.0000     0.0000     0.0000     0.0000     0.0000 </r>
        <r>    -1.9329     0.0041     0.0004     0.0004     0.0004     0.0000     0.0000     0.0000     0.0000     0.0000 </r>
        <r>    -1.8424     0.1045     0.0099     0.0099     0.0099     0.0000     0.0000     0.0000     0.0000     0.0000 </r>
        <r>    -1.7520     0.0376     0.0036     0.0036     0.0036     0.0000     0.0000     0.0000     0.0000     0.0000 </r>
        <r>    -1.6616     0.0001     0.0000     0.0000     0.0000     0.0000     0.0000     0.0000     0.0000     0.0000 </r>
[...]
        <r>  0.0458  0.0112  0.0000  0.0223  0.0000  0.0000  0.0000  0.0000  0.0000 </r>
       </set>
       <set comment="band 7">
        <r>  0.0000  0.0426  0.1022  0.0213  0.0000  0.0000  0.0000  0.0000  0.0000 </r>
        <r>  0.0000  0.0426  0.1022  0.0213  0.0000  0.0000  0.0000  0.0000  0.0000 </r>
       </set>
       <set comment="band 8">
        <r>  0.0000  0.0682  0.0639  0.0341  0.0000  0.0000  0.0000  0.0000  0.0000 </r>
        <r>  0.0000  0.0682  0.0639  0.0341  0.0000  0.0000  0.0000  0.0000  0.0000 </r>
       </set>
       <set comment="band 9">
        <r>  0.1495  0.0384  0.0000  0.0769  0.0000  0.0000  0.0000  0.0000  0.0000 </r>
        <r>  0.1495  0.0384  0.0000  0.0769  0.0000  0.0000  0.0000  0.0000  0.0000 </r>
       </set>
      </set>
      <set comment="kpoint 12">
       <set comment="band 1">
        <r>  0.2040  0.0045  0.0000  0.0197  0.0000  0.0000  0.0000  0.0000  0.0000 </r>
        <r>  0.2040  0.0045  0.0000  0.0197  0.0000  0.0000  0.0000  0.0000  0.0000 </r>
       </set>
       <set comment="band 2">
        <r>  0.1715  0.0128  0.0000  0.0620  0.0000  0.0000  0.0000  0.0000  0.0000 </r>
        <r>  0.1715  0.0128  0.0000  0.0620  0.0000  0.0000  0.0000  0.0000  0.0000 </r>
       </set>
       <set comment="band 3">
        <r>  0.0100  0.1252  0.0000  0.0457  0.0000  0.0000  0.0000  0.0000  0.0000 </r>
        <r>  0.0100  0.1252  0.0000  0.0457  0.0000  0.0000  0.0000  0.0000  0.0000 </r>
       </set>
       <set comment="band 4">
        <r>  0.0000  0.0000  0.1993  0.0000  0.0000  0.0000  0.0000  0.0000  0.0000 </r>
        <r>  0.0000  0.0000  0.1993  0.0000  0.0000  0.0000  0.0000  0.0000  0.0000 </r>
       </set>
       <set comment="band 5">
        <r>  0.0461  0.0429  0.0000  0.0158  0.0000  0.0000  0.0000  0.0000  0.0000 </r>
        <r>  0.0461  0.0429  0.0000  0.0158  0.0000  0.0000  0.0000  0.0000  0.0000 </r>
       </set>
       <set comment="band 6">
        <r>  0.0376  0.0221  0.0000  0.0357  0.0000  0.0000  0.0000  0.0000  0.0000 </r>
        <r>  0.0376  0.0221  0.0000  0.0357  0.0000  0.0000  0.0000  0.0000  0.0000 </r>
       </set>
       <set comment="band 7">
        <r>  0.0415  0.1338  0.0000  0.0060  0.0000  0.0000  0.0000  0.0000  0.0000 </r>
        <r>  0.0415  0.1338  0.0000  0.0060  0.0000  0.0000  0.0000  0.0000  0.0000 </r>
       </set>
       <set comment="band 8">
        <r>  0.0000  0.0000  0.1307  0.0000  0.0000  0.0000  0.0000  0.0000  0.0000 </r>
        <r>  0.0000  0.0000  0.1307  0.0000  0.0000  0.0000  0.0000  0.0000  0.0000 </r>
       </set>
       <set comment="band 9">
        <r>  0.0168  0.0025  0.0199  0.0308  0.0000  0.0000  0.0000  0.0000  0.0000 </r>
        <r>  0.0152  0.0011  0.0197  0.0489  0.0000  0.0000  0.0000  0.0000  0.0000 </r>
       </set>
      </set>
      <set comment="kpoint 13">
       <set comment="band 1">
        <r>  0.2136  0.0098  0.0000  0.0177  0.0000  0.0000  0.0000  0.0000  0.0000 </r>
        <r>  0.2136  0.0098  0.0000  0.0177  0.0000  0.0000  0.0000  0.0000  0.0000 </r>
       </set>
       <set comment="band 2">
        <r>  0.1638  0.0097  0.0000  0.0579  0.0000  0.0000  0.0000  0.0000  0.0000 </r>
        <r>  0.1638  0.0097  0.0000  0.0579  0.0000  0.0000  0.0000  0.0000  0.0000 </r>
       </set>
       <set comment="band 3">
        <r>  0.0139  0.1110  0.0000  0.0430  0.0000  0.0000  0.0000  0.0000  0.0000 </r>
        <r>  0.0139  0.1110  0.0000  0.0430  0.0000  0.0000  0.0000  0.0000  0.0000 </r>
       </set>
       <set comment="band 4">
        <r>  0.0000  0.0000  0.2023  0.0000  0.0000  0.0000  0.0000  0.0000  0.0000 </r>
        <r>  0.0000  0.0000  0.2023  0.0000  0.0000  0.0000  0.0000  0.0000  0.0000 </r>
       </set>
       <set comment="band 5">
        <r>  0.0523  0.0237  0.0000  0.0230  0.0000  0.0000  0.0000  0.0000  0.0000 </r>
        <r>  0.0523  0.0237  0.0000  0.0230  0.0000  0.0000  0.0000  0.0000  0.0000 </r>
       </set>
       <set comment="band 6">
        <r>  0.0156  0.0533  0.0000  0.0288  0.0000  0.0000  0.0000  0.0000  0.0000 </r>
        <r>  0.0156  0.0533  0.0000  0.0288  0.0000  0.0000  0.0000  0.0000  0.0000 </r>
       </set>
       <set comment="band 7">
        <r>  0.0000  0.0000  0.1182  0.0000  0.0000  0.0000  0.0000  0.0000  0.0000 </r>
        <r>  0.0000  0.0000  0.1182  0.0000  0.0000  0.0000  0.0000  0.0000  0.0000 </r>
       </set>
       <set comment="band 8">
        <r>  0.0626  0.1187  0.0000  0.0132  0.0000  0.0000  0.0000  0.0000  0.0000 </r>
        <r>  0.0626  0.1187  0.0000  0.0132  0.0000  0.0000  0.0000  0.0000  0.0000 </r>
       </set>
       <set comment="band 9">
        <r>  0.0065  0.0038  0.0375  0.0295  0.0000  0.0000  0.0000  0.0000  0.0000 </r>
        <r>  0.0065  0.0038  0.0374  0.0295  0.0000  0.0000  0.0000  0.0000  0.0000 </r>
       </set>
      </set>
      <set comment="kpoint 14">
       <set comment="band 1">
        <r>  0.2104  0.0138  0.0000  0.0094  0.0000  0.0000  0.0000  0.0000  0.0000 </r>
        <r>  0.2104  0.0138  0.0000  0.0094  0.0000  0.0000  0.0000  0.0000  0.0000 </r>
       </set>
       <set comment="band 2">
        <r>  0.1630  0.0361  0.0000  0.0387  0.0000  0.0000  0.0000  0.0000  0.0000 </r>
        <r>  0.1630  0.0361  0.0000  0.0387  0.0000  0.0000  0.0000  0.0000  0.0000 </r>
       </set>
       <set comment="band 3">
        <r>  0.0097  0.0779  0.0000  0.0761  0.0000  0.0000  0.0000  0.0000  0.0000 </r>
        <r>  0.0097  0.0779  0.0000  0.0761  0.0000  0.0000  0.0000  0.0000  0.0000 </r>
       </set>
       <set comment="band 4">
        <r>  0.0000  0.0000  0.2078  0.0000  0.0000  0.0000  0.0000  0.0000  0.0000 </r>
        <r>  0.0000  0.0000  0.2078  0.0000  0.0000  0.0000  0.0000  0.0000  0.0000 </r>
       </set>
       <set comment="band 5">
        <r>  0.0581  0.0196  0.0000  0.0358  0.0000  0.0000  0.0000  0.0000  0.0000 </r>
        <r>  0.0581  0.0196  0.0000  0.0358  0.0000  0.0000  0.0000  0.0000  0.0000 </r>
       </set>
       <set comment="band 6">
        <r>  0.0000  0.0000  0.1500  0.0000  0.0000  0.0000  0.0000  0.0000  0.0000 </r>
        <r>  0.0000  0.0000  0.1500  0.0000  0.0000  0.0000  0.0000  0.0000  0.0000 </r>
       </set>
       <set comment="band 7">
        <r>  0.0248  0.0305  0.0000  0.0606  0.0000  0.0000  0.0000  0.0000  0.0000 </r>
        <r>  0.0248  0.0305  0.0000  0.0606  0.0000  0.0000  0.0000  0.0000  0.0000 </r>
       </set>
       <set comment="band 8">
        <r>  0.0742  0.0790  0.0000  0.0552  0.0000  0.0000  0.0000  0.0000  0.0000 </r>
        <r>  0.0742  0.0790  0.0000  0.0552  0.0000  0.0000  0.0000  0.0000  0.0000 </r>
       </set>
       <set comment="band 9">
        <r>  0.0000  0.0000  0.0102  0.0000  0.0000  0.0000  0.0000  0.0000  0.0000 </r>
        <r>  0.0000  0.0000  0.0102  0.0000  0.0000  0.0000  0.0000  0.0000  0.0000 </r>
       </set>
      </set>
      <set comment="kpoint 15">
       <set comment="band 1">
        <r>  0.1979  0.0113  0.0000  0.0226  0.0000  0.0000  0.0000  0.0000  0.0000 </r>
        <r>  0.1979  0.0113  0.0000  0.0226  0.0000  0.0000  0.0000  0.0000  0.0000 </r>
       </set>
       <set comment="band 2">
        <r>  0.1855  0.0197  0.0000  0.0394  0.0000  0.0000  0.0000  0.0000  0.0000 </r>
        <r>  0.1855  0.0197  0.0000  0.0394  0.0000  0.0000  0.0000  0.0000  0.0000 </r>
       </set>
       <set comment="band 3">
        <r>  0.0000  0.1318  0.0001  0.0659  0.0000  0.0000  0.0000  0.0000  0.0000 </r>
        <r>  0.0000  0.1318  0.0001  0.0659  0.0000  0.0000  0.0000  0.0000  0.0000 </r>
       </set>
       <set comment="band 4">
        <r>  0.0000  0.0001  0.1977  0.0000  0.0000  0.0000  0.0000  0.0000  0.0000 </r>
        <r>  0.0000  0.0001  0.1977  0.0000  0.0000  0.0000  0.0000  0.0000  0.0000 </r>
       </set>
       <set comment="band 5">
        <r>  0.0525  0.0146  0.0000  0.0292  0.0000  0.0000  0.0000  0.0000  0.0000 </r>
        <r>  0.0525  0.0146  0.0000  0.0292  0.0000  0.0000  0.0000  0.0000  0.0000 </r>
       </set>
       <set comment="band 6">
        <r>  0.0484  0.0105  0.0000  0.0211  0.0000  0.0000  0.0000  0.0000  0.0000 </r>
        <r>  0.0484  0.0105  0.0000  0.0211  0.0000  0.0000  0.0000  0.0000  0.0000 </r>
       </set>
       <set comment="band 7">
        <r>  0.0000  0.1130  0.0004  0.0565  0.0000  0.0000  0.0000  0.0000  0.0000 </r>
        <r>  0.0000  0.1130  0.0004  0.0565  0.0000  0.0000  0.0000  0.0000  0.0000 </r>
       </set>
       <set comment="band 8">
        <r>  0.0000  0.0003  0.1695  0.0001  0.0000  0.0000  0.0000  0.0000  0.0000 </r>
        <r>  0.0000  0.0003  0.1695  0.0001  0.0000  0.0000  0.0000  0.0000  0.0000 </r>
       </set>
       <set comment="band 9">
        <r>  0.0471  0.0252  0.0038  0.0607  0.0000  0.0000  0.0000  0.0000  0.0000 </r>
        <r>  0.0469  0.0306  0.0038  0.0559  0.0000  0.0000  0.0000  0.0000  0.0000 </r>
       </set>
      </set>
      <set comment="kpoint 16">
       <set comment="band 1">
        <r>  0.2016  0.0145  0.0000  0.0262  0.0000  0.0000  0.0000  0.0000  0.0000 </r>
        <r>  0.2016  0.0145  0.0000  0.0262  0.0000  0.0000  0.0000  0.0000  0.0000 </r>
       </set>
       <set comment="band 2">
        <r>  0.1891  0.0176  0.0000  0.0314  0.0000  0.0000  0.0000  0.0000  0.0000 </r>
        <r>  0.1891  0.0176  0.0000  0.0314  0.0000  0.0000  0.0000  0.0000  0.0000 </r>
       </set>
       <set comment="band 3">
        <r>  0.0020  0.1067  0.0000  0.0633  0.0000  0.0000  0.0000  0.0000  0.0000 </r>
        <r>  0.0020  0.1067  0.0000  0.0633  0.0000  0.0000  0.0000  0.0000  0.0000 </r>
       </set>
       <set comment="band 4">
        <r>  0.0000  0.0000  0.1988  0.0000  0.0000  0.0000  0.0000  0.0000  0.0000 </r>
        <r>  0.0000  0.0000  0.1988  0.0000  0.0000  0.0000  0.0000  0.0000  0.0000 </r>
       </set>
       <set comment="band 5">
        <r>  0.0516  0.0128  0.0000  0.0250  0.0000  0.0000  0.0000  0.0000  0.0000 </r>
        <r>  0.0516  0.0128  0.0000  0.0250  0.0000  0.0000  0.0000  0.0000  0.0000 </r>
       </set>
       <set comment="band 6">
        <r>  0.0380  0.0373  0.0000  0.0306  0.0000  0.0000  0.0000  0.0000  0.0000 </r>
        <r>  0.0380  0.0373  0.0000  0.0306  0.0000  0.0000  0.0000  0.0000  0.0000 </r>
       </set>
       <set comment="band 7">
        <r>  0.0000  0.0000  0.1775  0.0000  0.0000  0.0000  0.0000  0.0000  0.0000 </r>
        <r>  0.0000  0.0000  0.1765  0.0000  0.0000  0.0000  0.0000  0.0000  0.0000 </r>
       </set>
       <set comment="band 8">
        <r>  0.0223  0.1244  0.0001  0.0873  0.0000  0.0000  0.0000  0.0000  0.0000 </r>
        <r>  0.0343  0.1245  0.0001  0.0769  0.0000  0.0000  0.0000  0.0000  0.0000 </r>
       </set>
       <set comment="band 9">
        <r>  0.0225  0.0259  0.0019  0.0375  0.0000  0.0000  0.0000  0.0000  0.0000 </r>
        <r>  0.0156  0.0257  0.0018  0.0434  0.0000  0.0000  0.0000  0.0000  0.0000 </r>
       </set>
      </set>
      <set comment="kpoint 17">
       <set comment="band 1">
        <r>  0.2072  0.0018  0.0017  0.0140  0.0000  0.0000  0.0000  0.0000  0.0000 </r>
        <r>  0.2072  0.0018  0.0017  0.0140  0.0000  0.0000  0.0000  0.0000  0.0000 </r>
       </set>
       <set comment="band 2">
        <r>  0.1530  0.0126  0.0211  0.0564  0.0000  0.0000  0.0000  0.0000  0.0000 </r>
        <r>  0.1530  0.0126  0.0211  0.0564  0.0000  0.0000  0.0000  0.0000  0.0000 </r>
       </set>
       <set comment="band 3">
        <r>  0.0109  0.0339  0.0732  0.0600  0.0000  0.0000  0.0000  0.0000  0.0000 </r>
        <r>  0.0109  0.0339  0.0732  0.0600  0.0000  0.0000  0.0000  0.0000  0.0000 </r>
       </set>
       <set comment="band 4">
        <r>  0.0064  0.1172  0.0672  0.0097  0.0000  0.0000  0.0000  0.0000  0.0000 </r>
        <r>  0.0064  0.1172  0.0672  0.0097  0.0000  0.0000  0.0000  0.0000  0.0000 </r>
       </set>
       <set comment="band 5">
        <r>  0.0282  0.0594  0.0262  0.0197  0.0000  0.0000  0.0000  0.0000  0.0000 </r>
        <r>  0.0282  0.0594  0.0262  0.0197  0.0000  0.0000  0.0000  0.0000  0.0000 </r>
       </set>
       <set comment="band 6">
        <r>  0.0533  0.0055  0.0141  0.0336  0.0000  0.0000  0.0000  0.0000  0.0000 </r>
        <r>  0.0533  0.0055  0.0141  0.0336  0.0000  0.0000  0.0000  0.0000  0.0000 </r>
       </set>
       <set comment="band 7">
        <r>  0.0381  0.0469  0.0485  0.0087  0.0000  0.0000  0.0000  0.0000  0.0000 </r>
        <r>  0.0381  0.0469  0.0485  0.0087  0.0000  0.0000  0.0000  0.0000  0.0000 </r>
       </set>
       <set comment="band 8">
        <r>  0.0065  0.0669  0.0693  0.0137  0.0000  0.0000  0.0000  0.0000  0.0000 </r>
        <r>  0.0065  0.0669  0.0693  0.0137  0.0000  0.0000  0.0000  0.0000  0.0000 </r>
       </set>
       <set comment="band 9">
        <r>  0.0421  0.0065  0.0053  0.0435  0.0000  0.0000  0.0000  0.0000  0.0000 </r>
        <r>  0.0421  0.0065  0.0053  0.0435  0.0000  0.0000  0.0000  0.0000  0.0000 </r>
       </set>
      </set>
      <set comment="kpoint 18">
       <set comment="band 1">
        <r>  0.2117  0.0037  0.0022  0.0182  0.0000  0.0000  0.0000  0.0000  0.0000 </r>
        <r>  0.2117  0.0037  0.0022  0.0182  0.0000  0.0000  0.0000  0.0000  0.0000 </r>
       </set>
       <set comment="band 2">
        <r>  0.1518  0.0111  0.0036  0.0618  0.0000  0.0000  0.0000  0.0000  0.0000 </r>
        <r>  0.1518  0.0111  0.0036  0.0618  0.0000  0.0000  0.0000  0.0000  0.0000 </r>
       </set>
       <set comment="band 3">
        <r>  0.0260  0.0631  0.0533  0.0372  0.0000  0.0000  0.0000  0.0000  0.0000 </r>
        <r>  0.0260  0.0631  0.0533  0.0372  0.0000  0.0000  0.0000  0.0000  0.0000 </r>
       </set>
       <set comment="band 4">
        <r>  0.0021  0.0727  0.1054  0.0103  0.0000  0.0000  0.0000  0.0000  0.0000 </r>
        <r>  0.0021  0.0727  0.1054  0.0103  0.0000  0.0000  0.0000  0.0000  0.0000 </r>
       </set>
       <set comment="band 5">
        <r>  0.0349  0.0297  0.0416  0.0124  0.0000  0.0000  0.0000  0.0000  0.0000 </r>
        <r>  0.0349  0.0297  0.0416  0.0124  0.0000  0.0000  0.0000  0.0000  0.0000 </r>
       </set>
       <set comment="band 6">
        <r>  0.0426  0.0420  0.0407  0.0034  0.0000  0.0000  0.0000  0.0000  0.0000 </r>
        <r>  0.0426  0.0420  0.0407  0.0034  0.0000  0.0000  0.0000  0.0000  0.0000 </r>
       </set>
       <set comment="band 7">
        <r>  0.0324  0.0546  0.0005  0.0373  0.0000  0.0000  0.0000  0.0000  0.0000 </r>
        <r>  0.0324  0.0546  0.0005  0.0373  0.0000  0.0000  0.0000  0.0000  0.0000 </r>
       </set>
       <set comment="band 8">
        <r>  0.0178  0.0627  0.0570  0.0012  0.0000  0.0000  0.0000  0.0000  0.0000 </r>
        <r>  0.0178  0.0626  0.0570  0.0012  0.0000  0.0000  0.0000  0.0000  0.0000 </r>
       </set>
       <set comment="band 9">
        <r>  0.0140  0.0109  0.0342  0.0719  0.0000  0.0000  0.0000  0.0000  0.0000 </r>
        <r>  0.0140  0.0109  0.0342  0.0722  0.0000  0.0000  0.0000  0.0000  0.0000 </r>
       </set>
      </set>
      <set comment="kpoint 19">
       <set comment="band 1">
        <r>  0.2025  0.0080  0.0021  0.0235  0.0000  0.0000  0.0000  0.0000  0.0000 </r>
        <r>  0.2025  0.0080  0.0021  0.0235  0.0000  0.0000  0.0000  0.0000  0.0000 </r>
       </set>
       <set comment="band 2">
        <r>  0.1905  0.0152  0.0063  0.0352  0.0000  0.0000  0.0000  0.0000  0.0000 </r>
        <r>  0.1905  0.0152  0.0063  0.0352  0.0000  0.0000  0.0000  0.0000  0.0000 </r>
       </set>
       <set comment="band 3">
        <r>  0.0059  0.0324  0.0748  0.0604  0.0000  0.0000  0.0000  0.0000  0.0000 </r>
        <r>  0.0059  0.0324  0.0748  0.0604  0.0000  0.0000  0.0000  0.0000  0.0000 </r>
       </set>
       <set comment="band 4">
        <r>  0.0000  0.0913  0.0749  0.0106  0.0000  0.0000  0.0000  0.0000  0.0000 </r>
        <r>  0.0000  0.0913  0.0749  0.0106  0.0000  0.0000  0.0000  0.0000  0.0000 </r>
       </set>
       <set comment="band 5">
        <r>  0.0364  0.0464  0.0242  0.0089  0.0000  0.0000  0.0000  0.0000  0.0000 </r>
        <r>  0.0364  0.0464  0.0242  0.0089  0.0000  0.0000  0.0000  0.0000  0.0000 </r>
       </set>
       <set comment="band 6">
        <r>  0.0369  0.0044  0.0203  0.0364  0.0000  0.0000  0.0000  0.0000  0.0000 </r>
        <r>  0.0369  0.0044  0.0203  0.0364  0.0000  0.0000  0.0000  0.0000  0.0000 </r>
       </set>
       <set comment="band 7">
        <r>  0.0320  0.0615  0.0443  0.0072  0.0000  0.0000  0.0000  0.0000  0.0000 </r>
        <r>  0.0320  0.0615  0.0443  0.0072  0.0000  0.0000  0.0000  0.0000  0.0000 </r>
       </set>
       <set comment="band 8">
        <r>  0.0168  0.0240  0.0665  0.0669  0.0000  0.0000  0.0000  0.0000  0.0000 </r>
        <r>  0.0169  0.0240  0.0665  0.0669  0.0000  0.0000  0.0000  0.0000  0.0000 </r>
       </set>
       <set comment="band 9">
        <r>  0.0001  0.0487  0.0356  0.0163  0.0000  0.0000  0.0000  0.0000  0.0000 </r>
        <r>  0.0001  0.0486  0.0356  0.0162  0.0000  0.0000  0.0000  0.0000  0.0000 </r>
       </set>
      </set>
      <set comment="kpoint 20">
       <set comment="band 1">
        <r>  0.2105  0.0145  0.0034  0.0160  0.0000  0.0000  0.0000  0.0000  0.0000 </r>
        <r>  0.2105  0.0145  0.0034  0.0160  0.0000  0.0000  0.0000  0.0000  0.0000 </r>
       </set>
       <set comment="band 2">
        <r>  0.1891  0.0219  0.0030  0.0289  0.0000  0.0000  0.0000  0.0000  0.0000 </r>
        <r>  0.1891  0.0219  0.0030  0.0289  0.0000  0.0000  0.0000  0.0000  0.0000 </r>
       </set>
       <set comment="band 3">
        <r>  0.0008  0.0877  0.0006  0.0699  0.0000  0.0000  0.0000  0.0000  0.0000 </r>
        <r>  0.0008  0.0877  0.0006  0.0699  0.0000  0.0000  0.0000  0.0000  0.0000 </r>
       </set>
       <set comment="band 4">
        <r>  0.0026  0.0074  0.1537  0.0146  0.0000  0.0000  0.0000  0.0000  0.0000 </r>
        <r>  0.0026  0.0074  0.1537  0.0146  0.0000  0.0000  0.0000  0.0000  0.0000 </r>
       </set>
       <set comment="band 5">
        <r>  0.0355  0.0114  0.0443  0.0191  0.0000  0.0000  0.0000  0.0000  0.0000 </r>
        <r>  0.0355  0.0114  0.0443  0.0191  0.0000  0.0000  0.0000  0.0000  0.0000 </r>
       </set>
       <set comment="band 6">
        <r>  0.0030  0.0400  0.0237  0.0203  0.0000  0.0000  0.0000  0.0000  0.0000 </r>
        <r>  0.0030  0.0400  0.0237  0.0203  0.0000  0.0000  0.0000  0.0000  0.0000 </r>
       </set>
       <set comment="band 7">
        <r>  0.0461  0.0273  0.0554  0.0391  0.0000  0.0000  0.0000  0.0000  0.0000 </r>
        <r>  0.0461  0.0273  0.0554  0.0391  0.0000  0.0000  0.0000  0.0000  0.0000 </r>
       </set>
       <set comment="band 8">
        <r>  0.0386  0.0514  0.0010  0.0405  0.0000  0.0000  0.0000  0.0000  0.0000 </r>
        <r>  0.0386  0.0514  0.0010  0.0405  0.0000  0.0000  0.0000  0.0000  0.0000 </r>
       </set>
       <set comment="band 9">
        <r>  0.0071  0.0228  0.0705  0.0456  0.0000  0.0000  0.0000  0.0000  0.0000 </r>
        <r>  0.0066  0.0230  0.0696  0.0459  0.0000  0.0000  0.0000  0.0000  0.0000 </r>
       </set>
      </set>
     </set>
    </set>
   </array>
  </projected>
 </calculation>
 <structure name="finalpos" >
  <crystal>
   <varray name="basis" >
    <v>       3.34889828       0.00000000       1.93348733 </v>
    <v>       1.11629943       3.15737158       1.93348733 </v>
    <v>       0.00000000       0.00000000       3.86697465 </v>
   </varray>
   <i name="volume">     40.88829275 </i>
   <varray name="rec_basis" >
    <v>       0.29860567      -0.10557305       0.00000000 </v>
    <v>       0.00000000       0.31671914       0.00000000 </v>
    <v>      -0.14930283      -0.10557305       0.25860009 </v>
   </varray>
  </crystal>
  <varray name="positions" >
   <v>       0.25000000       0.25000000       0.25000000 </v>
   <v>       0.00000000       0.00000000       0.00000000 </v>
  </varray>
 </structure>
</modeling>
