 vasp.6.2.1 16May21 (build Oct 27 2021 18:14:32) complex

 executed on             LinuxIFC date 2021.10.28  14:46:07
 running on    4 total cores
 distrk:  each k-point on    4 cores,    1 groups
 distr:  one band on NCORE=   1 cores,    4 groups


--------------------------------------------------------------------------------------------------------


 INCAR:
   ALGO = Normal
   EDIFF = 1e-05
   EDIFFG = -0.02
   ENAUG = 1360
   ENCUT = 680
   IBRION = 2
   ISIF = 3
   ISMEAR = -5
   ISPIN = 2
   KSPACING = 0.22
   LAECHG = True
   LASPH = True
   LCHARG = True
   LELF = True
   LMIXTAU = True
   LORBIT = 11
   LREAL = Auto
   LVTOT = True
   LWAVE = False
   MAGMOM = 2*0.6
   NELM = 200
   NSW = 1
   PREC = Accurate
   SIGMA = 0.2

 POTCAR:    PAW_PBE Si 05Jan2001
 WARNING: For LVTOT=.TRUE., VASP.5.x writes the TOTAL local potential to the
     file LOCPOT. If you want only the Hartree contributions, use LVHAR=.TRUE.
     instead.

 POTCAR:    PAW_PBE Si 05Jan2001
   VRHFIN =Si: s2p2
   LEXCH  = PE
   EATOM  =   103.0669 eV,    7.5752 Ry

   TITEL  = PAW_PBE Si 05Jan2001
   LULTRA =        F    use ultrasoft PP ?
   IUNSCR =        1    unscreen: 0-lin 1-nonlin 2-no
   RPACOR =    1.500    partial core radius
   POMASS =   28.085; ZVAL   =    4.000    mass and valenz
   RCORE  =    1.900    outmost cutoff radius
   RWIGS  =    2.480; RWIGS  =    1.312    wigner-seitz radius (au A)
   ENMAX  =  245.345; ENMIN  =  184.009 eV
   ICORE  =        2    local potential
   LCOR   =        T    correct aug charges
   LPAW   =        T    paw PP
   EAUG   =  322.069
   DEXC   =    0.000
   RMAX   =    1.950    core radius for proj-oper
   RAUG   =    1.300    factor for augmentation sphere
   RDEP   =    1.993    radius for radial grids
   RDEPT  =    1.837    core radius for aug-charge

   Atomic configuration
    6 entries
     n  l   j            E        occ.
     1  0  0.50     -1785.8828   2.0000
     2  0  0.50      -139.4969   2.0000
     2  1  1.50       -95.5546   6.0000
     3  0  0.50       -10.8127   2.0000
     3  1  0.50        -4.0811   2.0000
     3  2  1.50        -4.0817   0.0000
   Description
     l       E           TYP  RCUT    TYP  RCUT
     0    -10.8127223     23  1.900
     0     -7.6451159     23  1.900
     1     -4.0811372     23  1.900
     1      2.4879257     23  1.900
     2     -4.0817478      7  1.900
  local pseudopotential read in
  partial core-charges read in
  partial kinetic energy density read in
  atomic valenz-charges read in
  non local Contribution for L=           0  read in
    real space projection operators read in
  non local Contribution for L=           0  read in
    real space projection operators read in
  non local Contribution for L=           1  read in
    real space projection operators read in
  non local Contribution for L=           1  read in
    real space projection operators read in
    PAW grid and wavefunctions read in

   number of l-projection  operators is LMAX  =           4
   number of lm-projection operators is LMMAX =           8

 -----------------------------------------------------------------------------
|                                                                             |
|               ----> ADVICE to this user running VASP <----                  |
|                                                                             |
|     You have a (more or less) 'small supercell' and for smaller cells       |
|     it is recommended to use the reciprocal-space projection scheme!        |
|     The real-space optimization is not efficient for small cells and it     |
|     is also less accurate ...                                               |
|     Therefore, set LREAL=.FALSE. in the INCAR file.                         |
|                                                                             |
 -----------------------------------------------------------------------------

 Optimization of the real space projectors (new method)

 maximal supplied QI-value         = 19.84
 optimisation between [QCUT,QGAM] = [ 13.29, 26.59] = [ 49.49,197.96] Ry
 Optimized for a Real-space Cutoff    1.12 Angstroem

   l    n(q)    QCUT    max X(q) W(low)/X(q) W(high)/X(q)  e(spline)
   0      9    13.294   159.560    0.23E-03    0.88E-04    0.53E-07
   0      9    13.294   115.863    0.22E-03    0.87E-04    0.52E-07
   1      8    13.294    88.339    0.81E-04    0.17E-03    0.12E-06
   1      8    13.294    48.592    0.79E-04    0.17E-03    0.12E-06
  PAW_PBE Si 05Jan2001                  :
 energy of atom  1       EATOM= -103.0669
 kinetic energy error for atom=    0.0003 (will be added to EATOM!!)


 POSCAR: Si2
  positions in direct lattice
  No initial velocities read in
 exchange correlation table for  LEXCH =        8
   RHO(1)=    0.500       N(1)  =     2000
   RHO(2)=  100.500       N(2)  =     4000



--------------------------------------------------------------------------------------------------------


 ion  position               nearest neighbor table
   1  0.250  0.250  0.250-   2 2.37   2 2.37   2 2.37   2 2.37
   2  0.000  0.000  0.000-   1 2.37   1 2.37   1 2.37   1 2.37

  LATTYP: Found a face centered cubic cell.
 ALAT       =     5.4687280757

  Lattice vectors:

 A1 = (   3.3488980000,   0.0000000000,   1.9334870000)
 A2 = (   1.1162990000,   3.1573720000,   1.9334870000)
 A3 = (   0.0000000000,   0.0000000000,   3.8669750000)


Analysis of symmetry for initial positions (statically):
=====================================================================
 Subroutine PRICEL returns:
 Original cell was already a primitive cell.


 Routine SETGRP: Setting up the symmetry group for a
 face centered cubic supercell.


 Subroutine GETGRP returns: Found 48 space group operations
 (whereof 24 operations were pure point group operations)
 out of a pool of 48 trial point group operations.


The static configuration has the point symmetry T_d .
 The point group associated with its full space group is O_h .


Analysis of symmetry for dynamics (positions and initial velocities):
=====================================================================
 Subroutine PRICEL returns:
 Original cell was already a primitive cell.


 Routine SETGRP: Setting up the symmetry group for a
 face centered cubic supercell.


 Subroutine GETGRP returns: Found 48 space group operations
 (whereof 24 operations were pure point group operations)
 out of a pool of 48 trial point group operations.


The dynamic configuration has the point symmetry T_d .
 The point group associated with its full space group is O_h .


Analysis of structural, dynamic, and magnetic symmetry:
=====================================================================
 Subroutine PRICEL returns:
 Original cell was already a primitive cell.


 Routine SETGRP: Setting up the symmetry group for a
 face centered cubic supercell.


 Subroutine GETGRP returns: Found 48 space group operations
 (whereof 24 operations were pure point group operations)
 out of a pool of 48 trial point group operations.


The overall configuration has the point symmetry T_d .
 The point group associated with its full space group is O_h .


 Subroutine INISYM returns: Found 48 space group operations
 (whereof 24 operations are pure point group operations),
 and found     1 'primitive' translations


----------------------------------------------------------------------------------------

                                     Primitive cell

  volume of cell :      40.8883

  direct lattice vectors                    reciprocal lattice vectors
     3.348898000  0.000000000  1.933487000     0.298605691 -0.105573000  0.000000000
     1.116299000  3.157372000  1.933487000     0.000000000  0.316719094  0.000000000
     0.000000000  0.000000000  3.866975000    -0.149302807 -0.105573020  0.258600069

  length of vectors
     3.866974243  3.866974707  3.866975000     0.316719145  0.316719094  0.316719096

  position of ions in fractional coordinates (direct lattice)
     0.250000000  0.250000000  0.250000000
     0.000000000  0.000000000  0.000000000

  ion indices of the primitive-cell ions
   primitive index   ion index
                 1           1
                 2           2

----------------------------------------------------------------------------------------


 -----------------------------------------------------------------------------
|                                                                             |
|           W    W    AA    RRRRR   N    N  II  N    N   GGGG   !!!           |
|           W    W   A  A   R    R  NN   N  II  NN   N  G    G  !!!           |
|           W    W  A    A  R    R  N N  N  II  N N  N  G       !!!           |
|           W WW W  AAAAAA  RRRRR   N  N N  II  N  N N  G  GGG   !            |
|           WW  WW  A    A  R   R   N   NN  II  N   NN  G    G                |
|           W    W  A    A  R    R  N    N  II  N    N   GGGG   !!!           |
|                                                                             |
|     The requested file  could not be found or opened for reading            |
|     k-point information. Automatic k-point generation is used as a          |
|     fallback, which may lead to unwanted results.                           |
|                                                                             |
 -----------------------------------------------------------------------------



Automatic generation of k-mesh.
 Grid dimensions derived from KSPACING:
 generate k-points for:   10   10   10

 Generating k-lattice:

  Cartesian coordinates                     Fractional coordinates (reciprocal lattice)
     0.029860569 -0.010557300  0.000000000     0.100000000 -0.000000000  0.000000000
     0.000000000  0.031671909  0.000000000     0.000000000  0.100000000  0.000000000
    -0.014930281 -0.010557302  0.025860007    -0.000000000  0.000000000  0.100000000

  Length of vectors
     0.031671914  0.031671909  0.031671910

  Shift w.r.t. Gamma in fractional coordinates (k-lattice)
     0.000000000  0.000000000  0.000000000

 TETIRR: Found    148 inequivalent tetrahedra from     6000

 Subroutine IBZKPT returns following result:
 ===========================================

 Found     47 irreducible k-points:

 Following reciprocal coordinates:
            Coordinates               Weight
  0.000000  0.000000  0.000000      1.000000
  0.100000  0.000000  0.000000      8.000000
  0.200000  0.000000  0.000000      8.000000
  0.300000 -0.000000  0.000000      8.000000
  0.400000  0.000000  0.000000      8.000000
  0.500000  0.000000  0.000000      4.000000
  0.100000  0.100000  0.000000      6.000000
  0.200000  0.100000  0.000000     24.000000
  0.300000  0.100000  0.000000     24.000000
  0.400000  0.100000  0.000000     24.000000
  0.500000  0.100000  0.000000     24.000000
 -0.400000  0.100000  0.000000     24.000000
 -0.300000  0.100000  0.000000     24.000000
 -0.200000  0.100000  0.000000     24.000000
 -0.100000  0.100000  0.000000     12.000000
  0.200000  0.200000  0.000000      6.000000
  0.300000  0.200000  0.000000     24.000000
  0.400000  0.200000  0.000000     24.000000
  0.500000  0.200000  0.000000     24.000000
 -0.400000  0.200000  0.000000     24.000000
 -0.300000  0.200000  0.000000     24.000000
 -0.200000  0.200000  0.000000     12.000000
  0.300000  0.300000  0.000000      6.000000
  0.400000  0.300000  0.000000     24.000000
  0.500000  0.300000  0.000000     24.000000
 -0.400000  0.300000  0.000000     24.000000
 -0.300000  0.300000  0.000000     12.000000
  0.400000  0.400000  0.000000      6.000000
  0.500000  0.400000  0.000000     24.000000
 -0.400000  0.400000  0.000000     12.000000
  0.500000  0.500000  0.000000      3.000000
  0.300000  0.200000  0.100000     24.000000
  0.400000  0.200000  0.100000     48.000000
  0.500000  0.200000  0.100000     48.000000
 -0.400000  0.200000  0.100000     24.000000
  0.400000  0.300000  0.100000     24.000000
  0.500000  0.300000  0.100000     48.000000
 -0.400000  0.300000  0.100000     48.000000
 -0.300000  0.300000  0.100000     48.000000
 -0.200000  0.300000  0.100000     24.000000
  0.500000  0.400000  0.100000     24.000000
 -0.400000  0.400000  0.100000     48.000000
 -0.300000  0.400000  0.100000     24.000000
 -0.400000  0.500000  0.100000     12.000000
 -0.400000  0.400000  0.200000     24.000000
 -0.300000  0.400000  0.200000     24.000000
 -0.300000  0.500000  0.200000     12.000000

 Following cartesian coordinates:
            Coordinates               Weight
  0.000000  0.000000  0.000000      1.000000
  0.029861 -0.010557  0.000000      8.000000
  0.059721 -0.021115  0.000000      8.000000
  0.089582 -0.031672  0.000000      8.000000
  0.119442 -0.042229  0.000000      8.000000
  0.149303 -0.052786  0.000000      4.000000
  0.029861  0.021115  0.000000      6.000000
  0.059721  0.010557  0.000000     24.000000
  0.089582  0.000000  0.000000     24.000000
  0.119442 -0.010557  0.000000     24.000000
  0.149303 -0.021115  0.000000     24.000000
 -0.119442  0.073901  0.000000     24.000000
 -0.089582  0.063344  0.000000     24.000000
 -0.059721  0.052787  0.000000     24.000000
 -0.029861  0.042229  0.000000     12.000000
  0.059721  0.042229  0.000000      6.000000
  0.089582  0.031672  0.000000     24.000000
  0.119442  0.021115  0.000000     24.000000
  0.149303  0.010557  0.000000     24.000000
 -0.119442  0.105573  0.000000     24.000000
 -0.089582  0.095016  0.000000     24.000000
 -0.059721  0.084458  0.000000     12.000000
  0.089582  0.063344  0.000000      6.000000
  0.119442  0.052787  0.000000     24.000000
  0.149303  0.042229  0.000000     24.000000
 -0.119442  0.137245  0.000000     24.000000
 -0.089582  0.126688  0.000000     12.000000
  0.119442  0.084458  0.000000      6.000000
  0.149303  0.073901  0.000000     24.000000
 -0.119442  0.168917  0.000000     12.000000
  0.149303  0.105573  0.000000      3.000000
  0.074651  0.021115  0.025860     24.000000
  0.104512  0.010557  0.025860     48.000000
  0.134373  0.000000  0.025860     48.000000
 -0.134373  0.095016  0.025860     24.000000
  0.104512  0.042229  0.025860     24.000000
  0.134373  0.031672  0.025860     48.000000
 -0.134373  0.126688  0.025860     48.000000
 -0.104512  0.116130  0.025860     48.000000
 -0.074651  0.105573  0.025860     24.000000
  0.134373  0.063344  0.025860     24.000000
 -0.134373  0.158360  0.025860     48.000000
 -0.104512  0.147802  0.025860     24.000000
 -0.134373  0.190031  0.025860     12.000000
 -0.149303  0.147802  0.051720     24.000000
 -0.119442  0.137245  0.051720     24.000000
 -0.119442  0.168917  0.051720     12.000000



--------------------------------------------------------------------------------------------------------




 Dimension of arrays:
   k-points           NKPTS =     47   k-points in BZ     NKDIM =     47   number of bands    NBANDS=     12
   number of dos      NEDOS =    301   number of ions     NIONS =      2
   non local maximal  LDIM  =      4   non local SUM 2l+1 LMDIM =      8
   total plane-waves  NPLWV =  46656
   max r-space proj   IRMAX =   6824   max aug-charges    IRDMAX=  38346
   dimension x,y,z NGX =    36 NGY =   36 NGZ =   36
   dimension x,y,z NGXF=    72 NGYF=   72 NGZF=   72
   support grid    NGXF=    72 NGYF=   72 NGZF=   72
   ions per type =               2
   NGX,Y,Z   is equivalent  to a cutoff of  15.48, 15.48, 15.48 a.u.
   NGXF,Y,Z  is equivalent  to a cutoff of  30.95, 30.95, 30.95 a.u.

 SYSTEM =  unknown system
 POSCAR =  Si2

 Startparameter for this run:
   NWRITE =      2    write-flag & timer
   PREC   = accura    normal or accurate (medium, high low for compatibility)
   ISTART =      0    job   : 0-new  1-cont  2-samecut
   ICHARG =      2    charge: 1-file 2-atom 10-const
   ISPIN  =      2    spin polarized calculation?
   LNONCOLLINEAR =      F non collinear calculations
   LSORBIT =      F    spin-orbit coupling
   INIWAV =      1    electr: 0-lowe 1-rand  2-diag
   LASPH  =      T    aspherical Exc in radial PAW
 Electronic Relaxation 1
   ENCUT  =  680.0 eV  49.98 Ry    7.07 a.u.   8.22  8.22  8.22*2*pi/ulx,y,z
   ENINI  =  680.0     initial cutoff
   ENAUG  = 1360.0 eV  augmentation charge cutoff
   NELM   =    200;   NELMIN=  2; NELMDL= -5     # of ELM steps
   EDIFF  = 0.1E-04   stopping-criterion for ELM
   LREAL  =      T    real-space projection
   NLSPLINE    = F    spline interpolate recip. space projectors
   LCOMPAT=      F    compatible to vasp.4.4
   GGA_COMPAT  = T    GGA compatible to vasp.4.4-vasp.4.6
   LMAXPAW     = -100 max onsite density
   LMAXMIX     =    2 max onsite mixed and CHGCAR
   VOSKOWN=      0    Vosko Wilk Nusair interpolation
   ROPT   =   -0.00025
 Ionic relaxation
   EDIFFG = -.2E-01   stopping-criterion for IOM
   NSW    =      1    number of steps for IOM
   NBLOCK =      1;   KBLOCK =      1    inner block; outer block
   IBRION =      2    ionic relax: 0-MD 1-quasi-New 2-CG
   NFREE  =      1    steps in history (QN), initial steepest desc. (CG)
   ISIF   =      3    stress and relaxation
   IWAVPR =     11    prediction:  0-non 1-charg 2-wave 3-comb
   ISYM   =      2    0-nonsym 1-usesym 2-fastsym
   LCORR  =      T    Harris-Foulkes like correction to forces

   POTIM  = 0.5000    time-step for ionic-motion
   TEIN   =    0.0    initial temperature
   TEBEG  =    0.0;   TEEND  =   0.0 temperature during run
   SMASS  =  -3.00    Nose mass-parameter (am)
   estimated Nose-frequenzy (Omega)   =  0.10E-29 period in steps = 0.13E+47 mass=  -0.342E-27a.u.
   SCALEE = 1.0000    scale energy and forces
   NPACO  =    256;   APACO  = 16.0  distance and # of slots for P.C.
   PSTRESS=    0.0 pullay stress

  Mass of Ions in am
   POMASS =  28.09
  Ionic Valenz
   ZVAL   =   4.00
  Atomic Wigner-Seitz radii
   RWIGS  =  -1.00
  virtual crystal weights
   VCA    =   1.00
   NELECT =       8.0000    total number of electrons
   NUPDOWN=      -1.0000    fix difference up-down

 DOS related values:
   EMIN   =  10.00;   EMAX   =-10.00  energy-range for DOS
   EFERMI =   0.00
   ISMEAR =    -5;   SIGMA  =   0.20  broadening in eV -4-tet -1-fermi 0-gaus

 Electronic relaxation 2 (details)
   IALGO  =     38    algorithm
   LDIAG  =      T    sub-space diagonalisation (order eigenvalues)
   LSUBROT=      F    optimize rotation matrix (better conditioning)
   TURBO    =      0    0=normal 1=particle mesh
   IRESTART =      0    0=no restart 2=restart with 2 vectors
   NREBOOT  =      0    no. of reboots
   NMIN     =      0    reboot dimension
   EREF     =   0.00    reference energy to select bands
   IMIX   =      4    mixing-type and parameters
     AMIX     =   0.40;   BMIX     =  1.00
     AMIX_MAG =   1.60;   BMIX_MAG =  1.00
     AMIN     =   0.10
     WC   =   100.;   INIMIX=   1;  MIXPRE=   1;  MAXMIX= -45

 Intra band minimization:
   WEIMIN = 0.0010     energy-eigenvalue tresh-hold
   EBREAK =  0.21E-06  absolut break condition
   DEPER  =   0.30     relativ break condition

   TIME   =   0.40     timestep for ELM

  volume/ion in A,a.u.               =      20.44       137.96
  Fermi-wavevector in a.u.,A,eV,Ry     =   0.950397  1.795990 12.289528  0.903255
  Thomas-Fermi vector in A             =   2.078770

 Write flags
   LWAVE        =      F    write WAVECAR
   LDOWNSAMPLE  =      F    k-point downsampling of WAVECAR
   LCHARG       =      T    write CHGCAR
   LVTOT        =      T    write LOCPOT, total local potential
   LVHAR        =      F    write LOCPOT, Hartree potential only
   LELF         =      T    write electronic localiz. function (ELF)
   LORBIT       =     11    0 simple, 1 ext, 2 COOP (PROOUT), +10 PAW based schemes


 Dipole corrections
   LMONO  =      F    monopole corrections only (constant potential shift)
   LDIPOL =      F    correct potential (dipole corrections)
   IDIPOL =      0    1-x, 2-y, 3-z, 4-all directions
   EPSILON=  1.0000000 bulk dielectric constant

 Exchange correlation treatment:
   GGA     =    --    GGA type
   LEXCH   =     8    internal setting for exchange type
   VOSKOWN=      0    Vosko Wilk Nusair interpolation
   LHFCALC =     F    Hartree Fock is set to
   LHFONE  =     F    Hartree Fock one center treatment
   AEXX    =    0.0000 exact exchange contribution

 Linear response parameters
   LEPSILON=     F    determine dielectric tensor
   LRPA    =     F    only Hartree local field effects (RPA)
   LNABLA  =     F    use nabla operator in PAW spheres
   LVEL    =     F    velocity operator in full k-point grid
   LINTERFAST=   F  fast interpolation
   KINTER  =     0    interpolate to denser k-point grid
   CSHIFT  =0.1000    complex shift for real part using Kramers Kronig
   OMEGAMAX=  -1.0    maximum frequency
   DEG_THRESHOLD= 0.2000000E-02 threshold for treating states as degnerate
   RTIME   =   -0.100 relaxation time in fs
  (WPLASMAI=    0.000 imaginary part of plasma frequency in eV, 0.658/RTIME)
   DFIELD  = 0.0000000 0.0000000 0.0000000 field for delta impulse in time

 Orbital magnetization related:
   ORBITALMAG=     F  switch on orbital magnetization
   LCHIMAG   =     F  perturbation theory with respect to B field
   DQ        =  0.001000  dq finite difference perturbation B field
   LLRAUG    =     F  two centre corrections for induced B field



--------------------------------------------------------------------------------------------------------


 conjugate gradient relaxation of ions
 charge density and potential will be updated during run
 spin polarized calculation
 Variant of blocked Davidson
 Davidson routine will perform the subspace rotation
 perform sub-space diagonalisation
    after iterative eigenvector-optimisation
 modified Broyden-mixing scheme, WC =      100.0
 initial mixing is a Kerker type mixing with AMIX =  0.4000 and BMIX =      1.0000
 Hartree-type preconditioning will be used
 using additional bands            8
 real space projection scheme for non local part
 use partial core corrections
 calculate Harris-corrections to forces
   (improved forces if not selfconsistent)
 use gradient corrections
 use of overlap-Matrix (Vanderbilt PP)
 Fermi weights with tetrahedron method with Bloechl corrections


--------------------------------------------------------------------------------------------------------


  energy-cutoff  :      680.00
  volume of cell :       40.89
      direct lattice vectors                 reciprocal lattice vectors
     3.348898000  0.000000000  1.933487000     0.298605691 -0.105573000  0.000000000
     1.116299000  3.157372000  1.933487000     0.000000000  0.316719094  0.000000000
     0.000000000  0.000000000  3.866975000    -0.149302807 -0.105573020  0.258600069

  length of vectors
     3.866974243  3.866974707  3.866975000     0.316719145  0.316719094  0.316719096



 k-points in units of 2pi/SCALE and weight: read from INCAR
   0.00000000  0.00000000  0.00000000       0.001
   0.02986057 -0.01055730  0.00000000       0.008
   0.05972114 -0.02111460  0.00000000       0.008
   0.08958171 -0.03167190  0.00000000       0.008
   0.11944228 -0.04222920  0.00000000       0.008
   0.14930285 -0.05278650  0.00000000       0.004
   0.02986057  0.02111461  0.00000000       0.006
   0.05972114  0.01055731  0.00000000       0.024
   0.08958171  0.00000001  0.00000000       0.024
   0.11944228 -0.01055729  0.00000000       0.024
   0.14930285 -0.02111459  0.00000000       0.024
  -0.11944228  0.07390111  0.00000000       0.024
  -0.08958171  0.06334381  0.00000000       0.024
  -0.05972114  0.05278651  0.00000000       0.024
  -0.02986057  0.04222921  0.00000000       0.012
   0.05972114  0.04222922  0.00000000       0.006
   0.08958171  0.03167192  0.00000000       0.024
   0.11944228  0.02111462  0.00000000       0.024
   0.14930285  0.01055732  0.00000000       0.024
  -0.11944228  0.10557302  0.00000000       0.024
  -0.08958171  0.09501572  0.00000000       0.024
  -0.05972114  0.08445842  0.00000000       0.012
   0.08958171  0.06334383  0.00000000       0.006
   0.11944228  0.05278653  0.00000000       0.024
   0.14930285  0.04222923  0.00000000       0.024
  -0.11944228  0.13724493  0.00000000       0.024
  -0.08958171  0.12668763  0.00000000       0.012
   0.11944228  0.08445844  0.00000000       0.006
   0.14930285  0.07390114  0.00000000       0.024
  -0.11944228  0.16891684  0.00000000       0.012
   0.14930285  0.10557305  0.00000000       0.003
   0.07465143  0.02111462  0.02586001       0.024
   0.10451200  0.01055732  0.02586001       0.048
   0.13437256  0.00000002  0.02586001       0.048
  -0.13437256  0.09501572  0.02586001       0.024
   0.10451200  0.04222923  0.02586001       0.024
   0.13437256  0.03167193  0.02586001       0.048
  -0.13437256  0.12668763  0.02586001       0.048
  -0.10451199  0.11613033  0.02586001       0.048
  -0.07465142  0.10557303  0.02586001       0.024
   0.13437256  0.06334384  0.02586001       0.024
  -0.13437256  0.15835954  0.02586001       0.048
  -0.10451199  0.14780224  0.02586001       0.024
  -0.13437256  0.19003145  0.02586001       0.012
  -0.14930284  0.14780223  0.05172001       0.024
  -0.11944227  0.13724493  0.05172001       0.024
  -0.11944227  0.16891684  0.05172001       0.012

 k-points in reciprocal lattice and weights: read from INCAR
   0.00000000  0.00000000  0.00000000       0.001
   0.10000000  0.00000000  0.00000000       0.008
   0.20000000  0.00000000  0.00000000       0.008
   0.30000000 -0.00000000  0.00000000       0.008
   0.40000000  0.00000000  0.00000000       0.008
   0.50000000  0.00000000  0.00000000       0.004
   0.10000000  0.10000000  0.00000000       0.006
   0.20000000  0.10000000  0.00000000       0.024
   0.30000000  0.10000000  0.00000000       0.024
   0.40000000  0.10000000  0.00000000       0.024
   0.50000000  0.10000000  0.00000000       0.024
  -0.40000000  0.10000000  0.00000000       0.024
  -0.30000000  0.10000000  0.00000000       0.024
  -0.20000000  0.10000000  0.00000000       0.024
  -0.10000000  0.10000000  0.00000000       0.012
   0.20000000  0.20000000  0.00000000       0.006
   0.30000000  0.20000000  0.00000000       0.024
   0.40000000  0.20000000  0.00000000       0.024
   0.50000000  0.20000000  0.00000000       0.024
  -0.40000000  0.20000000  0.00000000       0.024
  -0.30000000  0.20000000  0.00000000       0.024
  -0.20000000  0.20000000  0.00000000       0.012
   0.30000000  0.30000000  0.00000000       0.006
   0.40000000  0.30000000  0.00000000       0.024
   0.50000000  0.30000000  0.00000000       0.024
  -0.40000000  0.30000000  0.00000000       0.024
  -0.30000000  0.30000000  0.00000000       0.012
   0.40000000  0.40000000  0.00000000       0.006
   0.50000000  0.40000000  0.00000000       0.024
  -0.40000000  0.40000000  0.00000000       0.012
   0.50000000  0.50000000  0.00000000       0.003
   0.30000000  0.20000000  0.10000000       0.024
   0.40000000  0.20000000  0.10000000       0.048
   0.50000000  0.20000000  0.10000000       0.048
  -0.40000000  0.20000000  0.10000000       0.024
   0.40000000  0.30000000  0.10000000       0.024
   0.50000000  0.30000000  0.10000000       0.048
  -0.40000000  0.30000000  0.10000000       0.048
  -0.30000000  0.30000000  0.10000000       0.048
  -0.20000000  0.30000000  0.10000000       0.024
   0.50000000  0.40000000  0.10000000       0.024
  -0.40000000  0.40000000  0.10000000       0.048
  -0.30000000  0.40000000  0.10000000       0.024
  -0.40000000  0.50000000  0.10000000       0.012
  -0.40000000  0.40000000  0.20000000       0.024
  -0.30000000  0.40000000  0.20000000       0.024
  -0.30000000  0.50000000  0.20000000       0.012

 position of ions in fractional coordinates (direct lattice)
   0.25000000  0.25000000  0.25000000
   0.00000000  0.00000000  0.00000000

 position of ions in cartesian coordinates  (Angst):
   1.11629925  0.78934300  1.93348725
   0.00000000  0.00000000  0.00000000



--------------------------------------------------------------------------------------------------------


 k-point   1 :   0.0000 0.0000 0.0000  plane waves:    1639
 k-point   2 :   0.1000 0.0000 0.0000  plane waves:    1648
 k-point   3 :   0.2000 0.0000 0.0000  plane waves:    1654
 k-point   4 :   0.3000-0.0000 0.0000  plane waves:    1637
 k-point   5 :   0.4000 0.0000 0.0000  plane waves:    1646
 k-point   6 :   0.5000 0.0000 0.0000  plane waves:    1676
 k-point   7 :   0.1000 0.1000 0.0000  plane waves:    1643
 k-point   8 :   0.2000 0.1000 0.0000  plane waves:    1647
 k-point   9 :   0.3000 0.1000 0.0000  plane waves:    1636
 k-point  10 :   0.4000 0.1000 0.0000  plane waves:    1639
 k-point  11 :   0.5000 0.1000 0.0000  plane waves:    1653
 k-point  12 :  -0.4000 0.1000 0.0000  plane waves:    1648
 k-point  13 :  -0.3000 0.1000 0.0000  plane waves:    1644
 k-point  14 :  -0.2000 0.1000 0.0000  plane waves:    1645
 k-point  15 :  -0.1000 0.1000 0.0000  plane waves:    1649
 k-point  16 :   0.2000 0.2000 0.0000  plane waves:    1640
 k-point  17 :   0.3000 0.2000 0.0000  plane waves:    1647
 k-point  18 :   0.4000 0.2000 0.0000  plane waves:    1644
 k-point  19 :   0.5000 0.2000 0.0000  plane waves:    1645
 k-point  20 :  -0.4000 0.2000 0.0000  plane waves:    1645
 k-point  21 :  -0.3000 0.2000 0.0000  plane waves:    1645
 k-point  22 :  -0.2000 0.2000 0.0000  plane waves:    1652
 k-point  23 :   0.3000 0.3000 0.0000  plane waves:    1652
 k-point  24 :   0.4000 0.3000 0.0000  plane waves:    1649
 k-point  25 :   0.5000 0.3000 0.0000  plane waves:    1649
 k-point  26 :  -0.4000 0.3000 0.0000  plane waves:    1652
 k-point  27 :  -0.3000 0.3000 0.0000  plane waves:    1642
 k-point  28 :   0.4000 0.4000 0.0000  plane waves:    1652
 k-point  29 :   0.5000 0.4000 0.0000  plane waves:    1646
 k-point  30 :  -0.4000 0.4000 0.0000  plane waves:    1650
 k-point  31 :   0.5000 0.5000 0.0000  plane waves:    1660
 k-point  32 :   0.3000 0.2000 0.1000  plane waves:    1648
 k-point  33 :   0.4000 0.2000 0.1000  plane waves:    1646
 k-point  34 :   0.5000 0.2000 0.1000  plane waves:    1643
 k-point  35 :  -0.4000 0.2000 0.1000  plane waves:    1642
 k-point  36 :   0.4000 0.3000 0.1000  plane waves:    1651
 k-point  37 :   0.5000 0.3000 0.1000  plane waves:    1650
 k-point  38 :  -0.4000 0.3000 0.1000  plane waves:    1643
 k-point  39 :  -0.3000 0.3000 0.1000  plane waves:    1647
 k-point  40 :  -0.2000 0.3000 0.1000  plane waves:    1646
 k-point  41 :   0.5000 0.4000 0.1000  plane waves:    1658
 k-point  42 :  -0.4000 0.4000 0.1000  plane waves:    1647
 k-point  43 :  -0.3000 0.4000 0.1000  plane waves:    1649
 k-point  44 :  -0.4000 0.5000 0.1000  plane waves:    1644
 k-point  45 :  -0.4000 0.4000 0.2000  plane waves:    1649
 k-point  46 :  -0.3000 0.4000 0.2000  plane waves:    1642
 k-point  47 :  -0.3000 0.5000 0.2000  plane waves:    1640

 maximum and minimum number of plane-waves per node :      1676     1636

 maximum number of plane-waves:      1676
 maximum index in each direction:
   IXMAX=    8   IYMAX=    8   IZMAX=    8
   IXMIN=   -8   IYMIN=   -8   IZMIN=   -8


 serial   3D FFT for wavefunctions
 parallel 3D FFT for charge:
    minimum data exchange during FFTs selected (reduces bandwidth)


 total amount of memory used by VASP MPI-rank0    52852. kBytes
=======================================================================

   base      :      30000. kBytes
   nonlr-proj:       1161. kBytes
   fftplans  :       3408. kBytes
   grid      :      10637. kBytes
   one-center:         12. kBytes
   wavefun   :       7634. kBytes

     INWAV:  cpu time    0.0000: real time    0.0000
 Broyden mixing: mesh for mixing (old mesh)
   NGX = 17   NGY = 17   NGZ = 17
  (NGX  = 72   NGY  = 72   NGZ  = 72)
  gives a total of   4913 points

 initial charge density was supplied:
 charge density of overlapping atoms calculated
 number of electron       8.0000000 magnetization       1.2000000
 keeping initial charge density in first step


--------------------------------------------------------------------------------------------------------


 Maximum index for non-local projection operator         6603
 Maximum index for augmentation-charges         9303 (set IRDMAX)


--------------------------------------------------------------------------------------------------------


 First call to EWALD:  gamma=   0.514
 Maximum number of real-space cells 3x 3x 3
 Maximum number of reciprocal cells 3x 3x 3

    FEWALD:  cpu time    0.0011: real time    0.0019


--------------------------------------- Iteration      1(   1)  ---------------------------------------


    POTLOK:  cpu time    0.1152: real time    0.1227
    SETDIJ:  cpu time    0.1586: real time    0.1604
     EDDAV:  cpu time    3.2587: real time    3.3175
 BZINTS: Fermi energy:    9.609057;    8.000000 electrons
         Band energy: 0.208038E+02;  BLOECHL correction:   -0.099733
       DOS:  cpu time    0.0074: real time    0.0089
    --------------------------------------------
      LOOP:  cpu time    3.5400: real time    3.6095

 eigenvalue-minimisations  :  2256
 total energy-change (2. order) : 0.8547353E+01  (-0.3372818E+03)
 number of electron       8.0000000 magnetization       1.2000000
 augmentation part        8.0000000 magnetization       1.2000000

 Free energy of the ion-electron system (eV)
  ---------------------------------------------------
  alpha Z        PSCENC =         3.29317992
  Ewald energy   TEWEN  =      -226.94489173
  -Hartree energ DENC   =       -11.32339116
  -exchange      EXHF   =         0.00000000
  -V(xc)+E(xc)   XCENC  =       -18.60569953
  PAW double counting   =       176.18363791     -140.99252705
  entropy T*S    EENTRO =         0.00000000
  eigenvalues    EBANDS =        20.80382254
  atomic energy  EATOM  =       206.13322186
  Solvation  Ediel_sol  =         0.00000000
  ---------------------------------------------------
  free energy    TOTEN  =         8.54735275 eV

  energy without entropy =        8.54735275  energy(sigma->0) =        8.54735275


--------------------------------------------------------------------------------------------------------




--------------------------------------- Iteration      1(   2)  ---------------------------------------


     EDDAV:  cpu time    3.5271: real time    3.5632
 BZINTS: Fermi energy:    5.845931;    8.000000 electrons
         Band energy: 0.208467E+01;  BLOECHL correction:   -0.000990
       DOS:  cpu time    0.0059: real time    0.0059
    --------------------------------------------
      LOOP:  cpu time    3.5331: real time    3.5691

 eigenvalue-minimisations  :  2896
 total energy-change (2. order) :-0.1871915E+02  (-0.1808127E+02)
 number of electron       8.0000000 magnetization       1.2000000
 augmentation part        8.0000000 magnetization       1.2000000

 Free energy of the ion-electron system (eV)
  ---------------------------------------------------
  alpha Z        PSCENC =         3.29317992
  Ewald energy   TEWEN  =      -226.94489173
  -Hartree energ DENC   =       -11.32339116
  -exchange      EXHF   =         0.00000000
  -V(xc)+E(xc)   XCENC  =       -18.60569953
  PAW double counting   =       176.18363791     -140.99252705
  entropy T*S    EENTRO =         0.00000000
  eigenvalues    EBANDS =         2.08467304
  atomic energy  EATOM  =       206.13322186
  Solvation  Ediel_sol  =         0.00000000
  ---------------------------------------------------
  free energy    TOTEN  =       -10.17179675 eV

  energy without entropy =      -10.17179675  energy(sigma->0) =      -10.17179675


--------------------------------------------------------------------------------------------------------




--------------------------------------- Iteration      1(   3)  ---------------------------------------


     EDDAV:  cpu time    3.3463: real time    3.3740
 BZINTS: Fermi energy:    5.706239;    8.000000 electrons
         Band energy: 0.142904E+01;  BLOECHL correction:   -0.000000
       DOS:  cpu time    0.0033: real time    0.0033
    --------------------------------------------
      LOOP:  cpu time    3.3496: real time    3.3773

 eigenvalue-minimisations  :  2988
 total energy-change (2. order) :-0.6556340E+00  (-0.6538773E+00)
 number of electron       8.0000000 magnetization       1.2000000
 augmentation part        8.0000000 magnetization       1.2000000

 Free energy of the ion-electron system (eV)
  ---------------------------------------------------
  alpha Z        PSCENC =         3.29317992
  Ewald energy   TEWEN  =      -226.94489173
  -Hartree energ DENC   =       -11.32339116
  -exchange      EXHF   =         0.00000000
  -V(xc)+E(xc)   XCENC  =       -18.60569953
  PAW double counting   =       176.18363791     -140.99252705
  entropy T*S    EENTRO =         0.00000000
  eigenvalues    EBANDS =         1.42903902
  atomic energy  EATOM  =       206.13322186
  Solvation  Ediel_sol  =         0.00000000
  ---------------------------------------------------
  free energy    TOTEN  =       -10.82743076 eV

  energy without entropy =      -10.82743076  energy(sigma->0) =      -10.82743076


--------------------------------------------------------------------------------------------------------




--------------------------------------- Iteration      1(   4)  ---------------------------------------


     EDDAV:  cpu time    2.6602: real time    2.6645
 BZINTS: Fermi energy:    5.705219;    8.000000 electrons
         Band energy: 0.142399E+01;  BLOECHL correction:    0.000000
       DOS:  cpu time    0.0032: real time    0.0032
    --------------------------------------------
      LOOP:  cpu time    2.6634: real time    2.6677

 eigenvalue-minimisations  :  2652
 total energy-change (2. order) :-0.5044352E-02  (-0.5043689E-02)
 number of electron       8.0000000 magnetization       1.2000000
 augmentation part        8.0000000 magnetization       1.2000000

 Free energy of the ion-electron system (eV)
  ---------------------------------------------------
  alpha Z        PSCENC =         3.29317992
  Ewald energy   TEWEN  =      -226.94489173
  -Hartree energ DENC   =       -11.32339116
  -exchange      EXHF   =         0.00000000
  -V(xc)+E(xc)   XCENC  =       -18.60569953
  PAW double counting   =       176.18363791     -140.99252705
  entropy T*S    EENTRO =         0.00000000
  eigenvalues    EBANDS =         1.42399467
  atomic energy  EATOM  =       206.13322186
  Solvation  Ediel_sol  =         0.00000000
  ---------------------------------------------------
  free energy    TOTEN  =       -10.83247512 eV

  energy without entropy =      -10.83247512  energy(sigma->0) =      -10.83247512


--------------------------------------------------------------------------------------------------------




--------------------------------------- Iteration      1(   5)  ---------------------------------------


     EDDAV:  cpu time    3.0406: real time    3.0460
 BZINTS: Fermi energy:    5.705937;    8.000000 electrons
         Band energy: 0.142394E+01;  BLOECHL correction:   -0.000000
       DOS:  cpu time    0.0032: real time    0.0032
    CHARGE:  cpu time    0.0612: real time    0.0694
    MIXING:  cpu time    0.0032: real time    0.0043
    --------------------------------------------
      LOOP:  cpu time    3.1082: real time    3.1230

 eigenvalue-minimisations  :  2984
 total energy-change (2. order) :-0.5199809E-04  (-0.5199408E-04)
 number of electron       8.0000000 magnetization      -0.3329125
 augmentation part       -0.4701097 magnetization      -0.3295186

 Broyden mixing:
  rms(total) = 0.52233E+00    rms(broyden)= 0.52233E+00
  rms(prec ) = 0.95583E+00
  weight for this iteration     100.00

 Free energy of the ion-electron system (eV)
  ---------------------------------------------------
  alpha Z        PSCENC =         3.29317992
  Ewald energy   TEWEN  =      -226.94489173
  -Hartree energ DENC   =       -11.32339116
  -exchange      EXHF   =         0.00000000
  -V(xc)+E(xc)   XCENC  =       -18.60569953
  PAW double counting   =       176.18363791     -140.99252705
  entropy T*S    EENTRO =         0.00000000
  eigenvalues    EBANDS =         1.42394267
  atomic energy  EATOM  =       206.13322186
  Solvation  Ediel_sol  =         0.00000000
  ---------------------------------------------------
  free energy    TOTEN  =       -10.83252711 eV

  energy without entropy =      -10.83252711  energy(sigma->0) =      -10.83252711


--------------------------------------------------------------------------------------------------------




--------------------------------------- Iteration      1(   6)  ---------------------------------------


    POTLOK:  cpu time    0.0897: real time    0.0897
    SETDIJ:  cpu time    0.1447: real time    0.1449
     EDDAV:  cpu time    2.6656: real time    2.6696
 BZINTS: Fermi energy:    5.973687;    8.000000 electrons
         Band energy: 0.278096E+01;  BLOECHL correction:   -0.000000
       DOS:  cpu time    0.0032: real time    0.0032
    CHARGE:  cpu time    0.0569: real time    0.0569
    MIXING:  cpu time    0.0032: real time    0.0050
    --------------------------------------------
      LOOP:  cpu time    2.9632: real time    2.9693

 eigenvalue-minimisations  :  2568
 total energy-change (2. order) :-0.5820115E-01  (-0.8050859E-02)
 number of electron       8.0000000 magnetization       0.4267496
 augmentation part       -0.4641252 magnetization       0.4263560

 Broyden mixing:
  rms(total) = 0.30489E+00    rms(broyden)= 0.30489E+00
  rms(prec ) = 0.56206E+00
  weight for this iteration     100.00

 eigenvalues of (default mixing * dielectric matrix)
  average eigenvalue GAMMA=   0.8943
  0.8943

 Free energy of the ion-electron system (eV)
  ---------------------------------------------------
  alpha Z        PSCENC =         3.29317992
  Ewald energy   TEWEN  =      -226.94489173
  -Hartree energ DENC   =       -12.79011733
  -exchange      EXHF   =         0.00000000
  -V(xc)+E(xc)   XCENC  =       -18.44862882
  PAW double counting   =       369.81005677     -334.72450420
  entropy T*S    EENTRO =         0.00000000
  eigenvalues    EBANDS =         2.78095527
  atomic energy  EATOM  =       206.13322186
  Solvation  Ediel_sol  =         0.00000000
  ---------------------------------------------------
  free energy    TOTEN  =       -10.89072827 eV

  energy without entropy =      -10.89072827  energy(sigma->0) =      -10.89072827


--------------------------------------------------------------------------------------------------------




--------------------------------------- Iteration      1(   7)  ---------------------------------------


    POTLOK:  cpu time    0.0886: real time    0.0888
    SETDIJ:  cpu time    0.1412: real time    0.1414
     EDDAV:  cpu time    2.5538: real time    2.5572
 BZINTS: Fermi energy:    6.049558;    8.000000 electrons
         Band energy: 0.435542E+01;  BLOECHL correction:    0.000000
       DOS:  cpu time    0.0033: real time    0.0033
    CHARGE:  cpu time    0.0566: real time    0.0567
    MIXING:  cpu time    0.0029: real time    0.0029
    --------------------------------------------
      LOOP:  cpu time    2.8465: real time    2.8504

 eigenvalue-minimisations  :  2560
 total energy-change (2. order) : 0.5730229E-01  (-0.7745291E-02)
 number of electron       8.0000000 magnetization       0.0966464
 augmentation part       -0.4593124 magnetization       0.0973292

 Broyden mixing:
  rms(total) = 0.19427E+00    rms(broyden)= 0.19427E+00
  rms(prec ) = 0.23376E+00
  weight for this iteration     100.00

 eigenvalues of (default mixing * dielectric matrix)
  average eigenvalue GAMMA=   1.2022
  1.7514  0.6529

 Free energy of the ion-electron system (eV)
  ---------------------------------------------------
  alpha Z        PSCENC =         3.29317992
  Ewald energy   TEWEN  =      -226.94489173
  -Hartree energ DENC   =       -14.49834993
  -exchange      EXHF   =         0.00000000
  -V(xc)+E(xc)   XCENC  =       -18.16711147
  PAW double counting   =       684.48446359     -649.48935426
  entropy T*S    EENTRO =         0.00000000
  eigenvalues    EBANDS =         4.35541606
  atomic energy  EATOM  =       206.13322186
  Solvation  Ediel_sol  =         0.00000000
  ---------------------------------------------------
  free energy    TOTEN  =       -10.83342597 eV

  energy without entropy =      -10.83342597  energy(sigma->0) =      -10.83342597


--------------------------------------------------------------------------------------------------------




--------------------------------------- Iteration      1(   8)  ---------------------------------------


    POTLOK:  cpu time    0.0901: real time    0.0903
    SETDIJ:  cpu time    0.1401: real time    0.1402
     EDDAV:  cpu time    2.4941: real time    2.4962
 BZINTS: Fermi energy:    6.181967;    8.000000 electrons
         Band energy: 0.489198E+01;  BLOECHL correction:    0.000000
       DOS:  cpu time    0.0033: real time    0.0033
    CHARGE:  cpu time    0.0567: real time    0.0568
    MIXING:  cpu time    0.0027: real time    0.0027
    --------------------------------------------
      LOOP:  cpu time    2.7870: real time    2.7895

 eigenvalue-minimisations  :  2540
 total energy-change (2. order) :-0.1470564E-01  (-0.1303822E-02)
 number of electron       8.0000000 magnetization      -0.0056482
 augmentation part       -0.4577704 magnetization      -0.0055414

 Broyden mixing:
  rms(total) = 0.45463E-01    rms(broyden)= 0.45463E-01
  rms(prec ) = 0.54178E-01
  weight for this iteration     100.00

 eigenvalues of (default mixing * dielectric matrix)
  average eigenvalue GAMMA=   1.3004
  2.5050  0.7828  0.6133

 Free energy of the ion-electron system (eV)
  ---------------------------------------------------
  alpha Z        PSCENC =         3.29317992
  Ewald energy   TEWEN  =      -226.94489173
  -Hartree energ DENC   =       -15.10544181
  -exchange      EXHF   =         0.00000000
  -V(xc)+E(xc)   XCENC  =       -18.07980500
  PAW double counting   =       817.25358677     -782.28996497
  entropy T*S    EENTRO =         0.00000000
  eigenvalues    EBANDS =         4.89198336
  atomic energy  EATOM  =       206.13322186
  Solvation  Ediel_sol  =         0.00000000
  ---------------------------------------------------
  free energy    TOTEN  =       -10.84813161 eV

  energy without entropy =      -10.84813161  energy(sigma->0) =      -10.84813161


--------------------------------------------------------------------------------------------------------




--------------------------------------- Iteration      1(   9)  ---------------------------------------


    POTLOK:  cpu time    0.1049: real time    0.1051
    SETDIJ:  cpu time    0.1576: real time    0.1577
     EDDAV:  cpu time    2.7557: real time    2.7600
 BZINTS: Fermi energy:    6.221035;    8.000000 electrons
         Band energy: 0.492731E+01;  BLOECHL correction:    0.000000
       DOS:  cpu time    0.0033: real time    0.0033
    CHARGE:  cpu time    0.0568: real time    0.0568
    MIXING:  cpu time    0.0027: real time    0.0027
    --------------------------------------------
      LOOP:  cpu time    3.0809: real time    3.0854

 eigenvalue-minimisations  :  2756
 total energy-change (2. order) :-0.1712366E-02  (-0.8876133E-04)
 number of electron       8.0000000 magnetization      -0.0012576
 augmentation part       -0.4578931 magnetization      -0.0012052

 Broyden mixing:
  rms(total) = 0.99617E-02    rms(broyden)= 0.99617E-02
  rms(prec ) = 0.21906E-01
  weight for this iteration     100.00

 eigenvalues of (default mixing * dielectric matrix)
  average eigenvalue GAMMA=   1.3108
  2.4531  1.3985  0.7761  0.6154

 Free energy of the ion-electron system (eV)
  ---------------------------------------------------
  alpha Z        PSCENC =         3.29317992
  Ewald energy   TEWEN  =      -226.94489173
  -Hartree energ DENC   =       -15.15743007
  -exchange      EXHF   =         0.00000000
  -V(xc)+E(xc)   XCENC  =       -18.06876555
  PAW double counting   =       833.30155454     -798.33402544
  entropy T*S    EENTRO =         0.00000000
  eigenvalues    EBANDS =         4.92731250
  atomic energy  EATOM  =       206.13322186
  Solvation  Ediel_sol  =         0.00000000
  ---------------------------------------------------
  free energy    TOTEN  =       -10.84984398 eV

  energy without entropy =      -10.84984398  energy(sigma->0) =      -10.84984398


--------------------------------------------------------------------------------------------------------




--------------------------------------- Iteration      1(  10)  ---------------------------------------


    POTLOK:  cpu time    0.1011: real time    0.1014
    SETDIJ:  cpu time    0.1480: real time    0.1484
     EDDAV:  cpu time    2.7677: real time    2.7762
 BZINTS: Fermi energy:    6.227365;    8.000000 electrons
         Band energy: 0.489934E+01;  BLOECHL correction:   -0.000000
       DOS:  cpu time    0.0037: real time    0.0037
    CHARGE:  cpu time    0.0644: real time    0.0646
    MIXING:  cpu time    0.0031: real time    0.0031
    --------------------------------------------
      LOOP:  cpu time    3.0879: real time    3.0973

 eigenvalue-minimisations  :  2588
 total energy-change (2. order) :-0.4478525E-03  (-0.7826992E-04)
 number of electron       8.0000000 magnetization       0.0014543
 augmentation part       -0.4583013 magnetization       0.0014248

 Broyden mixing:
  rms(total) = 0.41774E-02    rms(broyden)= 0.41774E-02
  rms(prec ) = 0.63772E-02
  weight for this iteration     100.00

 eigenvalues of (default mixing * dielectric matrix)
  average eigenvalue GAMMA=   1.3676
  2.3186  2.3186  0.8206  0.7619  0.6185

 Free energy of the ion-electron system (eV)
  ---------------------------------------------------
  alpha Z        PSCENC =         3.29317992
  Ewald energy   TEWEN  =      -226.94489173
  -Hartree energ DENC   =       -15.14720260
  -exchange      EXHF   =         0.00000000
  -V(xc)+E(xc)   XCENC  =       -18.06477014
  PAW double counting   =       835.64540285     -800.66457435
  entropy T*S    EENTRO =         0.00000000
  eigenvalues    EBANDS =         4.89934236
  atomic energy  EATOM  =       206.13322186
  Solvation  Ediel_sol  =         0.00000000
  ---------------------------------------------------
  free energy    TOTEN  =       -10.85029183 eV

  energy without entropy =      -10.85029183  energy(sigma->0) =      -10.85029183


--------------------------------------------------------------------------------------------------------




--------------------------------------- Iteration      1(  11)  ---------------------------------------


    POTLOK:  cpu time    0.0884: real time    0.0885
    SETDIJ:  cpu time    0.1405: real time    0.1412
     EDDAV:  cpu time    2.6756: real time    2.6789
 BZINTS: Fermi energy:    6.231422;    8.000000 electrons
         Band energy: 0.490977E+01;  BLOECHL correction:   -0.000000
       DOS:  cpu time    0.0031: real time    0.0031
    CHARGE:  cpu time    0.0698: real time    0.0699
    MIXING:  cpu time    0.0030: real time    0.0030
    --------------------------------------------
      LOOP:  cpu time    2.9804: real time    2.9847

 eigenvalue-minimisations  :  2740
 total energy-change (2. order) :-0.5941181E-04  (-0.1244728E-04)
 number of electron       8.0000000 magnetization       0.0003354
 augmentation part       -0.4583293 magnetization       0.0003397

 Broyden mixing:
  rms(total) = 0.30968E-02    rms(broyden)= 0.30968E-02
  rms(prec ) = 0.39350E-02
  weight for this iteration     100.00

 eigenvalues of (default mixing * dielectric matrix)
  average eigenvalue GAMMA=   1.3915
  2.3958  2.3958  1.4748  0.7750  0.6821  0.6257

 Free energy of the ion-electron system (eV)
  ---------------------------------------------------
  alpha Z        PSCENC =         3.29317992
  Ewald energy   TEWEN  =      -226.94489173
  -Hartree energ DENC   =       -15.16035546
  -exchange      EXHF   =         0.00000000
  -V(xc)+E(xc)   XCENC  =       -18.06267004
  PAW double counting   =       833.58795970     -798.60656330
  entropy T*S    EENTRO =         0.00000000
  eigenvalues    EBANDS =         4.90976781
  atomic energy  EATOM  =       206.13322186
  Solvation  Ediel_sol  =         0.00000000
  ---------------------------------------------------
  free energy    TOTEN  =       -10.85035124 eV

  energy without entropy =      -10.85035124  energy(sigma->0) =      -10.85035124


--------------------------------------------------------------------------------------------------------




--------------------------------------- Iteration      1(  12)  ---------------------------------------


    POTLOK:  cpu time    0.0897: real time    0.0899
    SETDIJ:  cpu time    0.1506: real time    0.1508
     EDDAV:  cpu time    2.4601: real time    2.4648
 BZINTS: Fermi energy:    6.232167;    8.000000 electrons
         Band energy: 0.491858E+01;  BLOECHL correction:    0.000000
       DOS:  cpu time    0.0032: real time    0.0032
    CHARGE:  cpu time    0.0567: real time    0.0567
    MIXING:  cpu time    0.0029: real time    0.0029
    --------------------------------------------
      LOOP:  cpu time    2.7632: real time    2.7683

 eigenvalue-minimisations  :  2360
 total energy-change (2. order) :-0.1569354E-04  (-0.1123781E-05)
 number of electron       8.0000000 magnetization      -0.0002494
 augmentation part       -0.4583072 magnetization      -0.0002350

 Broyden mixing:
  rms(total) = 0.11790E-02    rms(broyden)= 0.11790E-02
  rms(prec ) = 0.15269E-02
  weight for this iteration     100.00

 eigenvalues of (default mixing * dielectric matrix)
  average eigenvalue GAMMA=   1.3735
  2.5666  2.5666  1.6581  0.7876  0.7499  0.6316  0.6538

 Free energy of the ion-electron system (eV)
  ---------------------------------------------------
  alpha Z        PSCENC =         3.29317992
  Ewald energy   TEWEN  =      -226.94489173
  -Hartree energ DENC   =       -15.16989480
  -exchange      EXHF   =         0.00000000
  -V(xc)+E(xc)   XCENC  =       -18.06167695
  PAW double counting   =       830.15432806     -795.17321351
  entropy T*S    EENTRO =         0.00000000
  eigenvalues    EBANDS =         4.91858022
  atomic energy  EATOM  =       206.13322186
  Solvation  Ediel_sol  =         0.00000000
  ---------------------------------------------------
  free energy    TOTEN  =       -10.85036694 eV

  energy without entropy =      -10.85036694  energy(sigma->0) =      -10.85036694


--------------------------------------------------------------------------------------------------------




--------------------------------------- Iteration      1(  13)  ---------------------------------------


    POTLOK:  cpu time    0.0884: real time    0.0885
    SETDIJ:  cpu time    0.1513: real time    0.1514
     EDDAV:  cpu time    2.1340: real time    2.1392
 BZINTS: Fermi energy:    6.233530;    8.000000 electrons
         Band energy: 0.492109E+01;  BLOECHL correction:   -0.000000
       DOS:  cpu time    0.0032: real time    0.0032
    --------------------------------------------
      LOOP:  cpu time    2.3768: real time    2.3822

 eigenvalue-minimisations  :  1944
 total energy-change (2. order) :-0.4167100E-05  (-0.5902731E-06)
 number of electron       8.0000000 magnetization      -0.0002494
 augmentation part       -0.4583072 magnetization      -0.0002350

 Free energy of the ion-electron system (eV)
  ---------------------------------------------------
  alpha Z        PSCENC =         3.29317992
  Ewald energy   TEWEN  =      -226.94489173
  -Hartree energ DENC   =       -15.17278170
  -exchange      EXHF   =         0.00000000
  -V(xc)+E(xc)   XCENC  =       -18.06142378
  PAW double counting   =       828.40252779     -793.42129685
  entropy T*S    EENTRO =         0.00000000
  eigenvalues    EBANDS =         4.92109340
  atomic energy  EATOM  =       206.13322186
  Solvation  Ediel_sol  =         0.00000000
  ---------------------------------------------------
  free energy    TOTEN  =       -10.85037110 eV

  energy without entropy =      -10.85037110  energy(sigma->0) =      -10.85037110


--------------------------------------------------------------------------------------------------------




 average (electrostatic) potential at core
  the test charge radii are     0.9892
  (the norm of the test charge is              1.0000)
       1 -83.4835       2 -83.4835



 E-fermi :   6.2335     XC(G=0):  -9.3274     alpha+bet :-11.7317

 Fermi energy:         6.2335298084

 spin component 1

 k-point     1 :       0.0000    0.0000    0.0000
  band No.  band energies     occupation
      1      -6.1987      1.00000
      2       5.6163      1.00000
      3       5.6163      1.00000
      4       5.6163      1.00000
      5       8.1731      0.00000
      6       8.1731      0.00000
      7       8.1731      0.00000
      8       8.7493      0.00000
      9      13.3254      0.00000
     10      13.3254      0.00000
     11      13.4919      0.00000
     12      16.7981      0.00000

 k-point     2 :       0.1000    0.0000    0.0000
  band No.  band energies     occupation
      1      -6.0701      1.00000
      2       4.4741      1.00000
      3       5.4225      1.00000
      4       5.4225      1.00000
      5       8.1388      0.00000
      6       8.4589      0.00000
      7       8.4589      0.00000
      8       9.7197      0.00000
      9      12.9756      0.00000
     10      12.9756      0.00000
     11      14.0217      0.00000
     12      16.3788      0.00000

 k-point     3 :       0.2000    0.0000    0.0000
  band No.  band energies     occupation
      1      -5.6907      1.00000
      2       2.6342      1.00000
      3       5.0488      1.00000
      4       5.0488      1.00000
      5       7.7683      0.00000
      6       8.9607      0.00000
      7       8.9607      0.00000
      8      11.4943      0.00000
      9      12.6648      0.00000
     10      12.6648      0.00000
     11      14.6909      0.00000
     12      16.4728      0.00000

 k-point     4 :       0.3000   -0.0000    0.0000
  band No.  band energies     occupation
      1      -5.0874      1.00000
      2       0.8761      1.00000
      3       4.7187      1.00000
      4       4.7187      1.00000
      5       7.4046      0.00000
      6       9.1413      0.00000
      7       9.1413      0.00000
      8      13.1161      0.00000
      9      13.1905      0.00000
     10      13.1905      0.00000
     11      14.4377      0.00000
     12      18.3847      0.00000

 k-point     5 :       0.4000    0.0000    0.0000
  band No.  band energies     occupation
      1      -4.3576      1.00000
      2      -0.5721      1.00000
      3       4.5088      1.00000
      4       4.5088      1.00000
      5       7.1646      0.00000
      6       9.0368      0.00000
      7       9.0368      0.00000
      8      13.4202      0.00000
      9      14.5528      0.00000
     10      14.5528      0.00000
     11      15.5284      0.00000
     12      18.6871      0.00000

 k-point     6 :       0.5000    0.0000    0.0000
  band No.  band energies     occupation
      1      -3.9200      1.00000
      2      -1.2526      1.00000
      3       4.4379      1.00000
      4       4.4379      1.00000
      5       7.0823      0.00000
      6       8.9657      0.00000
      7       8.9657      0.00000
      8      13.3172      0.00000
      9      16.1114      0.00000
     10      16.1114      0.00000
     11      16.7970      0.00000
     12      16.8360      0.00000

 k-point     7 :       0.1000    0.1000    0.0000
  band No.  band energies     occupation
      1      -6.0270      1.00000
      2       4.6605      1.00000
      3       5.0548      1.00000
      4       5.0548      1.00000
      5       7.8013      0.00000
      6       8.9455      0.00000
      7       8.9455      0.00000
      8       9.6041      0.00000
      9      12.3528      0.00000
     10      13.5163      0.00000
     11      14.2037      0.00000
     12      17.0976      0.00000

 k-point     8 :       0.2000    0.1000    0.0000
  band No.  band energies     occupation
      1      -5.7299      1.00000
      2       3.1746      1.00000
      3       4.6283      1.00000
      4       4.7862      1.00000
      5       7.8554      0.00000
      6       8.9544      0.00000
      7       9.5892      0.00000
      8      10.5287      0.00000
      9      12.3086      0.00000
     10      13.5061      0.00000
     11      15.0994      0.00000
     12      16.7084      0.00000

 k-point     9 :       0.3000    0.1000    0.0000
  band No.  band energies     occupation
      1      -5.1967      1.00000
      2       1.4439      1.00000
      3       4.3141      1.00000
      4       4.3584      1.00000
      5       7.9633      0.00000
      6       8.9578      0.00000
      7       9.8761      0.00000
      8      10.9178      0.00000
      9      13.7386      0.00000
     10      13.8855      0.00000
     11      15.1061      0.00000
     12      17.8387      0.00000

 k-point    10 :       0.4000    0.1000    0.0000
  band No.  band energies     occupation
      1      -4.4882      1.00000
      2      -0.1002      1.00000
      3       3.9532      1.00000
      4       4.1676      1.00000
      5       7.8063      0.00000
      6       8.9459      0.00000
      7       9.7124      0.00000
      8      11.9626      0.00000
      9      14.5220      0.00000
     10      15.0963      0.00000
     11      15.6923      0.00000
     12      18.4260      0.00000

 k-point    11 :       0.5000    0.1000    0.0000
  band No.  band energies     occupation
      1      -3.8652      1.00000
      2      -1.1132      1.00000
      3       3.6687      1.00000
      4       4.1983      1.00000
      5       7.7129      0.00000
      6       8.9266      0.00000
      7       9.4556      0.00000
      8      13.3556      0.00000
      9      14.4704      0.00000
     10      16.0492      0.00000
     11      16.9313      0.00000
     12      17.0550      0.00000

 k-point    12 :      -0.4000    0.1000    0.0000
  band No.  band energies     occupation
      1      -4.0272      1.00000
      2      -0.8710      1.00000
      3       3.5448      1.00000
      4       4.3931      1.00000
      5       7.7677      0.00000
      6       9.0608      0.00000
      7       9.3027      0.00000
      8      13.6069      0.00000
      9      14.1729      0.00000
     10      14.8307      0.00000
     11      16.6514      0.00000
     12      17.6703      0.00000

 k-point    13 :      -0.3000    0.1000    0.0000
  band No.  band energies     occupation
      1      -4.7379      1.00000
      2       0.3841      1.00000
      3       3.6070      1.00000
      4       4.7210      1.00000
      5       7.9671      0.00000
      6       9.2256      0.00000
      7       9.3043      0.00000
      8      12.5465      0.00000
      9      12.6690      0.00000
     10      14.9044      0.00000
     11      15.8054      0.00000
     12      18.2423      0.00000

 k-point    14 :      -0.2000    0.1000    0.0000
  band No.  band energies     occupation
      1      -5.4001      1.00000
      2       2.0036      1.00000
      3       3.8823      1.00000
      4       5.1195      1.00000
      5       8.2746      0.00000
      6       8.9728      0.00000
      7       9.2997      0.00000
      8      11.4862      0.00000
      9      11.9760      0.00000
     10      14.1461      0.00000
     11      15.3096      0.00000
     12      17.1335      0.00000

 k-point    15 :      -0.1000    0.1000    0.0000
  band No.  band energies     occupation
      1      -5.8574      1.00000
      2       3.5893      1.00000
      3       4.4852      1.00000
      4       5.4409      1.00000
      5       8.5270      0.00000
      6       8.5276      0.00000
      7       8.7056      0.00000
      8      10.6654      0.00000
      9      12.2327      0.00000
     10      13.2309      0.00000
     11      14.7600      0.00000
     12      16.6431      0.00000

 k-point    16 :       0.2000    0.2000    0.0000
  band No.  band energies     occupation
      1      -5.5157      1.00000
      2       2.9814      1.00000
      3       4.1620      1.00000
      4       4.1620      1.00000
      5       7.0922      0.00000
      6       9.4689      0.00000
      7      10.4574      0.00000
      8      10.4574      0.00000
      9      12.5547      0.00000
     10      14.0884      0.00000
     11      15.8993      0.00000
     12      17.9631      0.00000

 k-point    17 :       0.3000    0.2000    0.0000
  band No.  band energies     occupation
      1      -5.0585      1.00000
      2       1.7591      1.00000
      3       3.6595      1.00000
      4       3.8197      1.00000
      5       7.1880      0.00000
      6       9.0606      0.00000
      7      10.7073      0.00000
      8      11.0456      0.00000
      9      14.0205      0.00000
     10      14.5493      0.00000
     11      16.6054      0.00000
     12      18.0847      0.00000

 k-point    18 :       0.4000    0.2000    0.0000
  band No.  band energies     occupation
      1      -4.3967      1.00000
      2       0.3526      1.00000
      3       3.0394      1.00000
      4       3.6619      1.00000
      5       7.4028      0.00000
      6       9.6855      0.00000
      7      10.4765      0.00000
      8      11.0122      0.00000
      9      15.6677      0.00000
     10      15.9046      0.00000
     11      16.2409      0.00000
     12      18.2947      0.00000

 k-point    19 :       0.5000    0.2000    0.0000
  band No.  band energies     occupation
      1      -3.6836      1.00000
      2      -0.8037      1.00000
      3       2.5380      1.00000
      4       3.7038      1.00000
      5       7.4664      0.00000
      6      10.2575      0.00000
      7      10.6949      0.00000
      8      11.2114      0.00000
      9      15.3048      0.00000
     10      16.0307      0.00000
     11      17.4775      0.00000
     12      17.5767      0.00000

 k-point    20 :      -0.4000    0.2000    0.0000
  band No.  band energies     occupation
      1      -3.5358      1.00000
      2      -1.0057      1.00000
      3       2.2468      1.00000
      4       3.9365      1.00000
      5       7.6742      0.00000
      6      10.1626      0.00000
      7      10.3967      0.00000
      8      13.1105      0.00000
      9      13.8855      0.00000
     10      14.0102      0.00000
     11      17.1311      0.00000
     12      19.5362      0.00000

 k-point    21 :      -0.3000    0.2000    0.0000
  band No.  band energies     occupation
      1      -4.1724      1.00000
      2      -0.0438      1.00000
      3       2.2321      1.00000
      4       4.3252      1.00000
      5       8.0563      0.00000
      6      10.1207      0.00000
      7      10.1775      0.00000
      8      12.2334      0.00000
      9      12.4285      0.00000
     10      15.0683      0.00000
     11      17.4369      0.00000
     12      18.4616      0.00000

 k-point    22 :      -0.2000    0.2000    0.0000
  band No.  band energies     occupation
      1      -4.8751      1.00000
      2       1.1696      1.00000
      3       2.6828      1.00000
      4       4.7853      1.00000
      5       8.4669      0.00000
      6       9.5818      0.00000
      7       9.8854      0.00000
      8      11.2726      0.00000
      9      11.7476      0.00000
     10      16.2180      0.00000
     11      16.2399      0.00000
     12      17.4448      0.00000

 k-point    23 :       0.3000    0.3000    0.0000
  band No.  band energies     occupation
      1      -4.6773      1.00000
      2       1.2120      1.00000
      3       3.4341      1.00000
      4       3.4341      1.00000
      5       6.5052      0.00000
      6       8.0520      0.00000
      7      12.1875      0.00000
      8      12.1875      0.00000
      9      14.5234      0.00000
     10      15.0395      0.00000
     11      17.9333      0.00000
     12      18.9817      0.00000

 k-point    24 :       0.4000    0.3000    0.0000
  band No.  band energies     occupation
      1      -4.0761      1.00000
      2       0.2234      1.00000
      3       2.8227      1.00000
      4       3.2325      1.00000
      5       6.6926     -0.00000
      6       7.8814      0.00000
      7      12.4713      0.00000
      8      12.6120      0.00000
      9      16.0254      0.00000
     10      16.1572      0.00000
     11      17.6368      0.00000
     12      18.3022      0.00000

 k-point    25 :       0.5000    0.3000    0.0000
  band No.  band energies     occupation
      1      -3.3422      1.00000
      2      -0.7623      1.00000
      3       2.0129      1.00000
      4       3.2384      1.00000
      5       6.8739      0.00000
      6       8.9921      0.00000
      7      12.2856      0.00000
      8      12.3739      0.00000
      9      15.9668      0.00000
     10      16.1605      0.00000
     11      17.7915      0.00000
     12      18.2673      0.00000

 k-point    26 :      -0.4000    0.3000    0.0000
  band No.  band energies     occupation
      1      -2.9362      1.00000
      2      -1.2242      1.00000
      3       1.4722      1.00000
      4       3.4492      1.00000
      5       7.1019      0.00000
      6      10.7768      0.00000
      7      11.9785      0.00000
      8      12.1253      0.00000
      9      14.0201      0.00000
     10      14.0956      0.00000
     11      19.2228      0.00000
     12      19.9096      0.00000

 k-point    27 :      -0.3000    0.3000    0.0000
  band No.  band energies     occupation
      1      -3.4618      1.00000
      2      -0.6465      1.00000
      3       1.4478      1.00000
      4       3.8372      1.00000
      5       7.5343      0.00000
      6      11.3103      0.00000
      7      11.6208      0.00000
      8      12.3428      0.00000
      9      12.7048      0.00000
     10      13.0796      0.00000
     11      19.1359      0.00000
     12      19.7199      0.00000

 k-point    28 :       0.4000    0.4000    0.0000
  band No.  band energies     occupation
      1      -3.5356      1.00000
      2      -0.5211      1.00000
      3       2.9771      1.00000
      4       2.9771      1.00000
      5       6.2335      0.00000
      6       6.9651      0.00000
      7      14.0167      0.00000
      8      14.0167      0.00000
      9      16.3655      0.00000
     10      16.6067      0.00000
     11      18.0785      0.00000
     12      18.0785      0.00000

 k-point    29 :       0.5000    0.4000    0.0000
  band No.  band energies     occupation
      1      -2.8210      1.00000
      2      -1.3472      1.00000
      3       2.4081      1.00000
      4       2.9292      1.00000
      5       6.4693     -0.00000
      6       7.2146      0.00000
      7      14.2661      0.00000
      8      14.3428      0.00000
      9      16.3066      0.00000
     10      16.3972      0.00000
     11      17.8194      0.00000
     12      18.2360      0.00000

 k-point    30 :      -0.4000    0.4000    0.0000
  band No.  band energies     occupation
      1      -2.3603      1.00000
      2      -1.7571      1.00000
      3       1.6470      1.00000
      4       3.0930      1.00000
      5       6.6794      0.00000
      6       8.7646      0.00000
      7      13.6131      0.00000
      8      14.1878      0.00000
      9      14.1889      0.00000
     10      14.6435      0.00000
     11      19.7104      0.00000
     12      19.8660      0.00000

 k-point    31 :       0.5000    0.5000    0.0000
  band No.  band energies     occupation
      1      -2.1302      1.00000
      2      -2.1302      1.00000
      3       2.8222      1.00000
      4       2.8222      1.00000
      5       6.3672      0.00000
      6       6.3672      0.00000
      7      15.5528      0.00000
      8      15.5528      0.00000
      9      16.5232      0.00000
     10      16.5232      0.00000
     11      18.0594      0.00000
     12      18.0595      0.00000

 k-point    32 :       0.3000    0.2000    0.1000
  band No.  band energies     occupation
      1      -5.3536      1.00000
      2       2.2545      1.00000
      3       3.5834      1.00000
      4       4.6610      1.00000
      5       7.9610      0.00000
      6       9.2651      0.00000
      7      10.2141      0.00000
      8      10.2351      0.00000
      9      12.7729      0.00000
     10      14.3539      0.00000
     11      16.0252      0.00000
     12      17.1806      0.00000

 k-point    33 :       0.4000    0.2000    0.1000
  band No.  band energies     occupation
      1      -4.7540      1.00000
      2       0.8721      1.00000
      3       2.9997      1.00000
      4       4.2953      1.00000
      5       8.3009      0.00000
      6       9.1829      0.00000
      7      10.3076      0.00000
      8      10.7005      0.00000
      9      13.4293      0.00000
     10      15.9414      0.00000
     11      16.1601      0.00000
     12      17.9568      0.00000

 k-point    34 :       0.5000    0.2000    0.1000
  band No.  band energies     occupation
      1      -4.0241      1.00000
      2      -0.4608      1.00000
      3       2.7658      1.00000
      4       3.9545      1.00000
      5       8.3392      0.00000
      6       8.8936      0.00000
      7      10.6275      0.00000
      8      11.6285      0.00000
      9      14.7277      0.00000
     10      15.0930      0.00000
     11      16.9626      0.00000
     12      18.1179      0.00000

 k-point    35 :      -0.4000    0.2000    0.1000
  band No.  band energies     occupation
      1      -3.5787      1.00000
      2      -1.1204      1.00000
      3       2.7045      1.00000
      4       3.8206      1.00000
      5       8.3518      0.00000
      6       8.7301      0.00000
      7      10.5906      0.00000
      8      13.3466      0.00000
      9      13.3900      0.00000
     10      15.6907      0.00000
     11      17.0489      0.00000
     12      17.5202      0.00000

 k-point    36 :       0.4000    0.3000    0.1000
  band No.  band energies     occupation
      1      -4.5309      1.00000
      2       0.8660      1.00000
      3       2.8705      1.00000
      4       3.5754      1.00000
      5       7.4025      0.00000
      6       8.6822      0.00000
      7      10.7566      0.00000
      8      12.0802      0.00000
      9      14.4313      0.00000
     10      16.2202      0.00000
     11      17.0599      0.00000
     12      18.3509      0.00000

 k-point    37 :       0.5000    0.3000    0.1000
  band No.  band energies     occupation
      1      -3.8257      1.00000
      2      -0.2143      1.00000
      3       2.2619      1.00000
      4       3.2561      1.00000
      5       7.7830      0.00000
      6       9.3686      0.00000
      7      10.3825      0.00000
      8      12.4716      0.00000
      9      15.5041      0.00000
     10      15.5343      0.00000
     11      18.0105      0.00000
     12      18.3506      0.00000

 k-point    38 :      -0.4000    0.3000    0.1000
  band No.  band energies     occupation
      1      -3.1928      1.00000
      2      -1.0542      1.00000
      3       1.8596      1.00000
      4       3.2019      1.00000
      5       7.9628      0.00000
      6       9.9554      0.00000
      7      11.0785      0.00000
      8      12.3997      0.00000
      9      13.4812      0.00000
     10      16.3751      0.00000
     11      17.4582      0.00000
     12      18.5750      0.00000

 k-point    39 :      -0.3000    0.3000    0.1000
  band No.  band energies     occupation
      1      -3.3891      1.00000
      2      -0.8017      1.00000
      3       1.7150      1.00000
      4       3.4357      1.00000
      5       8.2963      0.00000
      6       9.7009      0.00000
      7      11.5077      0.00000
      8      12.2848      0.00000
      9      13.1434      0.00000
     10      14.6914      0.00000
     11      18.2966      0.00000
     12      19.5416      0.00000

 k-point    40 :      -0.2000    0.3000    0.1000
  band No.  band energies     occupation
      1      -4.1074      1.00000
      2       0.1272      1.00000
      3       2.0131      1.00000
      4       3.8648      1.00000
      5       8.7753      0.00000
      6       9.2539      0.00000
      7      10.3007      0.00000
      8      11.8086      0.00000
      9      13.4895      0.00000
     10      15.2386      0.00000
     11      18.2858      0.00000
     12      18.6358      0.00000

 k-point    41 :       0.5000    0.4000    0.1000
  band No.  band energies     occupation
      1      -3.4207      1.00000
      2      -0.6063      1.00000
      3       2.4679      1.00000
      4       2.7891      1.00000
      5       7.1190     -0.00000
      6       7.7122      0.00000
      7      12.2895      0.00000
      8      14.0029      0.00000
      9      15.9494      0.00000
     10      16.2611      0.00000
     11      18.0290      0.00000
     12      18.5243      0.00000

 k-point    42 :      -0.4000    0.4000    0.1000
  band No.  band energies     occupation
      1      -2.6993      1.00000
      2      -1.3670      1.00000
      3       1.7861      1.00000
      4       2.7000      1.00000
      5       7.4692      0.00000
      6       8.8938      0.00000
      7      11.8952      0.00000
      8      13.6511      0.00000
      9      14.4412      0.00000
     10      16.5083      0.00000
     11      17.8330      0.00000
     12      19.8723      0.00000

 k-point    43 :      -0.3000    0.4000    0.1000
  band No.  band energies     occupation
      1      -2.7086      1.00000
      2      -1.3375      1.00000
      3       1.3809      1.00000
      4       2.9634      1.00000
      5       7.7906      0.00000
      6      10.7113      0.00000
      7      11.4934      0.00000
      8      11.8317      0.00000
      9      13.9212      0.00000
     10      15.0080      0.00000
     11      19.3165      0.00000
     12      20.4319      0.00000

 k-point    44 :      -0.4000    0.5000    0.1000
  band No.  band energies     occupation
      1      -2.0799      1.00000
      2      -2.0799      1.00000
      3       2.4270      1.00000
      4       2.4270      1.00000
      5       7.2020      0.00000
      6       7.2020      0.00000
      7      14.0029      0.00000
      8      14.0029      0.00000
      9      16.0842      0.00000
     10      16.0842      0.00000
     11      18.2948      0.00000
     12      18.2948      0.00000

 k-point    45 :      -0.4000    0.4000    0.2000
  band No.  band energies     occupation
      1      -3.1092      1.00000
      2      -0.8983      1.00000
      3       1.7272      1.00000
      4       2.6943      1.00000
      5       8.9984      0.00000
      6       9.3955      0.00000
      7       9.9876      0.00000
      8      13.3192      0.00000
      9      13.9731      0.00000
     10      15.6966      0.00000
     11      18.7516      0.00000
     12      19.9007      0.00000

 k-point    46 :      -0.3000    0.4000    0.2000
  band No.  band energies     occupation
      1      -2.6107      1.00000
      2      -1.3976      1.00000
      3       1.5739      1.00000
      4       2.4494      1.00000
      5       9.2917      0.00000
      6       9.5683      0.00000
      7      10.9780      0.00000
      8      11.3843      0.00000
      9      14.4129      0.00000
     10      16.6653      0.00000
     11      17.6999      0.00000
     12      19.8824      0.00000

 k-point    47 :      -0.3000    0.5000    0.2000
  band No.  band energies     occupation
      1      -1.9916      1.00000
      2      -1.9916      1.00000
      3       1.9300      1.00000
      4       1.9300      1.00000
      5       9.0413      0.00000
      6       9.0413      0.00000
      7      11.4779      0.00000
      8      11.4779      0.00000
      9      16.0665      0.00000
     10      16.0665      0.00000
[...]
      2      -0.6468      1.00000
      3       1.4478      1.00000
      4       3.8368      1.00000
      5       7.5345      0.00000
      6      11.3101      0.00000
      7      11.6209      0.00000
      8      12.3428      0.00000
      9      12.7049      0.00000
     10      13.0795      0.00000
     11      19.1366      0.00000
     12      19.7208      0.00000

 k-point    28 :       0.4000    0.4000    0.0000
  band No.  band energies     occupation
      1      -3.5359      1.00000
      2      -0.5214      1.00000
      3       2.9768      1.00000
      4       2.9768      1.00000
      5       6.2339      0.00000
      6       6.9655      0.00000
      7      14.0165      0.00000
      8      14.0165      0.00000
      9      16.3654      0.00000
     10      16.6066      0.00000
     11      18.0783      0.00000
     12      18.0783      0.00000

 k-point    29 :       0.5000    0.4000    0.0000
  band No.  band energies     occupation
      1      -2.8213      1.00000
      2      -1.3475      1.00000
      3       2.4079      1.00000
      4       2.9289      1.00000
      5       6.4697      0.00000
      6       7.2150      0.00000
      7      14.2659      0.00000
      8      14.3426      0.00000
      9      16.3065      0.00000
     10      16.3971      0.00000
     11      17.8192      0.00000
     12      18.2360      0.00000

 k-point    30 :      -0.4000    0.4000    0.0000
  band No.  band energies     occupation
      1      -2.3606      1.00000
      2      -1.7574      1.00000
      3       1.6470      1.00000
      4       3.0927      1.00000
      5       6.6798      0.00000
      6       8.7648      0.00000
      7      13.6129      0.00000
      8      14.1878      0.00000
      9      14.1888      0.00000
     10      14.6434      0.00000
     11      19.7106      0.00000
     12      19.8657      0.00000

 k-point    31 :       0.5000    0.5000    0.0000
  band No.  band energies     occupation
      1      -2.1305      1.00000
      2      -2.1305      1.00000
      3       2.8220      1.00000
      4       2.8220      1.00000
      5       6.3676      0.00000
      6       6.3676      0.00000
      7      15.5526      0.00000
      8      15.5526      0.00000
      9      16.5231      0.00000
     10      16.5231      0.00000
     11      18.0592      0.00000
     12      18.0592      0.00000

 k-point    32 :       0.3000    0.2000    0.1000
  band No.  band energies     occupation
      1      -5.3538      1.00000
      2       2.2542      1.00000
      3       3.5832      1.00000
      4       4.6606      1.00000
      5       7.9610      0.00000
      6       9.2649      0.00000
      7      10.2143      0.00000
      8      10.2349      0.00000
      9      12.7729      0.00000
     10      14.3537      0.00000
     11      16.0262      0.00000
     12      17.1814      0.00000

 k-point    33 :       0.4000    0.2000    0.1000
  band No.  band energies     occupation
      1      -4.7543      1.00000
      2       0.8718      1.00000
      3       2.9995      1.00000
      4       4.2950      1.00000
      5       8.3010      0.00000
      6       9.1828      0.00000
      7      10.3078      0.00000
      8      10.7004      0.00000
      9      13.4293      0.00000
     10      15.9421      0.00000
     11      16.1599      0.00000
     12      17.9573      0.00000

 k-point    34 :       0.5000    0.2000    0.1000
  band No.  band energies     occupation
      1      -4.0244      1.00000
      2      -0.4610      1.00000
      3       2.7656      1.00000
      4       3.9542      1.00000
      5       8.3393      0.00000
      6       8.8937      0.00000
      7      10.6273      0.00000
      8      11.6286      0.00000
      9      14.7278      0.00000
     10      15.0933      0.00000
     11      16.9631      0.00000
     12      18.1177      0.00000

 k-point    35 :      -0.4000    0.2000    0.1000
  band No.  band energies     occupation
      1      -3.5790      1.00000
      2      -1.1206      1.00000
      3       2.7043      1.00000
      4       3.8203      1.00000
      5       8.3518      0.00000
      6       8.7303      0.00000
      7      10.5905      0.00000
      8      13.3467      0.00000
      9      13.3901      0.00000
     10      15.6911      0.00000
     11      17.0490      0.00000
     12      17.5204      0.00000

 k-point    36 :       0.4000    0.3000    0.1000
  band No.  band energies     occupation
      1      -4.5311      1.00000
      2       0.8656      1.00000
      3       2.8704      1.00000
      4       3.5751      1.00000
      5       7.4027      0.00000
      6       8.6825      0.00000
      7      10.7565      0.00000
      8      12.0800      0.00000
      9      14.4312      0.00000
     10      16.2199      0.00000
     11      17.0604      0.00000
     12      18.3515      0.00000

 k-point    37 :       0.5000    0.3000    0.1000
  band No.  band energies     occupation
      1      -3.8259      1.00000
      2      -0.2146      1.00000
      3       2.2618      1.00000
      4       3.2559      1.00000
      5       7.7832      0.00000
      6       9.3688      0.00000
      7      10.3825      0.00000
      8      12.4714      0.00000
      9      15.5040      0.00000
     10      15.5344      0.00000
     11      18.0109      0.00000
     12      18.3504      0.00000

 k-point    38 :      -0.4000    0.3000    0.1000
  band No.  band energies     occupation
      1      -3.1931      1.00000
      2      -1.0545      1.00000
      3       1.8596      1.00000
      4       3.2017      1.00000
      5       7.9630      0.00000
      6       9.9555      0.00000
      7      11.0786      0.00000
      8      12.3995      0.00000
      9      13.4812      0.00000
     10      16.3751      0.00000
     11      17.4582      0.00000
     12      18.5757      0.00000

 k-point    39 :      -0.3000    0.3000    0.1000
  band No.  band energies     occupation
      1      -3.3894      1.00000
      2      -0.8020      1.00000
      3       1.7150      1.00000
      4       3.4355      1.00000
      5       8.2965      0.00000
      6       9.7010      0.00000
      7      11.5078      0.00000
      8      12.2847      0.00000
      9      13.1434      0.00000
     10      14.6914      0.00000
     11      18.2973      0.00000
     12      19.5417      0.00000

 k-point    40 :      -0.2000    0.3000    0.1000
  band No.  band energies     occupation
      1      -4.1076      1.00000
      2       0.1268      1.00000
      3       2.0130      1.00000
      4       3.8645      1.00000
      5       8.7753      0.00000
      6       9.2539      0.00000
      7      10.3009      0.00000
      8      11.8085      0.00000
      9      13.4895      0.00000
     10      15.2386      0.00000
     11      18.2863      0.00000
     12      18.6357      0.00000

 k-point    41 :       0.5000    0.4000    0.1000
  band No.  band energies     occupation
      1      -3.4210      1.00000
      2      -0.6067      1.00000
      3       2.4678      1.00000
      4       2.7889      1.00000
      5       7.1192      0.00000
      6       7.7125      0.00000
      7      12.2894      0.00000
      8      14.0027      0.00000
      9      15.9493      0.00000
     10      16.2610      0.00000
     11      18.0288      0.00000
     12      18.5241      0.00000

 k-point    42 :      -0.4000    0.4000    0.1000
  band No.  band energies     occupation
      1      -2.6997      1.00000
      2      -1.3673      1.00000
      3       1.7860      1.00000
      4       2.6998      1.00000
      5       7.4694      0.00000
      6       8.8940      0.00000
      7      11.8951      0.00000
      8      13.6510      0.00000
      9      14.4411      0.00000
     10      16.5081      0.00000
     11      17.8329      0.00000
     12      19.8724      0.00000

 k-point    43 :      -0.3000    0.4000    0.1000
  band No.  band energies     occupation
      1      -2.7089      1.00000
      2      -1.3378      1.00000
      3       1.3809      1.00000
      4       2.9632      1.00000
      5       7.7908      0.00000
      6      10.7115      0.00000
      7      11.4932      0.00000
      8      11.8318      0.00000
      9      13.9211      0.00000
     10      15.0079      0.00000
     11      19.3164      0.00000
     12      20.4320      0.00000

 k-point    44 :      -0.4000    0.5000    0.1000
  band No.  band energies     occupation
      1      -2.0802      1.00000
      2      -2.0802      1.00000
      3       2.4269      1.00000
      4       2.4269      1.00000
      5       7.2023      0.00000
      6       7.2023      0.00000
      7      14.0027      0.00000
      8      14.0028      0.00000
      9      16.0840      0.00000
     10      16.0840      0.00000
     11      18.2948      0.00000
     12      18.2948      0.00000

 k-point    45 :      -0.4000    0.4000    0.2000
  band No.  band energies     occupation
      1      -3.1095      1.00000
      2      -0.8986      1.00000
      3       1.7271      1.00000
      4       2.6942      1.00000
      5       8.9985      0.00000
      6       9.3958      0.00000
      7       9.9875      0.00000
      8      13.3192      0.00000
      9      13.9729      0.00000
     10      15.6964      0.00000
     11      18.7514      0.00000
     12      19.9066      0.00000

 k-point    46 :      -0.3000    0.4000    0.2000
  band No.  band energies     occupation
      1      -2.6111      1.00000
      2      -1.3979      1.00000
      3       1.5739      1.00000
      4       2.4493      1.00000
      5       9.2920      0.00000
      6       9.5683      0.00000
      7      10.9781      0.00000
      8      11.3842      0.00000
      9      14.4127      0.00000
     10      16.6650      0.00000
     11      17.6998      0.00000
     12      19.8829      0.00000

 k-point    47 :      -0.3000    0.5000    0.2000
  band No.  band energies     occupation
      1      -1.9920      1.00000
      2      -1.9920      1.00000
      3       1.9300      1.00000
      4       1.9300      1.00000
      5       9.0415      0.00000
      6       9.0415      0.00000
      7      11.4779      0.00000
      8      11.4779      0.00000
      9      16.0663      0.00000
     10      16.0663      0.00000
     11      18.4565      0.00000
     12      18.4565      0.00000


--------------------------------------------------------------------------------------------------------


 soft charge-density along one line, spin component           1
         0         1         2         3         4         5         6         7         8         9
 total charge-density along one line

 soft charge-density along one line, spin component           2
         0         1         2         3         4         5         6         7         8         9
 total charge-density along one line

 pseudopotential strength for first ion, spin component:           1
 18.437  25.723  -0.000  -0.000   0.000  -0.000  -0.000   0.000
 25.723  35.893  -0.000  -0.000   0.000  -0.000  -0.000   0.000
 -0.000  -0.000   4.181   0.000   0.000   7.791   0.000   0.000
 -0.000  -0.000   0.000   4.181   0.000   0.000   7.791   0.000
  0.000   0.000   0.000   0.000   4.181   0.000   0.000   7.791
 -0.000  -0.000   7.791   0.000   0.000  14.528   0.000   0.000
 -0.000  -0.000   0.000   7.791   0.000   0.000  14.528   0.000
  0.000   0.000   0.000   0.000   7.791   0.000   0.000  14.528
 pseudopotential strength for first ion, spin component:           2
 18.437  25.723  -0.000  -0.000   0.000  -0.000  -0.000   0.000
 25.723  35.893  -0.000  -0.000   0.000  -0.000  -0.000   0.000
 -0.000  -0.000   4.181   0.000  -0.000   7.791   0.000  -0.000
 -0.000  -0.000   0.000   4.181   0.000   0.000   7.791   0.000
  0.000   0.000  -0.000   0.000   4.181  -0.000   0.000   7.791
 -0.000  -0.000   7.791   0.000  -0.000  14.528   0.000  -0.000
 -0.000  -0.000   0.000   7.791   0.000   0.000  14.528   0.000
  0.000   0.000  -0.000   0.000   7.791  -0.000   0.000  14.528
 total augmentation occupancy for first ion, spin component:           1
  5.516  -2.058   0.000   0.000   0.000   0.000   0.000  -0.000
 -2.058   0.885  -0.000   0.000  -0.000   0.000  -0.000  -0.000
  0.000   0.000   2.902  -0.000  -0.000  -0.648   0.000   0.000
  0.000  -0.000  -0.000   2.902  -0.000   0.000  -0.648   0.000
  0.000  -0.000  -0.000  -0.000   2.902   0.000   0.000  -0.648
 -0.000   0.000  -0.648   0.000   0.000   0.153  -0.000  -0.000
  0.000  -0.000   0.000  -0.648   0.000  -0.000   0.153  -0.000
 -0.000   0.000   0.000   0.000  -0.648  -0.000  -0.000   0.153
 total augmentation occupancy for first ion, spin component:           2
 -0.000   0.000  -0.000   0.000  -0.000  -0.000  -0.000  -0.000
  0.000   0.000  -0.000  -0.000   0.000   0.000   0.000   0.000
 -0.000   0.000  -0.000   0.000   0.000   0.000  -0.000  -0.000
  0.000  -0.000   0.000  -0.000   0.000  -0.000   0.000  -0.000
  0.000   0.000   0.000   0.000  -0.000  -0.000  -0.000   0.000
  0.000  -0.000   0.000  -0.000  -0.000  -0.000   0.000   0.000
 -0.000   0.000  -0.000   0.000  -0.000   0.000  -0.000   0.000
 -0.000   0.000  -0.000  -0.000   0.000   0.000   0.000  -0.000


------------------------ aborting loop because EDIFF is reached ----------------------------------------





 total charge

# of ion       s       p       d       tot
------------------------------------------
    1        0.751   0.928   0.000   1.679
    2        0.751   0.928   0.000   1.679
--------------------------------------------------
tot          1.501   1.856   0.000   3.357



 magnetization (x)

# of ion       s       p       d       tot
------------------------------------------
    1       -0.000  -0.000   0.000  -0.000
    2       -0.000  -0.000   0.000  -0.000
--------------------------------------------------
tot         -0.000  -0.000   0.000  -0.000

    CHARGE:  cpu time    0.0568: real time    0.0568
    FORLOC:  cpu time    0.0016: real time    0.0035
    FORNL :  cpu time    0.6385: real time    0.6398
    STRESS:  cpu time    1.9402: real time    1.9430
    FORCOR:  cpu time    0.1007: real time    0.1070
    FORHAR:  cpu time    0.0090: real time    0.0090
    MIXING:  cpu time    0.0029: real time    0.0030
    OFIELD:  cpu time    0.0000: real time    0.0000

  FORCE on cell =-STRESS in cart. coord.  units (eV):
  Direction    XX          YY          ZZ          XY          YZ          ZX
  --------------------------------------------------------------------------------------
  Alpha Z     3.29318     3.29318     3.29318
  Ewald     -75.64832   -75.64835   -75.64832    -0.00001     0.00001     0.00001
  Hartree     5.05799     5.05799     5.05800    -0.00000     0.00000     0.00000
  E(xc)     -25.24633   -25.24633   -25.24633    -0.00000    -0.00000    -0.00000
  Local     -29.50127   -29.50127   -29.50128     0.00001    -0.00000    -0.00000
  n-local    73.82641    77.18329    81.31037    -0.92058    -0.83172    -0.02166
  augment   -11.64849   -11.64850   -11.64850    -0.00000    -0.00000    -0.00000
  Kinetic    53.04639    55.03302    60.67461     0.85013     1.16535    -0.54242
  Fock        0.00000     0.00000     0.00000     0.00000     0.00000     0.00000
  -------------------------------------------------------------------------------------
  Total      -0.00189    -0.00189    -0.00189     0.00000     0.00000     0.00000
  in kB      -0.07424    -0.07424    -0.07424     0.00000     0.00000     0.00000
  external pressure =       -0.07 kB  Pullay stress =        0.00 kB


 VOLUME and BASIS-vectors are now :
 -----------------------------------------------------------------------------
  energy-cutoff  :      680.00
  volume of cell :       40.89
      direct lattice vectors                 reciprocal lattice vectors
     3.348898000  0.000000000  1.933487000     0.298605691 -0.105573000  0.000000000
     1.116299000  3.157372000  1.933487000     0.000000000  0.316719094  0.000000000
     0.000000000  0.000000000  3.866975000    -0.149302807 -0.105573020  0.258600069

  length of vectors
     3.866974243  3.866974707  3.866975000     0.316719145  0.316719094  0.316719096


 FORCES acting on ions
    electron-ion (+dipol)            ewald-force                    non-local-force                 convergence-correction
 -----------------------------------------------------------------------------------------------
   0.371E-05 -.681E-05 -.830E-05   -.634E-05 0.116E-04 0.142E-04   -.304E-16 -.150E-16 -.690E-16   0.546E-09 -.943E-09 -.113E-08
   -.371E-05 0.681E-05 0.830E-05   0.634E-05 -.116E-04 -.142E-04   0.251E-16 0.849E-17 0.639E-16   -.546E-09 0.943E-09 0.113E-08
 -----------------------------------------------------------------------------------------------
   -.326E-13 0.314E-13 0.103E-12   0.718E-18 -.107E-15 0.148E-15   -.530E-17 -.652E-17 -.515E-17   0.106E-15 0.814E-15 -.438E-14


 POSITION                                       TOTAL-FORCE (eV/Angst)
 -----------------------------------------------------------------------------------
      1.11630      0.78934      1.93349         0.000000     -0.000000     -0.000000
      0.00000      0.00000      0.00000        -0.000000      0.000000      0.000000
 -----------------------------------------------------------------------------------
    total drift:                               -0.000000      0.000000      0.000000


--------------------------------------------------------------------------------------------------------



  FREE ENERGIE OF THE ION-ELECTRON SYSTEM (eV)
  ---------------------------------------------------
  free  energy   TOTEN  =       -10.85037110 eV

  energy  without entropy=      -10.85037110  energy(sigma->0) =      -10.85037110



--------------------------------------------------------------------------------------------------------


    POTLOK:  cpu time    0.2270: real time    0.2271


--------------------------------------------------------------------------------------------------------




--------------------------------------------------------------------------------------------------------



 reached required accuracy - stopping structural energy minimisation
     LOOP+:  cpu time   43.1514: real time   43.3742
    4ORBIT:  cpu time    0.0000: real time    0.0000



 total charge

# of ion       s       p       d       tot
------------------------------------------
    1        0.751   0.928   0.000   1.679
    2        0.751   0.928   0.000   1.679
--------------------------------------------------
tot          1.501   1.856   0.000   3.357



 magnetization (x)

# of ion       s       p       d       tot
------------------------------------------
    1       -0.000  -0.000   0.000  -0.000
    2       -0.000  -0.000   0.000  -0.000
--------------------------------------------------
tot         -0.000  -0.000   0.000  -0.000

 BZINTS: Fermi energy:    6.233530;    8.000000 electrons
         Band energy: 0.492109E+01;  BLOECHL correction:   -0.000000

 total amount of memory used by VASP MPI-rank0    52852. kBytes
=======================================================================

   base      :      30000. kBytes
   nonlr-proj:       1161. kBytes
   fftplans  :       3408. kBytes
   grid      :      10637. kBytes
   one-center:         12. kBytes
   wavefun   :       7634. kBytes



 General timing and accounting informations for this job:
 ========================================================

                  Total CPU time used (sec):       48.986
                            User time (sec):       46.537
                          System time (sec):        2.448
                         Elapsed time (sec):       49.324

                   Maximum memory used (kb):    61661184.
                   Average memory used (kb):          N/A

                          Minor page faults:        32840
                          Major page faults:         1091
                 Voluntary context switches:           11
