<?xml version="1.0" encoding="ISO-8859-1"?>
<modeling>
 <generator>
  <i name="program" type="string">vasp </i>
  <i name="version" type="string">6.2.1  </i>
  <i name="subversion" type="string">16May21 (build Oct 27 2021 18:14:32) complex                          parallel </i>
  <i name="platform" type="string">LinuxIFC </i>
  <i name="date" type="string">2021 10 28 </i>
  <i name="time" type="string">14:46:07 </i>
 </generator>
 <incar>
  <i type="string" name="PREC">Accurate</i>
  <i type="string" name="ALGO">Normal</i>
  <i type="int" name="ISPIN">     2</i>
  <i type="int" name="NELM">   200</i>
  <i type="int" name="IBRION">     2</i>
  <i name="EDIFF">      0.00001000</i>
  <i name="EDIFFG">     -0.02000000</i>
  <i type="int" name="NSW">     1</i>
  <i type="int" name="ISIF">     3</i>
  <i name="ENCUT">    680.00000000</i>
  <i name="ENAUG">   1360.00000000</i>
  <v name="MAGMOM">      0.60000000      0.60000000</v>
  <i type="string" name="LREAL">Auto</i>
  <i type="int" name="ISMEAR">    -5</i>
  <i name="SIGMA">      0.20000000</i>
  <i name="KSPACING">      0.22000000</i>
  <i type="logical" name="LWAVE"> F  </i>
  <i type="logical" name="LCHARG"> T  </i>
  <i type="logical" name="LVTOT"> T  </i>
  <i type="int" name="LORBIT">    11</i>
  <i type="logical" name="LELF"> T  </i>
  <i type="logical" name="LASPH"> T  </i>
  <i type="logical" name="LAECHG"> T  </i>
  <i type="logical" name="LMIXTAU"> T  </i>
 </incar>
 <primitive_cell>
  <structure name="primitive_cell" >
   <crystal>
    <varray name="basis" >
     <v>       3.34889800       0.00000000       1.93348700 </v>
     <v>       1.11629900       3.15737200       1.93348700 </v>
     <v>       0.00000000       0.00000000       3.86697500 </v>
    </varray>
    <i name="volume">     40.88829843 </i>
    <varray name="rec_basis" >
     <v>       0.29860569      -0.10557300       0.00000000 </v>
     <v>       0.00000000       0.31671909       0.00000000 </v>
     <v>      -0.14930281      -0.10557302       0.25860007 </v>
    </varray>
   </crystal>
   <varray name="positions" >
    <v>       0.25000000       0.25000000       0.25000000 </v>
    <v>       0.00000000       0.00000000       0.00000000 </v>
   </varray>
  </structure>
  <varray name="primitive_index" >
   <v type="int" >        1 </v>
   <v type="int" >        2 </v>
  </varray>
 </primitive_cell>
 <kpoints>
  <generation param="Gamma">
   <v type="int" name="divisions">      10       10       10 </v>
   <v name="usershift">      0.00000000       0.00000000       0.00000000 </v>
   <v name="genvec1">      0.10000000      -0.00000000       0.00000000 </v>
   <v name="genvec2">      0.00000000       0.10000000       0.00000000 </v>
   <v name="genvec3">     -0.00000000       0.00000000       0.10000000 </v>
   <v name="shift">      0.00000000       0.00000000       0.00000000 </v>
  </generation>
  <varray name="kpointlist" >
   <v>       0.00000000       0.00000000       0.00000000 </v>
   <v>       0.10000000       0.00000000       0.00000000 </v>
   <v>       0.20000000       0.00000000       0.00000000 </v>
   <v>       0.30000000      -0.00000000       0.00000000 </v>
   <v>       0.40000000       0.00000000       0.00000000 </v>
   <v>       0.50000000       0.00000000       0.00000000 </v>
   <v>       0.10000000       0.10000000       0.00000000 </v>
   <v>       0.20000000       0.10000000       0.00000000 </v>
   <v>       0.30000000       0.10000000       0.00000000 </v>
   <v>       0.40000000       0.10000000       0.00000000 </v>
   <v>       0.50000000       0.10000000       0.00000000 </v>
   <v>      -0.40000000       0.10000000       0.00000000 </v>
   <v>      -0.30000000       0.10000000       0.00000000 </v>
   <v>      -0.20000000       0.10000000       0.00000000 </v>
   <v>      -0.10000000       0.10000000       0.00000000 </v>
   <v>       0.20000000       0.20000000       0.00000000 </v>
   <v>       0.30000000       0.20000000       0.00000000 </v>
   <v>       0.40000000       0.20000000       0.00000000 </v>
   <v>       0.50000000       0.20000000       0.00000000 </v>
   <v>      -0.40000000       0.20000000       0.00000000 </v>
   <v>      -0.30000000       0.20000000       0.00000000 </v>
   <v>      -0.20000000       0.20000000       0.00000000 </v>
   <v>       0.30000000       0.30000000       0.00000000 </v>
   <v>       0.40000000       0.30000000       0.00000000 </v>
   <v>       0.50000000       0.30000000       0.00000000 </v>
   <v>      -0.40000000       0.30000000       0.00000000 </v>
   <v>      -0.30000000       0.30000000       0.00000000 </v>
   <v>       0.40000000       0.40000000       0.00000000 </v>
   <v>       0.50000000       0.40000000       0.00000000 </v>
   <v>      -0.40000000       0.40000000       0.00000000 </v>
   <v>       0.50000000       0.50000000       0.00000000 </v>
   <v>       0.30000000       0.20000000       0.10000000 </v>
   <v>       0.40000000       0.20000000       0.10000000 </v>
   <v>       0.50000000       0.20000000       0.10000000 </v>
   <v>      -0.40000000       0.20000000       0.10000000 </v>
   <v>       0.40000000       0.30000000       0.10000000 </v>
   <v>       0.50000000       0.30000000       0.10000000 </v>
   <v>      -0.40000000       0.30000000       0.10000000 </v>
   <v>      -0.30000000       0.30000000       0.10000000 </v>
   <v>      -0.20000000       0.30000000       0.10000000 </v>
   <v>       0.50000000       0.40000000       0.10000000 </v>
   <v>      -0.40000000       0.40000000       0.10000000 </v>
   <v>      -0.30000000       0.40000000       0.10000000 </v>
   <v>      -0.40000000       0.50000000       0.10000000 </v>
   <v>      -0.40000000       0.40000000       0.20000000 </v>
   <v>      -0.30000000       0.40000000       0.20000000 </v>
   <v>      -0.30000000       0.50000000       0.20000000 </v>
  </varray>
  <varray name="weights" >
   <v>       0.00100000 </v>
   <v>       0.00800000 </v>
   <v>       0.00800000 </v>
   <v>       0.00800000 </v>
   <v>       0.00800000 </v>
   <v>       0.00400000 </v>
   <v>       0.00600000 </v>
   <v>       0.02400000 </v>
   <v>       0.02400000 </v>
   <v>       0.02400000 </v>
   <v>       0.02400000 </v>
   <v>       0.02400000 </v>
   <v>       0.02400000 </v>
   <v>       0.02400000 </v>
   <v>       0.01200000 </v>
   <v>       0.00600000 </v>
   <v>       0.02400000 </v>
   <v>       0.02400000 </v>
   <v>       0.02400000 </v>
   <v>       0.02400000 </v>
   <v>       0.02400000 </v>
   <v>       0.01200000 </v>
   <v>       0.00600000 </v>
   <v>       0.02400000 </v>
   <v>       0.02400000 </v>
   <v>       0.02400000 </v>
   <v>       0.01200000 </v>
   <v>       0.00600000 </v>
   <v>       0.02400000 </v>
   <v>       0.01200000 </v>
   <v>       0.00300000 </v>
   <v>       0.02400000 </v>
   <v>       0.04800000 </v>
   <v>       0.04800000 </v>
   <v>       0.02400000 </v>
   <v>       0.02400000 </v>
   <v>       0.04800000 </v>
   <v>       0.04800000 </v>
   <v>       0.04800000 </v>
   <v>       0.02400000 </v>
   <v>       0.02400000 </v>
   <v>       0.04800000 </v>
   <v>       0.02400000 </v>
   <v>       0.01200000 </v>
   <v>       0.02400000 </v>
   <v>       0.02400000 </v>
   <v>       0.01200000 </v>
  </varray>
  <varray name="tetrahedronlist"  type="int" >
   <v type="int" >       24        1        2        2        7 </v>
   <v type="int" >       48        2        7        8       15 </v>
   <v type="int" >       48        2        3        8       15 </v>
   <v type="int" >       24        2        2        7       15 </v>
   <v type="int" >       48        3        8        9       14 </v>
   <v type="int" >       48        3        4        9       14 </v>
   <v type="int" >       48        3        8       14       15 </v>
   <v type="int" >       48        4        9       10       13 </v>
   <v type="int" >       48        4        5       10       13 </v>
   <v type="int" >       48        4        9       13       14 </v>
   <v type="int" >       48        5       10       11       12 </v>
   <v type="int" >       48        5        6       11       12 </v>
   <v type="int" >       48        5       10       12       13 </v>
   <v type="int" >       48        6       11       11       12 </v>
   <v type="int" >       24        7        8        8       16 </v>
   <v type="int" >       24        7        8        8       15 </v>
   <v type="int" >       48        8       16       17       32 </v>
   <v type="int" >       48        8        9       17       32 </v>
   <v type="int" >       48        8        9       14       32 </v>
   <v type="int" >       24        8        8       16       32 </v>
   <v type="int" >       24        8        8       15       32 </v>
   <v type="int" >       48        8       14       15       32 </v>
   <v type="int" >       48        9       17       18       33 </v>
   <v type="int" >       48        9       10       18       33 </v>
   <v type="int" >       48        9       10       13       33 </v>
   <v type="int" >       48        9       17       32       33 </v>
   <v type="int" >       48        9       14       32       33 </v>
   <v type="int" >       48        9       13       14       33 </v>
   <v type="int" >       48       10       18       19       34 </v>
   <v type="int" >       48       10       11       19       34 </v>
   <v type="int" >       48       10       11       12       34 </v>
   <v type="int" >       48       10       18       33       34 </v>
   <v type="int" >       48       10       13       33       34 </v>
   <v type="int" >       48       10       12       13       34 </v>
   <v type="int" >       48       11       19       20       35 </v>
   <v type="int" >       48       11       12       20       35 </v>
   <v type="int" >       48       11       11       12       35 </v>
   <v type="int" >       48       11       19       34       35 </v>
   <v type="int" >       48       11       12       34       35 </v>
   <v type="int" >       48       12       20       21       34 </v>
   <v type="int" >       48       12       13       21       34 </v>
   <v type="int" >       48       12       20       34       35 </v>
   <v type="int" >       48       13       21       22       33 </v>
   <v type="int" >       48       13       14       22       33 </v>
   <v type="int" >       48       13       21       33       34 </v>
   <v type="int" >       24       14       14       22       32 </v>
   <v type="int" >       24       14       14       15       32 </v>
   <v type="int" >       48       14       22       32       33 </v>
   <v type="int" >       24       16       17       17       23 </v>
   <v type="int" >       24       16       17       17       32 </v>
   <v type="int" >       48       17       23       24       36 </v>
   <v type="int" >       48       17       18       24       36 </v>
   <v type="int" >       48       17       18       33       36 </v>
   <v type="int" >       24       17       17       23       36 </v>
   <v type="int" >       24       17       17       32       36 </v>
   <v type="int" >       48       17       32       33       36 </v>
   <v type="int" >       48       18       24       25       37 </v>
   <v type="int" >       48       18       19       25       37 </v>
   <v type="int" >       48       18       19       34       37 </v>
   <v type="int" >       48       18       24       36       37 </v>
   <v type="int" >       48       18       33       36       37 </v>
   <v type="int" >       48       18       33       34       37 </v>
   <v type="int" >       48       19       25       26       38 </v>
   <v type="int" >       48       19       20       26       38 </v>
   <v type="int" >       48       19       20       35       38 </v>
   <v type="int" >       48       19       25       37       38 </v>
   <v type="int" >       48       19       34       37       38 </v>
   <v type="int" >       48       19       34       35       38 </v>
   <v type="int" >       48       20       26       27       39 </v>
   <v type="int" >       48       20       21       27       39 </v>
   <v type="int" >       48       20       21       34       39 </v>
   <v type="int" >       48       20       26       38       39 </v>
   <v type="int" >       48       20       35       38       39 </v>
   <v type="int" >       48       20       34       35       39 </v>
   <v type="int" >       24       21       21       27       40 </v>
   <v type="int" >       24       21       21       22       40 </v>
   <v type="int" >       48       21       22       33       40 </v>
   <v type="int" >       48       21       27       39       40 </v>
   <v type="int" >       48       21       34       39       40 </v>
   <v type="int" >       48       21       33       34       40 </v>
   <v type="int" >       24       22       33       33       40 </v>
   <v type="int" >       24       22       32       33       33 </v>
   <v type="int" >       24       23       24       24       28 </v>
   <v type="int" >       24       23       24       24       36 </v>
   <v type="int" >       48       24       28       29       41 </v>
   <v type="int" >       48       24       25       29       41 </v>
   <v type="int" >       48       24       25       37       41 </v>
   <v type="int" >       24       24       24       28       41 </v>
   <v type="int" >       24       24       24       36       41 </v>
   <v type="int" >       48       24       36       37       41 </v>
   <v type="int" >       48       25       29       30       42 </v>
   <v type="int" >       48       25       26       30       42 </v>
   <v type="int" >       48       25       26       38       42 </v>
   <v type="int" >       48       25       29       41       42 </v>
   <v type="int" >       48       25       37       41       42 </v>
   <v type="int" >       48       25       37       38       42 </v>
   <v type="int" >       24       26       26       30       43 </v>
   <v type="int" >       24       26       26       27       43 </v>
   <v type="int" >       48       26       27       39       43 </v>
   <v type="int" >       48       26       30       42       43 </v>
   <v type="int" >       48       26       38       42       43 </v>
   <v type="int" >       48       26       38       39       43 </v>
   <v type="int" >       24       27       39       39       43 </v>
   <v type="int" >       24       27       39       39       40 </v>
   <v type="int" >       24       28       29       29       31 </v>
   <v type="int" >       24       28       29       29       41 </v>
   <v type="int" >       48       29       29       31       44 </v>
   <v type="int" >       24       29       29       30       44 </v>
   <v type="int" >       48       29       30       42       44 </v>
   <v type="int" >       24       29       29       41       44 </v>
   <v type="int" >       48       29       41       42       44 </v>
   <v type="int" >       24       30       42       42       44 </v>
   <v type="int" >       24       30       42       42       43 </v>
   <v type="int" >       24       32       33       33       36 </v>
   <v type="int" >       48       33       36       37       40 </v>
   <v type="int" >       48       33       34       37       40 </v>
   <v type="int" >       24       33       33       36       40 </v>
   <v type="int" >       48       34       37       38       39 </v>
   <v type="int" >       48       34       35       38       39 </v>
   <v type="int" >       48       34       37       39       40 </v>
   <v type="int" >       48       35       38       38       39 </v>
   <v type="int" >       24       36       37       37       41 </v>
   <v type="int" >       24       36       37       37       40 </v>
   <v type="int" >       48       37       41       42       45 </v>
   <v type="int" >       48       37       38       42       45 </v>
   <v type="int" >       48       37       38       39       45 </v>
   <v type="int" >       24       37       37       41       45 </v>
   <v type="int" >       24       37       37       40       45 </v>
   <v type="int" >       48       37       39       40       45 </v>
   <v type="int" >       48       38       42       43       46 </v>
   <v type="int" >       48       38       39       43       46 </v>
   <v type="int" >       48       38       38       39       46 </v>
   <v type="int" >       48       38       42       45       46 </v>
   <v type="int" >       48       38       39       45       46 </v>
   <v type="int" >       24       39       39       43       45 </v>
   <v type="int" >       24       39       39       40       45 </v>
   <v type="int" >       48       39       43       45       46 </v>
   <v type="int" >       24       41       42       42       44 </v>
   <v type="int" >       24       41       42       42       45 </v>
   <v type="int" >       48       42       42       44       47 </v>
   <v type="int" >       24       42       42       43       47 </v>
   <v type="int" >       48       42       43       46       47 </v>
   <v type="int" >       24       42       42       45       47 </v>
   <v type="int" >       48       42       45       46       47 </v>
   <v type="int" >       24       43       46       46       47 </v>
   <v type="int" >       24       43       45       46       46 </v>
   <v type="int" >       24       45       46       46       47 </v>
   <v type="int" >       24       46       46       47       47 </v>
  </varray>
  <i name="volumeweight">      0.00016667 </i>
 </kpoints>
 <parameters>
  <separator name="general" >
   <i type="string" name="SYSTEM">unknown system</i>
   <i type="logical" name="LCOMPAT"> F  </i>
  </separator>
  <separator name="electronic" >
   <i type="string" name="PREC">accura</i>
   <i name="ENMAX">    680.00000000</i>
   <i name="ENAUG">   1360.00000000</i>
   <i name="EDIFF">      0.00001000</i>
   <i type="int" name="IALGO">    38</i>
   <i type="int" name="IWAVPR">    11</i>
   <i type="int" name="NBANDS">    12</i>
   <i type="int" name="NBANDSLOW">    -1</i>
   <i type="int" name="NBANDSHIGH">    -1</i>
   <i name="NELECT">      8.00000000</i>
   <i type="int" name="TURBO">     0</i>
   <i type="int" name="IRESTART">     0</i>
   <i type="int" name="NREBOOT">     0</i>
   <i type="int" name="NMIN">     0</i>
   <i name="EREF">      0.00000000</i>
   <separator name="electronic smearing" >
    <i type="int" name="ISMEAR">    -5</i>
    <i name="SIGMA">      0.20000000</i>
    <i name="KSPACING">      0.22000000</i>
    <i type="logical" name="KGAMMA"> T  </i>
    <i type="logical" name="KBLOWUP"> T  </i>
   </separator>
   <separator name="electronic projectors" >
    <i type="logical" name="LREAL"> T  </i>
    <v name="ROPT">     -0.00025000</v>
    <i type="int" name="LMAXPAW">  -100</i>
    <i type="int" name="LMAXMIX">     2</i>
    <i type="logical" name="NLSPLINE"> F  </i>
   </separator>
   <separator name="electronic startup" >
    <i type="int" name="ISTART">     0</i>
    <i type="int" name="ICHARG">     2</i>
    <i type="int" name="INIWAV">     1</i>
   </separator>
   <separator name="electronic spin" >
    <i type="int" name="ISPIN">     2</i>
    <i type="logical" name="LNONCOLLINEAR"> F  </i>
    <v name="MAGMOM">      0.60000000      0.60000000</v>
    <i name="NUPDOWN">     -1.00000000</i>
    <i type="logical" name="LSORBIT"> F  </i>
    <v name="SAXIS">      0.00000000      0.00000000      1.00000000</v>
    <i type="logical" name="LSPIRAL"> F  </i>
    <v name="QSPIRAL">      0.00000000      0.00000000      0.00000000</v>
    <i type="logical" name="LZEROZ"> F  </i>
   </separator>
   <separator name="electronic exchange-correlation" >
    <i type="logical" name="LASPH"> T  </i>
    <i type="logical" name="LMETAGGA"> F  </i>
   </separator>
   <separator name="electronic convergence" >
    <i type="int" name="NELM">   200</i>
    <i type="int" name="NELMDL">    -5</i>
    <i type="int" name="NELMIN">     2</i>
    <i name="ENINI">    680.00000000</i>
    <separator name="electronic convergence detail" >
     <i type="logical" name="LDIAG"> T  </i>
     <i type="logical" name="LSUBROT"> F  </i>
     <i name="WEIMIN">      0.00100000</i>
     <i name="EBREAK">      0.00000021</i>
     <i name="DEPER">      0.30000000</i>
     <i type="int" name="NRMM">     4</i>
     <i name="TIME">      0.40000000</i>
    </separator>
   </separator>
   <separator name="electronic mixer" >
    <i name="AMIX">      0.40000000</i>
    <i name="BMIX">      1.00000000</i>
    <i name="AMIN">      0.10000000</i>
    <i name="AMIX_MAG">      1.60000000</i>
    <i name="BMIX_MAG">      1.00000000</i>
    <separator name="electronic mixer details" >
     <i type="int" name="IMIX">     4</i>
     <i type="logical" name="MIXFIRST"> F  </i>
     <i type="int" name="MAXMIX">   -45</i>
     <i name="WC">    100.00000000</i>
     <i type="int" name="INIMIX">     1</i>
     <i type="int" name="MIXPRE">     1</i>
     <i type="int" name="MREMOVE">     5</i>
    </separator>
   </separator>
   <separator name="electronic dipolcorrection" >
    <i type="logical" name="LDIPOL"> F  </i>
    <i type="logical" name="LMONO"> F  </i>
    <i type="int" name="IDIPOL">     0</i>
    <i name="EPSILON">      1.00000000</i>
    <v name="DIPOL">   -100.00000000   -100.00000000   -100.00000000</v>
    <i name="EFIELD">      0.00000000</i>
   </separator>
  </separator>
  <separator name="grids" >
   <i type="int" name="NGX">    36</i>
   <i type="int" name="NGY">    36</i>
   <i type="int" name="NGZ">    36</i>
   <i type="int" name="NGXF">    72</i>
   <i type="int" name="NGYF">    72</i>
   <i type="int" name="NGZF">    72</i>
   <i type="logical" name="ADDGRID"> F  </i>
  </separator>
  <separator name="ionic" >
   <i type="int" name="NSW">     1</i>
   <i type="int" name="IBRION">     2</i>
   <i type="int" name="MDALGO">     0</i>
   <i type="int" name="ISIF">     3</i>
   <i name="PSTRESS">      0.00000000</i>
   <i name="EDIFFG">     -0.02000000</i>
   <i type="int" name="NFREE">     1</i>
   <i name="POTIM">      0.50000000</i>
   <i name="SMASS">     -3.00000000</i>
   <i name="SCALEE">      1.00000000</i>
  </separator>
  <separator name="ionic md" >
   <i name="TEBEG">      0.00010000</i>
   <i name="TEEND">      0.00010000</i>
   <i type="int" name="NBLOCK">     1</i>
   <i type="int" name="KBLOCK">     1</i>
   <i type="int" name="NPACO">   256</i>
   <i name="APACO">     16.00000000</i>
  </separator>
  <separator name="symmetry" >
   <i type="int" name="ISYM">     2</i>
   <i name="SYMPREC">      0.00001000</i>
  </separator>
  <separator name="dos" >
   <i type="int" name="LORBIT">    11</i>
   <v name="RWIGS">     -1.00000000</v>
   <i type="int" name="NEDOS">   301</i>
   <i name="EMIN">     10.00000000</i>
   <i name="EMAX">    -10.00000000</i>
   <i name="EFERMI">      0.00000000</i>
  </separator>
  <separator name="writing" >
   <i type="int" name="NWRITE">     2</i>
   <i type="logical" name="LWAVE"> F  </i>
   <i type="logical" name="LDOWNSAMPLE"> F  </i>
   <i type="logical" name="LCHARG"> T  </i>
   <i type="logical" name="LPARD"> F  </i>
   <i type="logical" name="LVTOT"> T  </i>
   <i type="logical" name="LVHAR"> F  </i>
   <i type="logical" name="LELF"> T  </i>
   <i type="logical" name="LOPTICS"> F  </i>
   <v name="STM">      0.00000000      0.00000000      0.00000000      0.00000000      0.00000000      0.00000000      0.00000000</v>
  </separator>
  <separator name="performance" >
   <i type="int" name="NPAR">     4</i>
   <i type="int" name="NSIM">     4</i>
   <i type="int" name="NBLK">    -1</i>
   <i type="logical" name="LPLANE"> T  </i>
   <i type="logical" name="LSCALAPACK"> F  </i>
   <i type="logical" name="LSCAAWARE"> F  </i>
   <i type="logical" name="LSCALU"> F  </i>
   <i type="logical" name="LASYNC"> F  </i>
   <i type="logical" name="LORBITALREAL"> F  </i>
  </separator>
  <separator name="miscellaneous" >
   <i type="int" name="IDIOT">     3</i>
   <i type="int" name="PHON_NSTRUCT">    -1</i>
   <i type="logical" name="LMUSIC"> F  </i>
   <v name="POMASS">     28.08500000</v>
   <v name="DARWINR">      0.00000000</v>
   <v name="DARWINV">      1.00000000</v>
   <i type="logical" name="LCORR"> T  </i>
  </separator>
  <i type="logical" name="GGA_COMPAT"> T  </i>
  <i type="logical" name="LBERRY"> F  </i>
  <i type="int" name="ICORELEVEL">     0</i>
  <i type="logical" name="LDAU"> F  </i>
  <i type="int" name="I_CONSTRAINED_M">     0</i>
  <separator name="electronic exchange-correlation" >
   <i type="string" name="GGA">--</i>
   <i type="int" name="VOSKOWN">     0</i>
   <i type="logical" name="LHFCALC"> F  </i>
   <i type="string" name="PRECFOCK"></i>
   <i type="logical" name="LSYMGRAD"> F  </i>
   <i type="logical" name="LHFONE"> F  </i>
   <i type="logical" name="LRHFCALC"> F  </i>
   <i type="logical" name="LTHOMAS"> F  </i>
   <i type="logical" name="LMODELHF"> F  </i>
   <i type="logical" name="LFOCKACE"> F  </i>
   <i name="ENCUT4O">     -1.00000000</i>
   <i type="int" name="EXXOEP">     0</i>
   <i type="int" name="FOURORBIT">     0</i>
   <i name="AEXX">      0.00000000</i>
   <i name="HFALPHA">      0.00000000</i>
   <i name="MCALPHA">      0.00000000</i>
   <i name="ALDAX">      1.00000000</i>
   <i name="AGGAX">      1.00000000</i>
   <i name="ALDAC">      1.00000000</i>
   <i name="AGGAC">      1.00000000</i>
   <i type="int" name="NKREDX">     1</i>
   <i type="int" name="NKREDY">     1</i>
   <i type="int" name="NKREDZ">     1</i>
   <i type="logical" name="SHIFTRED"> F  </i>
   <i type="logical" name="ODDONLY"> F  </i>
   <i type="logical" name="EVENONLY"> F  </i>
   <i type="int" name="LMAXFOCK">     0</i>
   <i type="int" name="NMAXFOCKAE">     0</i>
   <i type="logical" name="LFOCKAEDFT"> F  </i>
   <i name="HFSCREEN">      0.00000000</i>
   <i name="HFSCREENC">      0.00000000</i>
   <i type="int" name="NBANDSGWLOW">     0</i>
  </separator>
  <separator name="vdW DFT" >
   <i type="logical" name="LUSE_VDW"> F  </i>
   <i name="Zab_VDW">     -0.84910000</i>
   <i name="PARAM1">      0.12340000</i>
   <i name="PARAM2">      1.00000000</i>
   <i name="PARAM3">      0.00000000</i>
  </separator>
  <separator name="model GW" >
   <i type="int" name="MODEL_GW">     0</i>
   <i name="MODEL_EPS0">     12.26648953</i>
   <i name="MODEL_ALPHA">      1.00000000</i>
  </separator>
  <separator name="linear response parameters" >
   <i type="logical" name="LEPSILON"> F  </i>
   <i type="logical" name="LRPA"> F  </i>
   <i type="logical" name="LNABLA"> F  </i>
   <i type="logical" name="LVEL"> F  </i>
   <i type="int" name="KINTER">     0</i>
   <i name="CSHIFT">      0.10000000</i>
   <i name="OMEGAMAX">     -1.00000000</i>
   <i name="DEG_THRESHOLD">      0.00200000</i>
   <i name="RTIME">     -0.10000000</i>
   <i name="WPLASMAI">      0.00000000</i>
   <v name="DFIELD">      0.00000000      0.00000000      0.00000000</v>
   <v name="WPLASMA">      0.00000000      0.00000000      0.00000000      0.00000000      0.00000000      0.00000000      0.00000000      0.00000000      0.00000000</v>
  </separator>
  <separator name="orbital magnetization" >
   <i type="logical" name="NUCIND"> F  </i>
   <v name="MAGPOS">      0.00000000      0.00000000      0.00000000</v>
   <i type="logical" name="LNICSALL"> T  </i>
   <i type="logical" name="ORBITALMAG"> F  </i>
   <i type="logical" name="LMAGBLOCH"> F  </i>
   <i type="logical" name="LCHIMAG"> F  </i>
   <i type="logical" name="LGAUGE"> T  </i>
   <i type="int" name="MAGATOM">     0</i>
   <v name="MAGDIPOL">      0.00000000      0.00000000      0.00000000</v>
   <v name="AVECCONST">      0.00000000      0.00000000      0.00000000</v>
  </separator>
  <separator name="response functions" >
   <i type="logical" name="LFINITE_TEMPERATURE"> F  </i>
   <i type="logical" name="LADDER"> F  </i>
   <i type="logical" name="LRPAFORCE"> F  </i>
   <i type="logical" name="LFXC"> F  </i>
   <i type="logical" name="LHARTREE"> T  </i>
   <i type="int" name="IBSE">     0</i>
   <v type="int" name="KPOINT">    -1     0     0     0</v>
   <i type="logical" name="LTCTC"> F  </i>
   <i type="logical" name="LTCTE"> F  </i>
   <i type="logical" name="LTETE"> F  </i>
   <i type="logical" name="LTRIPLET"> F  </i>
   <i type="logical" name="LFXCEPS"> F  </i>
   <i type="logical" name="LFXHEG"> F  </i>
   <i type="int" name="NATURALO">     2</i>
   <i type="logical" name="LHOLEGF"> F  </i>
   <i type="logical" name="L2ORDER"> F  </i>
   <i type="logical" name="LDMP1"> F  </i>
   <i type="logical" name="LMP2LT"> F  </i>
   <i type="logical" name="LSMP2LT"> F  </i>
   <i type="logical" name="LGWLF"> F  </i>
   <i name="ENCUTGW">     -2.00000000</i>
   <i name="ENCUTGWSOFT">     -2.00000000</i>
   <i name="ENCUTLF">     -1.00000000</i>
   <i type="logical" name="LESF_SPLINES"> F  </i>
   <i type="int" name="LMAXMP2">    -1</i>
   <i name="SCISSOR">      0.00000000</i>
   <i type="int" name="NOMEGA">     0</i>
   <i type="int" name="NOMEGAR">     0</i>
   <i type="int" name="NBANDSGW">    -1</i>
   <i type="int" name="NBANDSO">    -1</i>
   <i type="int" name="NBANDSV">    -1</i>
   <i type="int" name="NELM">   200</i>
   <i type="int" name="NELMHF">     1</i>
   <i type="int" name="DIM">     3</i>
   <i type="int" name="IESPILON">     4</i>
   <i type="int" name="ANTIRES">     0</i>
   <i name="OMEGAMAX">    -30.00000000</i>
   <i name="OMEGAMIN">    -30.00000000</i>
   <i name="OMEGATL">   -200.00000000</i>
   <i type="int" name="OMEGAGRID">     0</i>
   <i name="CSHIFT">     -0.10000000</i>
   <i type="logical" name="LSELFENERGY"> F  </i>
   <i type="logical" name="LSPECTRAL"> F  </i>
   <i type="logical" name="LSPECTRALGW"> F  </i>
   <i type="logical" name="LSINGLES"> F  </i>
   <i type="logical" name="LFERMIGW"> F  </i>
   <i type="logical" name="ODDONLYGW"> F  </i>
   <i type="logical" name="EVENONLYGW"> F  </i>
   <i type="int" name="NKREDLFX">     1</i>
   <i type="int" name="NKREDLFY">     1</i>
   <i type="int" name="NKREDLFZ">     1</i>
   <i type="int" name="MAXMEM">  2800</i>
   <i type="int" name="TELESCOPE">     0</i>
   <i type="int" name="NTAUPAR">    -1</i>
   <i type="int" name="NOMEGAPAR">    -1</i>
   <i name="DAMP_NEWTON">      0.80000001</i>
   <i name="LAMBDA">      1.00000000</i>
  </separator>
  <separator name="External order field" >
   <i name="OFIELD_KAPPA">      0.00000000</i>
   <v name="OFIELD_K">      0.00000000      0.00000000      0.00000000</v>
   <i name="OFIELD_Q6_NEAR">      0.00000000</i>
   <i name="OFIELD_Q6_FAR">      0.00000000</i>
   <i name="OFIELD_A">      0.00000000</i>
  </separator>
 </parameters>
 <atominfo>
  <atoms>       2 </atoms>
  <types>       1 </types>
  <array name="atoms" >
   <dimension dim="1">ion</dimension>
   <field type="string">element</field>
   <field type="int">atomtype</field>
   <set>
    <rc><c>Si</c><c>   1</c></rc>
    <rc><c>Si</c><c>   1</c></rc>
   </set>
  </array>
  <array name="atomtypes" >
   <dimension dim="1">type</dimension>
   <field type="int">atomspertype</field>
   <field type="string">element</field>
   <field>mass</field>
   <field>valence</field>
   <field type="string">pseudopotential</field>
   <set>
    <rc><c>   2</c><c>Si</c><c>     28.08500000</c><c>      4.00000000</c><c>  PAW_PBE Si 05Jan2001                  </c></rc>
   </set>
  </array>
 </atominfo>
 <structure name="initialpos" >
  <crystal>
   <varray name="basis" >
    <v>       3.34889800       0.00000000       1.93348700 </v>
    <v>       1.11629900       3.15737200       1.93348700 </v>
    <v>       0.00000000       0.00000000       3.86697500 </v>
   </varray>
   <i name="volume">     40.88829843 </i>
   <varray name="rec_basis" >
    <v>       0.29860569      -0.10557300       0.00000000 </v>
    <v>       0.00000000       0.31671909       0.00000000 </v>
    <v>      -0.14930281      -0.10557302       0.25860007 </v>
   </varray>
  </crystal>
  <varray name="positions" >
   <v>       0.25000000       0.25000000       0.25000000 </v>
   <v>       0.00000000       0.00000000       0.00000000 </v>
  </varray>
 </structure>
 <calculation>
  <scstep>
   <time name="dav">    3.26    3.32</time>
   <time name="total">    3.54    3.61</time>
   <energy>
    <i name="alphaZ">      3.29317992 </i>
    <i name="ewald">   -226.94489173 </i>
    <i name="hartreedc">    -11.32339116 </i>
    <i name="XCdc">    -18.60569953 </i>
    <i name="pawpsdc">    176.18363791 </i>
    <i name="pawaedc">   -140.99252705 </i>
    <i name="eentropy">      0.00000000 </i>
    <i name="bandstr">     20.80382254 </i>
    <i name="atom">    206.13322186 </i>
    <i name="e_fr_energy">      8.54735275 </i>
    <i name="e_wo_entrp">      8.54735275 </i>
    <i name="e_0_energy">      8.54735275 </i>
   </energy>
  </scstep>
  <scstep>
   <time name="dav">    3.53    3.56</time>
   <time name="total">    3.53    3.57</time>
   <energy>
    <i name="e_fr_energy">    -10.17179675 </i>
    <i name="e_wo_entrp">    -10.17179675 </i>
    <i name="e_0_energy">    -10.17179675 </i>
   </energy>
  </scstep>
  <scstep>
   <time name="dav">    3.35    3.37</time>
   <time name="total">    3.35    3.38</time>
   <energy>
    <i name="e_fr_energy">    -10.82743076 </i>
    <i name="e_wo_entrp">    -10.82743076 </i>
    <i name="e_0_energy">    -10.82743076 </i>
   </energy>
  </scstep>
  <scstep>
   <time name="dav">    2.66    2.66</time>
   <time name="total">    2.66    2.67</time>
   <energy>
    <i name="e_fr_energy">    -10.83247512 </i>
    <i name="e_wo_entrp">    -10.83247512 </i>
    <i name="e_0_energy">    -10.83247512 </i>
   </energy>
  </scstep>
  <scstep>
   <time name="dav">    3.04    3.05</time>
   <time name="total">    3.11    3.12</time>
   <energy>
    <i name="e_fr_energy">    -10.83252711 </i>
    <i name="e_wo_entrp">    -10.83252711 </i>
    <i name="e_0_energy">    -10.83252711 </i>
   </energy>
  </scstep>
  <scstep>
   <time name="dav">    2.67    2.67</time>
   <time name="total">    2.96    2.97</time>
   <energy>
    <i name="e_fr_energy">    -10.89072827 </i>
    <i name="e_wo_entrp">    -10.89072827 </i>
    <i name="e_0_energy">    -10.89072827 </i>
   </energy>
  </scstep>
  <scstep>
   <time name="dav">    2.55    2.56</time>
   <time name="total">    2.85    2.85</time>
   <energy>
    <i name="e_fr_energy">    -10.83342597 </i>
    <i name="e_wo_entrp">    -10.83342597 </i>
    <i name="e_0_energy">    -10.83342597 </i>
   </energy>
  </scstep>
  <scstep>
   <time name="dav">    2.49    2.50</time>
   <time name="total">    2.79    2.79</time>
   <energy>
    <i name="e_fr_energy">    -10.84813161 </i>
    <i name="e_wo_entrp">    -10.84813161 </i>
    <i name="e_0_energy">    -10.84813161 </i>
   </energy>
  </scstep>
  <scstep>
   <time name="dav">    2.76    2.76</time>
   <time name="total">    3.08    3.09</time>
   <energy>
    <i name="e_fr_energy">    -10.84984398 </i>
    <i name="e_wo_entrp">    -10.84984398 </i>
    <i name="e_0_energy">    -10.84984398 </i>
   </energy>
  </scstep>
  <scstep>
   <time name="dav">    2.77    2.78</time>
   <time name="total">    3.09    3.10</time>
   <energy>
    <i name="e_fr_energy">    -10.85029183 </i>
    <i name="e_wo_entrp">    -10.85029183 </i>
    <i name="e_0_energy">    -10.85029183 </i>
   </energy>
  </scstep>
  <scstep>
   <time name="dav">    2.68    2.68</time>
   <time name="total">    2.98    2.98</time>
   <energy>
    <i name="e_fr_energy">    -10.85035124 </i>
    <i name="e_wo_entrp">    -10.85035124 </i>
    <i name="e_0_energy">    -10.85035124 </i>
   </energy>
  </scstep>
  <scstep>
   <time name="dav">    2.46    2.46</time>
   <time name="total">    2.76    2.77</time>
   <energy>
    <i name="e_fr_energy">    -10.85036694 </i>
    <i name="e_wo_entrp">    -10.85036694 </i>
    <i name="e_0_energy">    -10.85036694 </i>
   </energy>
  </scstep>
  <scstep>
   <time name="dav">    2.13    2.14</time>
   <time name="total">    2.38    2.38</time>
   <energy>
    <i name="alphaZ">      3.29317992 </i>
    <i name="ewald">   -226.94489173 </i>
    <i name="hartreedc">    -15.17278170 </i>
    <i name="XCdc">    -18.06142378 </i>
    <i name="pawpsdc">    828.40252779 </i>
    <i name="pawaedc">   -793.42129685 </i>
    <i name="eentropy">      0.00000000 </i>
    <i name="bandstr">      4.92109340 </i>
    <i name="atom">    206.13322186 </i>
    <i name="e_fr_energy">    -10.85037110 </i>
    <i name="e_wo_entrp">    -10.85037110 </i>
    <i name="e_0_energy">    -10.85037110 </i>
   </energy>
  </scstep>
  <structure>
   <crystal>
    <varray name="basis" >
     <v>       3.34889800       0.00000000       1.93348700 </v>
     <v>       1.11629900       3.15737200       1.93348700 </v>
     <v>       0.00000000       0.00000000       3.86697500 </v>
    </varray>
    <i name="volume">     40.88829843 </i>
    <varray name="rec_basis" >
     <v>       0.29860569      -0.10557300       0.00000000 </v>
     <v>       0.00000000       0.31671909       0.00000000 </v>
     <v>      -0.14930281      -0.10557302       0.25860007 </v>
    </varray>
   </crystal>
   <varray name="positions" >
    <v>       0.25000000       0.25000000       0.25000000 </v>
    <v>       0.00000000       0.00000000       0.00000000 </v>
   </varray>
  </structure>
  <varray name="forces" >
   <v>       0.00000000      -0.00000000      -0.00000000 </v>
   <v>      -0.00000000       0.00000000       0.00000000 </v>
  </varray>
  <varray name="stress" >
   <v>      -0.07424493       0.00000001       0.00000001 </v>
   <v>       0.00000001      -0.07424496       0.00000001 </v>
   <v>       0.00000001       0.00000001      -0.07424496 </v>
  </varray>
  <energy>
   <i name="e_fr_energy">    -10.85037110 </i>
   <i name="e_wo_entrp">    -10.85037110 </i>
   <i name="e_0_energy">    -10.85037110 </i>
  </energy>
  <time name="totalsc">   43.15   43.37</time>
  <eigenvalues>
   <array>
    <dimension dim="1">band</dimension>
    <dimension dim="2">kpoint</dimension>
    <dimension dim="3">spin</dimension>
    <field>eigene</field>
    <field>occ</field>
    <set>
     <set comment="spin 1">
      <set comment="kpoint 1">
       <r>   -6.1987    1.0000 </r>
       <r>    5.6163    1.0000 </r>
       <r>    5.6163    1.0000 </r>
       <r>    5.6163    1.0000 </r>
       <r>    8.1731    0.0000 </r>
       <r>    8.1731    0.0000 </r>
       <r>    8.1731    0.0000 </r>
       <r>    8.7493    0.0000 </r>
       <r>   13.3254    0.0000 </r>
       <r>   13.3254    0.0000 </r>
       <r>   13.4919    0.0000 </r>
       <r>   16.7981    0.0000 </r>
      </set>
      <set comment="kpoint 2">
       <r>   -6.0701    1.0000 </r>
       <r>    4.4741    1.0000 </r>
       <r>    5.4225    1.0000 </r>
       <r>    5.4225    1.0000 </r>
       <r>    8.1388    0.0000 </r>
       <r>    8.4589    0.0000 </r>
       <r>    8.4589    0.0000 </r>
       <r>    9.7197    0.0000 </r>
       <r>   12.9756    0.0000 </r>
       <r>   12.9756    0.0000 </r>
       <r>   14.0217    0.0000 </r>
       <r>   16.3788    0.0000 </r>
      </set>
      <set comment="kpoint 3">
       <r>   -5.6907    1.0000 </r>
       <r>    2.6342    1.0000 </r>
       <r>    5.0488    1.0000 </r>
       <r>    5.0488    1.0000 </r>
       <r>    7.7683    0.0000 </r>
       <r>    8.9607    0.0000 </r>
       <r>    8.9607    0.0000 </r>
       <r>   11.4943    0.0000 </r>
       <r>   12.6648    0.0000 </r>
       <r>   12.6648    0.0000 </r>
       <r>   14.6909    0.0000 </r>
       <r>   16.4728    0.0000 </r>
      </set>
      <set comment="kpoint 4">
       <r>   -5.0874    1.0000 </r>
       <r>    0.8761    1.0000 </r>
       <r>    4.7187    1.0000 </r>
       <r>    4.7187    1.0000 </r>
       <r>    7.4046    0.0000 </r>
       <r>    9.1413    0.0000 </r>
       <r>    9.1413    0.0000 </r>
       <r>   13.1161    0.0000 </r>
       <r>   13.1905    0.0000 </r>
       <r>   13.1905    0.0000 </r>
       <r>   14.4377    0.0000 </r>
       <r>   18.3847    0.0000 </r>
      </set>
      <set comment="kpoint 5">
       <r>   -4.3576    1.0000 </r>
       <r>   -0.5721    1.0000 </r>
       <r>    4.5088    1.0000 </r>
       <r>    4.5088    1.0000 </r>
       <r>    7.1646    0.0000 </r>
       <r>    9.0368    0.0000 </r>
       <r>    9.0368    0.0000 </r>
       <r>   13.4202    0.0000 </r>
       <r>   14.5528    0.0000 </r>
       <r>   14.5528    0.0000 </r>
       <r>   15.5284    0.0000 </r>
       <r>   18.6871    0.0000 </r>
      </set>
      <set comment="kpoint 6">
       <r>   -3.9200    1.0000 </r>
       <r>   -1.2526    1.0000 </r>
       <r>    4.4379    1.0000 </r>
       <r>    4.4379    1.0000 </r>
       <r>    7.0823    0.0000 </r>
       <r>    8.9657    0.0000 </r>
       <r>    8.9657    0.0000 </r>
       <r>   13.3172    0.0000 </r>
       <r>   16.1114    0.0000 </r>
       <r>   16.1114    0.0000 </r>
       <r>   16.7970    0.0000 </r>
       <r>   16.8360    0.0000 </r>
      </set>
      <set comment="kpoint 7">
       <r>   -6.0270    1.0000 </r>
       <r>    4.6605    1.0000 </r>
       <r>    5.0548    1.0000 </r>
       <r>    5.0548    1.0000 </r>
       <r>    7.8013    0.0000 </r>
       <r>    8.9455    0.0000 </r>
       <r>    8.9455    0.0000 </r>
       <r>    9.6041    0.0000 </r>
       <r>   12.3528    0.0000 </r>
       <r>   13.5163    0.0000 </r>
       <r>   14.2037    0.0000 </r>
       <r>   17.0976    0.0000 </r>
      </set>
      <set comment="kpoint 8">
       <r>   -5.7299    1.0000 </r>
       <r>    3.1746    1.0000 </r>
       <r>    4.6283    1.0000 </r>
       <r>    4.7862    1.0000 </r>
       <r>    7.8554    0.0000 </r>
       <r>    8.9544    0.0000 </r>
       <r>    9.5892    0.0000 </r>
       <r>   10.5287    0.0000 </r>
       <r>   12.3086    0.0000 </r>
       <r>   13.5061    0.0000 </r>
       <r>   15.0994    0.0000 </r>
       <r>   16.7084    0.0000 </r>
      </set>
      <set comment="kpoint 9">
       <r>   -5.1967    1.0000 </r>
       <r>    1.4439    1.0000 </r>
       <r>    4.3141    1.0000 </r>
       <r>    4.3584    1.0000 </r>
       <r>    7.9633    0.0000 </r>
       <r>    8.9578    0.0000 </r>
       <r>    9.8761    0.0000 </r>
       <r>   10.9178    0.0000 </r>
       <r>   13.7386    0.0000 </r>
       <r>   13.8855    0.0000 </r>
       <r>   15.1061    0.0000 </r>
       <r>   17.8387    0.0000 </r>
      </set>
      <set comment="kpoint 10">
       <r>   -4.4882    1.0000 </r>
       <r>   -0.1002    1.0000 </r>
       <r>    3.9532    1.0000 </r>
       <r>    4.1676    1.0000 </r>
       <r>    7.8063    0.0000 </r>
       <r>    8.9459    0.0000 </r>
       <r>    9.7124    0.0000 </r>
       <r>   11.9626    0.0000 </r>
       <r>   14.5220    0.0000 </r>
       <r>   15.0963    0.0000 </r>
       <r>   15.6923    0.0000 </r>
       <r>   18.4260    0.0000 </r>
      </set>
      <set comment="kpoint 11">
       <r>   -3.8652    1.0000 </r>
       <r>   -1.1132    1.0000 </r>
       <r>    3.6687    1.0000 </r>
       <r>    4.1983    1.0000 </r>
       <r>    7.7129    0.0000 </r>
       <r>    8.9266    0.0000 </r>
       <r>    9.4556    0.0000 </r>
       <r>   13.3556    0.0000 </r>
       <r>   14.4704    0.0000 </r>
       <r>   16.0492    0.0000 </r>
       <r>   16.9313    0.0000 </r>
       <r>   17.0550    0.0000 </r>
      </set>
      <set comment="kpoint 12">
       <r>   -4.0272    1.0000 </r>
       <r>   -0.8710    1.0000 </r>
       <r>    3.5448    1.0000 </r>
       <r>    4.3931    1.0000 </r>
       <r>    7.7677    0.0000 </r>
       <r>    9.0608    0.0000 </r>
       <r>    9.3027    0.0000 </r>
       <r>   13.6069    0.0000 </r>
       <r>   14.1729    0.0000 </r>
       <r>   14.8307    0.0000 </r>
       <r>   16.6514    0.0000 </r>
       <r>   17.6703    0.0000 </r>
      </set>
      <set comment="kpoint 13">
       <r>   -4.7379    1.0000 </r>
       <r>    0.3841    1.0000 </r>
       <r>    3.6070    1.0000 </r>
       <r>    4.7210    1.0000 </r>
       <r>    7.9671    0.0000 </r>
       <r>    9.2256    0.0000 </r>
       <r>    9.3043    0.0000 </r>
       <r>   12.5465    0.0000 </r>
       <r>   12.6690    0.0000 </r>
       <r>   14.9044    0.0000 </r>
       <r>   15.8054    0.0000 </r>
       <r>   18.2423    0.0000 </r>
      </set>
      <set comment="kpoint 14">
       <r>   -5.4001    1.0000 </r>
       <r>    2.0036    1.0000 </r>
       <r>    3.8823    1.0000 </r>
       <r>    5.1195    1.0000 </r>
       <r>    8.2746    0.0000 </r>
       <r>    8.9728    0.0000 </r>
       <r>    9.2997    0.0000 </r>
       <r>   11.4862    0.0000 </r>
       <r>   11.9760    0.0000 </r>
       <r>   14.1461    0.0000 </r>
       <r>   15.3096    0.0000 </r>
       <r>   17.1335    0.0000 </r>
      </set>
      <set comment="kpoint 15">
       <r>   -5.8574    1.0000 </r>
       <r>    3.5893    1.0000 </r>
       <r>    4.4852    1.0000 </r>
       <r>    5.4409    1.0000 </r>
       <r>    8.5270    0.0000 </r>
       <r>    8.5276    0.0000 </r>
       <r>    8.7056    0.0000 </r>
       <r>   10.6654    0.0000 </r>
       <r>   12.2327    0.0000 </r>
       <r>   13.2309    0.0000 </r>
       <r>   14.7600    0.0000 </r>
       <r>   16.6431    0.0000 </r>
      </set>
      <set comment="kpoint 16">
       <r>   -5.5157    1.0000 </r>
       <r>    2.9814    1.0000 </r>
       <r>    4.1620    1.0000 </r>
       <r>    4.1620    1.0000 </r>
       <r>    7.0922    0.0000 </r>
       <r>    9.4689    0.0000 </r>
       <r>   10.4574    0.0000 </r>
       <r>   10.4574    0.0000 </r>
       <r>   12.5547    0.0000 </r>
       <r>   14.0884    0.0000 </r>
       <r>   15.8993    0.0000 </r>
       <r>   17.9631    0.0000 </r>
      </set>
      <set comment="kpoint 17">
       <r>   -5.0585    1.0000 </r>
       <r>    1.7591    1.0000 </r>
       <r>    3.6595    1.0000 </r>
       <r>    3.8197    1.0000 </r>
       <r>    7.1880    0.0000 </r>
       <r>    9.0606    0.0000 </r>
       <r>   10.7073    0.0000 </r>
       <r>   11.0456    0.0000 </r>
       <r>   14.0205    0.0000 </r>
       <r>   14.5493    0.0000 </r>
       <r>   16.6054    0.0000 </r>
       <r>   18.0847    0.0000 </r>
      </set>
      <set comment="kpoint 18">
       <r>   -4.3967    1.0000 </r>
       <r>    0.3526    1.0000 </r>
       <r>    3.0394    1.0000 </r>
       <r>    3.6619    1.0000 </r>
       <r>    7.4028    0.0000 </r>
       <r>    9.6855    0.0000 </r>
       <r>   10.4765    0.0000 </r>
       <r>   11.0122    0.0000 </r>
       <r>   15.6677    0.0000 </r>
       <r>   15.9046    0.0000 </r>
       <r>   16.2409    0.0000 </r>
       <r>   18.2947    0.0000 </r>
      </set>
      <set comment="kpoint 19">
       <r>   -3.6836    1.0000 </r>
       <r>   -0.8037    1.0000 </r>
       <r>    2.5380    1.0000 </r>
       <r>    3.7038    1.0000 </r>
       <r>    7.4664    0.0000 </r>
       <r>   10.2575    0.0000 </r>
       <r>   10.6949    0.0000 </r>
       <r>   11.2114    0.0000 </r>
       <r>   15.3048    0.0000 </r>
       <r>   16.0307    0.0000 </r>
       <r>   17.4775    0.0000 </r>
       <r>   17.5767    0.0000 </r>
      </set>
      <set comment="kpoint 20">
       <r>   -3.5358    1.0000 </r>
       <r>   -1.0057    1.0000 </r>
       <r>    2.2468    1.0000 </r>
       <r>    3.9365    1.0000 </r>
       <r>    7.6742    0.0000 </r>
       <r>   10.1626    0.0000 </r>
       <r>   10.3967    0.0000 </r>
       <r>   13.1105    0.0000 </r>
       <r>   13.8855    0.0000 </r>
       <r>   14.0102    0.0000 </r>
       <r>   17.1311    0.0000 </r>
       <r>   19.5362    0.0000 </r>
      </set>
      <set comment="kpoint 21">
       <r>   -4.1724    1.0000 </r>
       <r>   -0.0438    1.0000 </r>
       <r>    2.2321    1.0000 </r>
       <r>    4.3252    1.0000 </r>
       <r>    8.0563    0.0000 </r>
       <r>   10.1207    0.0000 </r>
       <r>   10.1775    0.0000 </r>
       <r>   12.2334    0.0000 </r>
       <r>   12.4285    0.0000 </r>
       <r>   15.0683    0.0000 </r>
       <r>   17.4369    0.0000 </r>
       <r>   18.4616    0.0000 </r>
      </set>
      <set comment="kpoint 22">
       <r>   -4.8751    1.0000 </r>
       <r>    1.1696    1.0000 </r>
       <r>    2.6828    1.0000 </r>
       <r>    4.7853    1.0000 </r>
       <r>    8.4669    0.0000 </r>
       <r>    9.5818    0.0000 </r>
       <r>    9.8854    0.0000 </r>
       <r>   11.2726    0.0000 </r>
       <r>   11.7476    0.0000 </r>
       <r>   16.2180    0.0000 </r>
       <r>   16.2399    0.0000 </r>
       <r>   17.4448    0.0000 </r>
      </set>
      <set comment="kpoint 23">
       <r>   -4.6773    1.0000 </r>
       <r>    1.2120    1.0000 </r>
       <r>    3.4341    1.0000 </r>
       <r>    3.4341    1.0000 </r>
       <r>    6.5052    0.0000 </r>
       <r>    8.0520    0.0000 </r>
       <r>   12.1875    0.0000 </r>
       <r>   12.1875    0.0000 </r>
       <r>   14.5234    0.0000 </r>
       <r>   15.0395    0.0000 </r>
       <r>   17.9333    0.0000 </r>
       <r>   18.9817    0.0000 </r>
      </set>
      <set comment="kpoint 24">
       <r>   -4.0761    1.0000 </r>
       <r>    0.2234    1.0000 </r>
       <r>    2.8227    1.0000 </r>
       <r>    3.2325    1.0000 </r>
       <r>    6.6926   -0.0000 </r>
       <r>    7.8814    0.0000 </r>
       <r>   12.4713    0.0000 </r>
       <r>   12.6120    0.0000 </r>
       <r>   16.0254    0.0000 </r>
       <r>   16.1572    0.0000 </r>
       <r>   17.6368    0.0000 </r>
       <r>   18.3022    0.0000 </r>
      </set>
      <set comment="kpoint 25">
       <r>   -3.3422    1.0000 </r>
       <r>   -0.7623    1.0000 </r>
       <r>    2.0129    1.0000 </r>
       <r>    3.2384    1.0000 </r>
       <r>    6.8739    0.0000 </r>
       <r>    8.9921    0.0000 </r>
       <r>   12.2856    0.0000 </r>
       <r>   12.3739    0.0000 </r>
       <r>   15.9668    0.0000 </r>
       <r>   16.1605    0.0000 </r>
       <r>   17.7915    0.0000 </r>
       <r>   18.2673    0.0000 </r>
      </set>
      <set comment="kpoint 26">
       <r>   -2.9362    1.0000 </r>
       <r>   -1.2242    1.0000 </r>
       <r>    1.4722    1.0000 </r>
       <r>    3.4492    1.0000 </r>
       <r>    7.1019    0.0000 </r>
       <r>   10.7768    0.0000 </r>
       <r>   11.9785    0.0000 </r>
       <r>   12.1253    0.0000 </r>
       <r>   14.0201    0.0000 </r>
       <r>   14.0956    0.0000 </r>
       <r>   19.2228    0.0000 </r>
       <r>   19.9096    0.0000 </r>
      </set>
      <set comment="kpoint 27">
       <r>   -3.4618    1.0000 </r>
       <r>   -0.6465    1.0000 </r>
       <r>    1.4478    1.0000 </r>
       <r>    3.8372    1.0000 </r>
       <r>    7.5343    0.0000 </r>
       <r>   11.3103    0.0000 </r>
       <r>   11.6208    0.0000 </r>
       <r>   12.3428    0.0000 </r>
       <r>   12.7048    0.0000 </r>
       <r>   13.0796    0.0000 </r>
       <r>   19.1359    0.0000 </r>
       <r>   19.7199    0.0000 </r>
      </set>
      <set comment="kpoint 28">
       <r>   -3.5356    1.0000 </r>
       <r>   -0.5211    1.0000 </r>
       <r>    2.9771    1.0000 </r>
       <r>    2.9771    1.0000 </r>
       <r>    6.2335    0.0000 </r>
       <r>    6.9651    0.0000 </r>
       <r>   14.0167    0.0000 </r>
       <r>   14.0167    0.0000 </r>
       <r>   16.3655    0.0000 </r>
       <r>   16.6067    0.0000 </r>
       <r>   18.0785    0.0000 </r>
       <r>   18.0785    0.0000 </r>
      </set>
      <set comment="kpoint 29">
       <r>   -2.8210    1.0000 </r>
       <r>   -1.3472    1.0000 </r>
       <r>    2.4081    1.0000 </r>
       <r>    2.9292    1.0000 </r>
       <r>    6.4693   -0.0000 </r>
       <r>    7.2146    0.0000 </r>
       <r>   14.2661    0.0000 </r>
       <r>   14.3428    0.0000 </r>
       <r>   16.3066    0.0000 </r>
       <r>   16.3972    0.0000 </r>
       <r>   17.8194    0.0000 </r>
       <r>   18.2360    0.0000 </r>
      </set>
      <set comment="kpoint 30">
       <r>   -2.3603    1.0000 </r>
       <r>   -1.7571    1.0000 </r>
       <r>    1.6470    1.0000 </r>
       <r>    3.0930    1.0000 </r>
       <r>    6.6794    0.0000 </r>
       <r>    8.7646    0.0000 </r>
       <r>   13.6131    0.0000 </r>
       <r>   14.1878    0.0000 </r>
       <r>   14.1889    0.0000 </r>
       <r>   14.6435    0.0000 </r>
       <r>   19.7104    0.0000 </r>
       <r>   19.8660    0.0000 </r>
      </set>
      <set comment="kpoint 31">
       <r>   -2.1302    1.0000 </r>
       <r>   -2.1302    1.0000 </r>
       <r>    2.8222    1.0000 </r>
       <r>    2.8222    1.0000 </r>
       <r>    6.3672    0.0000 </r>
       <r>    6.3672    0.0000 </r>
       <r>   15.5528    0.0000 </r>
       <r>   15.5528    0.0000 </r>
       <r>   16.5232    0.0000 </r>
       <r>   16.5232    0.0000 </r>
       <r>   18.0594    0.0000 </r>
       <r>   18.0595    0.0000 </r>
      </set>
      <set comment="kpoint 32">
       <r>   -5.3536    1.0000 </r>
       <r>    2.2545    1.0000 </r>
       <r>    3.5834    1.0000 </r>
       <r>    4.6610    1.0000 </r>
       <r>    7.9610    0.0000 </r>
       <r>    9.2651    0.0000 </r>
       <r>   10.2141    0.0000 </r>
       <r>   10.2351    0.0000 </r>
       <r>   12.7729    0.0000 </r>
       <r>   14.3539    0.0000 </r>
       <r>   16.0252    0.0000 </r>
       <r>   17.1806    0.0000 </r>
      </set>
      <set comment="kpoint 33">
       <r>   -4.7540    1.0000 </r>
       <r>    0.8721    1.0000 </r>
       <r>    2.9997    1.0000 </r>
       <r>    4.2953    1.0000 </r>
       <r>    8.3009    0.0000 </r>
       <r>    9.1829    0.0000 </r>
       <r>   10.3076    0.0000 </r>
       <r>   10.7005    0.0000 </r>
       <r>   13.4293    0.0000 </r>
       <r>   15.9414    0.0000 </r>
       <r>   16.1601    0.0000 </r>
       <r>   17.9568    0.0000 </r>
      </set>
      <set comment="kpoint 34">
       <r>   -4.0241    1.0000 </r>
       <r>   -0.4608    1.0000 </r>
       <r>    2.7658    1.0000 </r>
       <r>    3.9545    1.0000 </r>
       <r>    8.3392    0.0000 </r>
       <r>    8.8936    0.0000 </r>
       <r>   10.6275    0.0000 </r>
       <r>   11.6285    0.0000 </r>
       <r>   14.7277    0.0000 </r>
       <r>   15.0930    0.0000 </r>
       <r>   16.9626    0.0000 </r>
       <r>   18.1179    0.0000 </r>
      </set>
      <set comment="kpoint 35">
       <r>   -3.5787    1.0000 </r>
       <r>   -1.1204    1.0000 </r>
       <r>    2.7045    1.0000 </r>
       <r>    3.8206    1.0000 </r>
       <r>    8.3518    0.0000 </r>
       <r>    8.7301    0.0000 </r>
       <r>   10.5906    0.0000 </r>
       <r>   13.3466    0.0000 </r>
       <r>   13.3900    0.0000 </r>
       <r>   15.6907    0.0000 </r>
       <r>   17.0489    0.0000 </r>
       <r>   17.5202    0.0000 </r>
      </set>
      <set comment="kpoint 36">
       <r>   -4.5309    1.0000 </r>
       <r>    0.8660    1.0000 </r>
       <r>    2.8705    1.0000 </r>
       <r>    3.5754    1.0000 </r>
       <r>    7.4025    0.0000 </r>
       <r>    8.6822    0.0000 </r>
       <r>   10.7566    0.0000 </r>
       <r>   12.0802    0.0000 </r>
       <r>   14.4313    0.0000 </r>
       <r>   16.2202    0.0000 </r>
       <r>   17.0599    0.0000 </r>
       <r>   18.3509    0.0000 </r>
      </set>
      <set comment="kpoint 37">
       <r>   -3.8257    1.0000 </r>
       <r>   -0.2143    1.0000 </r>
       <r>    2.2619    1.0000 </r>
       <r>    3.2561    1.0000 </r>
       <r>    7.7830    0.0000 </r>
       <r>    9.3686    0.0000 </r>
       <r>   10.3825    0.0000 </r>
       <r>   12.4716    0.0000 </r>
       <r>   15.5041    0.0000 </r>
       <r>   15.5343    0.0000 </r>
       <r>   18.0105    0.0000 </r>
       <r>   18.3506    0.0000 </r>
      </set>
      <set comment="kpoint 38">
       <r>   -3.1928    1.0000 </r>
       <r>   -1.0542    1.0000 </r>
       <r>    1.8596    1.0000 </r>
       <r>    3.2019    1.0000 </r>
       <r>    7.9628    0.0000 </r>
       <r>    9.9554    0.0000 </r>
       <r>   11.0785    0.0000 </r>
       <r>   12.3997    0.0000 </r>
       <r>   13.4812    0.0000 </r>
       <r>   16.3751    0.0000 </r>
       <r>   17.4582    0.0000 </r>
       <r>   18.5750    0.0000 </r>
      </set>
      <set comment="kpoint 39">
       <r>   -3.3891    1.0000 </r>
       <r>   -0.8017    1.0000 </r>
       <r>    1.7150    1.0000 </r>
       <r>    3.4357    1.0000 </r>
       <r>    8.2963    0.0000 </r>
       <r>    9.7009    0.0000 </r>
       <r>   11.5077    0.0000 </r>
       <r>   12.2848    0.0000 </r>
       <r>   13.1434    0.0000 </r>
       <r>   14.6914    0.0000 </r>
       <r>   18.2966    0.0000 </r>
       <r>   19.5416    0.0000 </r>
      </set>
      <set comment="kpoint 40">
       <r>   -4.1074    1.0000 </r>
       <r>    0.1272    1.0000 </r>
       <r>    2.0131    1.0000 </r>
       <r>    3.8648    1.0000 </r>
       <r>    8.7753    0.0000 </r>
       <r>    9.2539    0.0000 </r>
       <r>   10.3007    0.0000 </r>
       <r>   11.8086    0.0000 </r>
       <r>   13.4895    0.0000 </r>
       <r>   15.2386    0.0000 </r>
       <r>   18.2858    0.0000 </r>
       <r>   18.6358    0.0000 </r>
      </set>
      <set comment="kpoint 41">
       <r>   -3.4207    1.0000 </r>
       <r>   -0.6063    1.0000 </r>
       <r>    2.4679    1.0000 </r>
       <r>    2.7891    1.0000 </r>
       <r>    7.1190   -0.0000 </r>
       <r>    7.7122    0.0000 </r>
       <r>   12.2895    0.0000 </r>
       <r>   14.0029    0.0000 </r>
       <r>   15.9494    0.0000 </r>
       <r>   16.2611    0.0000 </r>
       <r>   18.0290    0.0000 </r>
       <r>   18.5243    0.0000 </r>
      </set>
      <set comment="kpoint 42">
       <r>   -2.6993    1.0000 </r>
       <r>   -1.3670    1.0000 </r>
       <r>    1.7861    1.0000 </r>
       <r>    2.7000    1.0000 </r>
       <r>    7.4692    0.0000 </r>
       <r>    8.8938    0.0000 </r>
       <r>   11.8952    0.0000 </r>
       <r>   13.6511    0.0000 </r>
       <r>   14.4412    0.0000 </r>
       <r>   16.5083    0.0000 </r>
       <r>   17.8330    0.0000 </r>
       <r>   19.8723    0.0000 </r>
      </set>
      <set comment="kpoint 43">
       <r>   -2.7086    1.0000 </r>
       <r>   -1.3375    1.0000 </r>
       <r>    1.3809    1.0000 </r>
       <r>    2.9634    1.0000 </r>
       <r>    7.7906    0.0000 </r>
       <r>   10.7113    0.0000 </r>
       <r>   11.4934    0.0000 </r>
       <r>   11.8317    0.0000 </r>
       <r>   13.9212    0.0000 </r>
       <r>   15.0080    0.0000 </r>
       <r>   19.3165    0.0000 </r>
       <r>   20.4319    0.0000 </r>
      </set>
      <set comment="kpoint 44">
       <r>   -2.0799    1.0000 </r>
       <r>   -2.0799    1.0000 </r>
       <r>    2.4270    1.0000 </r>
       <r>    2.4270    1.0000 </r>
       <r>    7.2020    0.0000 </r>
       <r>    7.2020    0.0000 </r>
       <r>   14.0029    0.0000 </r>
       <r>   14.0029    0.0000 </r>
       <r>   16.0842    0.0000 </r>
       <r>   16.0842    0.0000 </r>
       <r>   18.2948    0.0000 </r>
       <r>   18.2948    0.0000 </r>
      </set>
      <set comment="kpoint 45">
       <r>   -3.1092    1.0000 </r>
       <r>   -0.8983    1.0000 </r>
       <r>    1.7272    1.0000 </r>
       <r>    2.6943    1.0000 </r>
       <r>    8.9984    0.0000 </r>
       <r>    9.3955    0.0000 </r>
       <r>    9.9876    0.0000 </r>
       <r>   13.3192    0.0000 </r>
       <r>   13.9731    0.0000 </r>
       <r>   15.6966    0.0000 </r>
       <r>   18.7516    0.0000 </r>
       <r>   19.9007    0.0000 </r>
      </set>
      <set comment="kpoint 46">
       <r>   -2.6107    1.0000 </r>
       <r>   -1.3976    1.0000 </r>
       <r>    1.5739    1.0000 </r>
       <r>    2.4494    1.0000 </r>
       <r>    9.2917    0.0000 </r>
       <r>    9.5683    0.0000 </r>
       <r>   10.9780    0.0000 </r>
       <r>   11.3843    0.0000 </r>
       <r>   14.4129    0.0000 </r>
       <r>   16.6653    0.0000 </r>
       <r>   17.6999    0.0000 </r>
       <r>   19.8824    0.0000 </r>
      </set>
      <set comment="kpoint 47">
       <r>   -1.9916    1.0000 </r>
       <r>   -1.9916    1.0000 </r>
       <r>    1.9300    1.0000 </r>
       <r>    1.9300    1.0000 </r>
       <r>    9.0413    0.0000 </r>
       <r>    9.0413    0.0000 </r>
       <r>   11.4779    0.0000 </r>
       <r>   11.4779    0.0000 </r>
       <r>   16.0665    0.0000 </r>
       <r>   16.0665    0.0000 </r>
       <r>   18.4566    0.0000 </r>
       <r>   18.4566    0.0000 </r>
      </set>
     </set>
     <set comment="spin 2">
      <set comment="kpoint 1">
       <r>   -6.1989    1.0000 </r>
       <r>    5.6159    1.0000 </r>
       <r>    5.6159    1.0000 </r>
       <r>    5.6159    1.0000 </r>
       <r>    8.1730    0.0000 </r>
       <r>    8.1730    0.0000 </r>
       <r>    8.1730    0.0000 </r>
       <r>    8.7491    0.0000 </r>
       <r>   13.3253    0.0000 </r>
       <r>   13.3253    0.0000 </r>
       <r>   13.4933    0.0000 </r>
       <r>   16.7986    0.0000 </r>
      </set>
      <set comment="kpoint 2">
       <r>   -6.0703    1.0000 </r>
       <r>    4.4738    1.0000 </r>
       <r>    5.4221    1.0000 </r>
       <r>    5.4221    1.0000 </r>
       <r>    8.1387    0.0000 </r>
       <r>    8.4587    0.0000 </r>
       <r>    8.4587    0.0000 </r>
       <r>    9.7194    0.0000 </r>
       <r>   12.9755    0.0000 </r>
       <r>   12.9756    0.0000 </r>
       <r>   14.0230    0.0000 </r>
       <r>   16.3795    0.0000 </r>
      </set>
      <set comment="kpoint 3">
       <r>   -5.6909    1.0000 </r>
       <r>    2.6339    1.0000 </r>
       <r>    5.0484    1.0000 </r>
       <r>    5.0484    1.0000 </r>
       <r>    7.7683    0.0000 </r>
       <r>    8.9606    0.0000 </r>
       <r>    8.9606    0.0000 </r>
       <r>   11.4941    0.0000 </r>
       <r>   12.6648    0.0000 </r>
       <r>   12.6648    0.0000 </r>
       <r>   14.6920    0.0000 </r>
       <r>   16.4737    0.0000 </r>
      </set>
      <set comment="kpoint 4">
       <r>   -5.0876    1.0000 </r>
       <r>    0.8759    1.0000 </r>
       <r>    4.7183    1.0000 </r>
       <r>    4.7183    1.0000 </r>
       <r>    7.4046    0.0000 </r>
       <r>    9.1412    0.0000 </r>
       <r>    9.1412    0.0000 </r>
       <r>   13.1163    0.0000 </r>
       <r>   13.1905    0.0000 </r>
       <r>   13.1905    0.0000 </r>
       <r>   14.4387    0.0000 </r>
       <r>   18.3854    0.0000 </r>
      </set>
      <set comment="kpoint 5">
       <r>   -4.3579    1.0000 </r>
       <r>   -0.5723    1.0000 </r>
       <r>    4.5085    1.0000 </r>
       <r>    4.5085    1.0000 </r>
       <r>    7.1647    0.0000 </r>
       <r>    9.0368    0.0000 </r>
       <r>    9.0368    0.0000 </r>
       <r>   13.4212    0.0000 </r>
       <r>   14.5527    0.0000 </r>
       <r>   14.5527    0.0000 </r>
       <r>   15.5287    0.0000 </r>
       <r>   18.6869    0.0000 </r>
      </set>
      <set comment="kpoint 6">
       <r>   -3.9203    1.0000 </r>
       <r>   -1.2527    1.0000 </r>
       <r>    4.4376    1.0000 </r>
       <r>    4.4376    1.0000 </r>
       <r>    7.0823    0.0000 </r>
       <r>    8.9656    0.0000 </r>
       <r>    8.9656    0.0000 </r>
       <r>   13.3183    0.0000 </r>
       <r>   16.1112    0.0000 </r>
       <r>   16.1112    0.0000 </r>
       <r>   16.7973    0.0000 </r>
       <r>   16.8360    0.0000 </r>
      </set>
      <set comment="kpoint 7">
       <r>   -6.0272    1.0000 </r>
       <r>    4.6601    1.0000 </r>
       <r>    5.0545    1.0000 </r>
       <r>    5.0545    1.0000 </r>
       <r>    7.8012    0.0000 </r>
       <r>    8.9453    0.0000 </r>
       <r>    8.9453    0.0000 </r>
       <r>    9.6039    0.0000 </r>
       <r>   12.3529    0.0000 </r>
       <r>   13.5162    0.0000 </r>
       <r>   14.2050    0.0000 </r>
       <r>   17.0981    0.0000 </r>
      </set>
      <set comment="kpoint 8">
       <r>   -5.7301    1.0000 </r>
       <r>    3.1743    1.0000 </r>
       <r>    4.6280    1.0000 </r>
       <r>    4.7859    1.0000 </r>
       <r>    7.8554    0.0000 </r>
       <r>    8.9542    0.0000 </r>
       <r>    9.5890    0.0000 </r>
       <r>   10.5287    0.0000 </r>
       <r>   12.3085    0.0000 </r>
       <r>   13.5060    0.0000 </r>
       <r>   15.1005    0.0000 </r>
       <r>   16.7092    0.0000 </r>
      </set>
      <set comment="kpoint 9">
       <r>   -5.1969    1.0000 </r>
       <r>    1.4437    1.0000 </r>
       <r>    4.3137    1.0000 </r>
       <r>    4.3581    1.0000 </r>
       <r>    7.9633    0.0000 </r>
       <r>    8.9577    0.0000 </r>
       <r>    9.8759    0.0000 </r>
       <r>   10.9180    0.0000 </r>
       <r>   13.7385    0.0000 </r>
       <r>   13.8855    0.0000 </r>
       <r>   15.1071    0.0000 </r>
       <r>   17.8396    0.0000 </r>
      </set>
      <set comment="kpoint 10">
       <r>   -4.4884    1.0000 </r>
       <r>   -0.1004    1.0000 </r>
       <r>    3.9529    1.0000 </r>
       <r>    4.1673    1.0000 </r>
       <r>    7.8064    0.0000 </r>
       <r>    8.9458    0.0000 </r>
       <r>    9.7123    0.0000 </r>
       <r>   11.9627    0.0000 </r>
       <r>   14.5228    0.0000 </r>
       <r>   15.0962    0.0000 </r>
       <r>   15.6924    0.0000 </r>
       <r>   18.4258    0.0000 </r>
      </set>
      <set comment="kpoint 11">
       <r>   -3.8655    1.0000 </r>
       <r>   -1.1133    1.0000 </r>
       <r>    3.6684    1.0000 </r>
       <r>    4.1980    1.0000 </r>
       <r>    7.7129    0.0000 </r>
       <r>    8.9266    0.0000 </r>
       <r>    9.4556    0.0000 </r>
       <r>   13.3560    0.0000 </r>
       <r>   14.4709    0.0000 </r>
       <r>   16.0491    0.0000 </r>
       <r>   16.9316    0.0000 </r>
       <r>   17.0549    0.0000 </r>
      </set>
      <set comment="kpoint 12">
       <r>   -4.0275    1.0000 </r>
       <r>   -0.8711    1.0000 </r>
       <r>    3.5445    1.0000 </r>
       <r>    4.3928    1.0000 </r>
       <r>    7.7676    0.0000 </r>
       <r>    9.0609    0.0000 </r>
       <r>    9.3026    0.0000 </r>
       <r>   13.6075    0.0000 </r>
       <r>   14.1729    0.0000 </r>
       <r>   14.8310    0.0000 </r>
       <r>   16.6516    0.0000 </r>
       <r>   17.6703    0.0000 </r>
      </set>
      <set comment="kpoint 13">
       <r>   -4.7382    1.0000 </r>
       <r>    0.3839    1.0000 </r>
       <r>    3.6068    1.0000 </r>
       <r>    4.7206    1.0000 </r>
       <r>    7.9670    0.0000 </r>
       <r>    9.2255    0.0000 </r>
       <r>    9.3043    0.0000 </r>
       <r>   12.5466    0.0000 </r>
       <r>   12.6690    0.0000 </r>
       <r>   14.9053    0.0000 </r>
       <r>   15.8053    0.0000 </r>
       <r>   18.2426    0.0000 </r>
      </set>
      <set comment="kpoint 14">
       <r>   -5.4003    1.0000 </r>
       <r>    2.0033    1.0000 </r>
       <r>    3.8821    1.0000 </r>
       <r>    5.1190    1.0000 </r>
       <r>    8.2745    0.0000 </r>
       <r>    8.9727    0.0000 </r>
       <r>    9.2996    0.0000 </r>
       <r>   11.4863    0.0000 </r>
       <r>   11.9761    0.0000 </r>
       <r>   14.1460    0.0000 </r>
       <r>   15.3105    0.0000 </r>
       <r>   17.1343    0.0000 </r>
      </set>
      <set comment="kpoint 15">
       <r>   -5.8576    1.0000 </r>
       <r>    3.5889    1.0000 </r>
       <r>    4.4849    1.0000 </r>
       <r>    5.4405    1.0000 </r>
       <r>    8.5268    0.0000 </r>
       <r>    8.5274    0.0000 </r>
       <r>    8.7056    0.0000 </r>
       <r>   10.6652    0.0000 </r>
       <r>   12.2327    0.0000 </r>
       <r>   13.2309    0.0000 </r>
       <r>   14.7611    0.0000 </r>
       <r>   16.6438    0.0000 </r>
      </set>
      <set comment="kpoint 16">
       <r>   -5.5158    1.0000 </r>
       <r>    2.9811    1.0000 </r>
       <r>    4.1617    1.0000 </r>
       <r>    4.1617    1.0000 </r>
       <r>    7.0923    0.0000 </r>
       <r>    9.4690    0.0000 </r>
       <r>   10.4571    0.0000 </r>
       <r>   10.4571    0.0000 </r>
       <r>   12.5546    0.0000 </r>
       <r>   14.0883    0.0000 </r>
       <r>   15.9004    0.0000 </r>
       <r>   17.9635    0.0000 </r>
      </set>
      <set comment="kpoint 17">
       <r>   -5.0587    1.0000 </r>
       <r>    1.7587    1.0000 </r>
       <r>    3.6592    1.0000 </r>
       <r>    3.8194    1.0000 </r>
       <r>    7.1882    0.0000 </r>
       <r>    9.0608    0.0000 </r>
       <r>   10.7072    0.0000 </r>
       <r>   11.0454    0.0000 </r>
       <r>   14.0203    0.0000 </r>
       <r>   14.5491    0.0000 </r>
       <r>   16.6063    0.0000 </r>
       <r>   18.0856    0.0000 </r>
      </set>
      <set comment="kpoint 18">
       <r>   -4.3969    1.0000 </r>
       <r>    0.3524    1.0000 </r>
       <r>    3.0392    1.0000 </r>
       <r>    3.6616    1.0000 </r>
       <r>    7.4030    0.0000 </r>
       <r>    9.6857    0.0000 </r>
       <r>   10.4764    0.0000 </r>
       <r>   11.0120    0.0000 </r>
       <r>   15.6676    0.0000 </r>
       <r>   15.9046    0.0000 </r>
       <r>   16.2415    0.0000 </r>
       <r>   18.2945    0.0000 </r>
      </set>
      <set comment="kpoint 19">
       <r>   -3.6839    1.0000 </r>
       <r>   -0.8040    1.0000 </r>
       <r>    2.5378    1.0000 </r>
       <r>    3.7035    1.0000 </r>
       <r>    7.4667    0.0000 </r>
       <r>   10.2575    0.0000 </r>
       <r>   10.6948    0.0000 </r>
       <r>   11.2115    0.0000 </r>
       <r>   15.3052    0.0000 </r>
       <r>   16.0305    0.0000 </r>
       <r>   17.4774    0.0000 </r>
       <r>   17.5771    0.0000 </r>
      </set>
      <set comment="kpoint 20">
       <r>   -3.5362    1.0000 </r>
       <r>   -1.0059    1.0000 </r>
       <r>    2.2466    1.0000 </r>
       <r>    3.9362    1.0000 </r>
       <r>    7.6744    0.0000 </r>
       <r>   10.1627    0.0000 </r>
       <r>   10.3966    0.0000 </r>
       <r>   13.1106    0.0000 </r>
       <r>   13.8856    0.0000 </r>
       <r>   14.0102    0.0000 </r>
       <r>   17.1318    0.0000 </r>
       <r>   19.5360    0.0000 </r>
      </set>
      <set comment="kpoint 21">
       <r>   -4.1726    1.0000 </r>
       <r>   -0.0441    1.0000 </r>
       <r>    2.2320    1.0000 </r>
       <r>    4.3248    1.0000 </r>
       <r>    8.0564    0.0000 </r>
       <r>   10.1206    0.0000 </r>
       <r>   10.1776    0.0000 </r>
       <r>   12.2335    0.0000 </r>
       <r>   12.4286    0.0000 </r>
       <r>   15.0684    0.0000 </r>
       <r>   17.4375    0.0000 </r>
       <r>   18.4614    0.0000 </r>
      </set>
      <set comment="kpoint 22">
       <r>   -4.8753    1.0000 </r>
       <r>    1.1692    1.0000 </r>
       <r>    2.6827    1.0000 </r>
       <r>    4.7849    1.0000 </r>
       <r>    8.4668    0.0000 </r>
       <r>    9.5817    0.0000 </r>
       <r>    9.8854    0.0000 </r>
       <r>   11.2728    0.0000 </r>
       <r>   11.7477    0.0000 </r>
       <r>   16.2186    0.0000 </r>
       <r>   16.2397    0.0000 </r>
       <r>   17.4454    0.0000 </r>
      </set>
      <set comment="kpoint 23">
       <r>   -4.6775    1.0000 </r>
       <r>    1.2116    1.0000 </r>
       <r>    3.4338    1.0000 </r>
       <r>    3.4338    1.0000 </r>
       <r>    6.5055    0.0000 </r>
       <r>    8.0523    0.0000 </r>
       <r>   12.1872    0.0000 </r>
       <r>   12.1872    0.0000 </r>
       <r>   14.5233    0.0000 </r>
       <r>   15.0394    0.0000 </r>
       <r>   17.9342    0.0000 </r>
       <r>   18.9818    0.0000 </r>
      </set>
      <set comment="kpoint 24">
       <r>   -4.0763    1.0000 </r>
       <r>    0.2230    1.0000 </r>
       <r>    2.8226    1.0000 </r>
       <r>    3.2322    1.0000 </r>
       <r>    6.6929    0.0000 </r>
       <r>    7.8817    0.0000 </r>
       <r>   12.4711    0.0000 </r>
       <r>   12.6118    0.0000 </r>
       <r>   16.0252    0.0000 </r>
       <r>   16.1570    0.0000 </r>
       <r>   17.6371    0.0000 </r>
       <r>   18.3020    0.0000 </r>
      </set>
      <set comment="kpoint 25">
       <r>   -3.3425    1.0000 </r>
       <r>   -0.7626    1.0000 </r>
       <r>    2.0128    1.0000 </r>
       <r>    3.2381    1.0000 </r>
       <r>    6.8742    0.0000 </r>
       <r>    8.9923    0.0000 </r>
       <r>   12.2854    0.0000 </r>
       <r>   12.3737    0.0000 </r>
       <r>   15.9669    0.0000 </r>
       <r>   16.1604    0.0000 </r>
       <r>   17.7913    0.0000 </r>
       <r>   18.2672    0.0000 </r>
      </set>
      <set comment="kpoint 26">
       <r>   -2.9366    1.0000 </r>
       <r>   -1.2245    1.0000 </r>
       <r>    1.4722    1.0000 </r>
       <r>    3.4489    1.0000 </r>
       <r>    7.1022    0.0000 </r>
       <r>   10.7770    0.0000 </r>
       <r>   11.9783    0.0000 </r>
       <r>   12.1252    0.0000 </r>
       <r>   14.0201    0.0000 </r>
       <r>   14.0955    0.0000 </r>
       <r>   19.2236    0.0000 </r>
       <r>   19.9097    0.0000 </r>
      </set>
      <set comment="kpoint 27">
       <r>   -3.4621    1.0000 </r>
       <r>   -0.6468    1.0000 </r>
       <r>    1.4478    1.0000 </r>
       <r>    3.8368    1.0000 </r>
       <r>    7.5345    0.0000 </r>
       <r>   11.3101    0.0000 </r>
       <r>   11.6209    0.0000 </r>
       <r>   12.3428    0.0000 </r>
       <r>   12.7049    0.0000 </r>
       <r>   13.0795    0.0000 </r>
       <r>   19.1366    0.0000 </r>
       <r>   19.7208    0.0000 </r>
      </set>
      <set comment="kpoint 28">
       <r>   -3.5359    1.0000 </r>
       <r>   -0.5214    1.0000 </r>
       <r>    2.9768    1.0000 </r>
       <r>    2.9768    1.0000 </r>
       <r>    6.2339    0.0000 </r>
       <r>    6.9655    0.0000 </r>
       <r>   14.0165    0.0000 </r>
       <r>   14.0165    0.0000 </r>
       <r>   16.3654    0.0000 </r>
       <r>   16.6066    0.0000 </r>
       <r>   18.0783    0.0000 </r>
       <r>   18.0783    0.0000 </r>
      </set>
      <set comment="kpoint 29">
       <r>   -2.8213    1.0000 </r>
       <r>   -1.3475    1.0000 </r>
       <r>    2.4079    1.0000 </r>
       <r>    2.9289    1.0000 </r>
       <r>    6.4697    0.0000 </r>
       <r>    7.2150    0.0000 </r>
       <r>   14.2659    0.0000 </r>
       <r>   14.3426    0.0000 </r>
       <r>   16.3065    0.0000 </r>
       <r>   16.3971    0.0000 </r>
       <r>   17.8192    0.0000 </r>
       <r>   18.2360    0.0000 </r>
      </set>
      <set comment="kpoint 30">
       <r>   -2.3606    1.0000 </r>
       <r>   -1.7574    1.0000 </r>
       <r>    1.6470    1.0000 </r>
       <r>    3.0927    1.0000 </r>
       <r>    6.6798    0.0000 </r>
       <r>    8.7648    0.0000 </r>
       <r>   13.6129    0.0000 </r>
       <r>   14.1878    0.0000 </r>
       <r>   14.1888    0.0000 </r>
       <r>   14.6434    0.0000 </r>
       <r>   19.7106    0.0000 </r>
       <r>   19.8657    0.0000 </r>
      </set>
      <set comment="kpoint 31">
       <r>   -2.1305    1.0000 </r>
       <r>   -2.1305    1.0000 </r>
       <r>    2.8220    1.0000 </r>
       <r>    2.8220    1.0000 </r>
       <r>    6.3676    0.0000 </r>
       <r>    6.3676    0.0000 </r>
       <r>   15.5526    0.0000 </r>
       <r>   15.5526    0.0000 </r>
       <r>   16.5231    0.0000 </r>
       <r>   16.5231    0.0000 </r>
       <r>   18.0592    0.0000 </r>
       <r>   18.0592    0.0000 </r>
      </set>
      <set comment="kpoint 32">
       <r>   -5.3538    1.0000 </r>
       <r>    2.2542    1.0000 </r>
       <r>    3.5832    1.0000 </r>
       <r>    4.6606    1.0000 </r>
       <r>    7.9610    0.0000 </r>
       <r>    9.2649    0.0000 </r>
       <r>   10.2143    0.0000 </r>
       <r>   10.2349    0.0000 </r>
       <r>   12.7729    0.0000 </r>
       <r>   14.3537    0.0000 </r>
       <r>   16.0262    0.0000 </r>
       <r>   17.1814    0.0000 </r>
      </set>
      <set comment="kpoint 33">
       <r>   -4.7543    1.0000 </r>
       <r>    0.8718    1.0000 </r>
       <r>    2.9995    1.0000 </r>
       <r>    4.2950    1.0000 </r>
       <r>    8.3010    0.0000 </r>
       <r>    9.1828    0.0000 </r>
       <r>   10.3078    0.0000 </r>
       <r>   10.7004    0.0000 </r>
       <r>   13.4293    0.0000 </r>
       <r>   15.9421    0.0000 </r>
       <r>   16.1599    0.0000 </r>
       <r>   17.9573    0.0000 </r>
      </set>
      <set comment="kpoint 34">
       <r>   -4.0244    1.0000 </r>
       <r>   -0.4610    1.0000 </r>
       <r>    2.7656    1.0000 </r>
       <r>    3.9542    1.0000 </r>
       <r>    8.3393    0.0000 </r>
       <r>    8.8937    0.0000 </r>
       <r>   10.6273    0.0000 </r>
       <r>   11.6286    0.0000 </r>
       <r>   14.7278    0.0000 </r>
       <r>   15.0933    0.0000 </r>
       <r>   16.9631    0.0000 </r>
       <r>   18.1177    0.0000 </r>
      </set>
      <set comment="kpoint 35">
       <r>   -3.5790    1.0000 </r>
       <r>   -1.1206    1.0000 </r>
       <r>    2.7043    1.0000 </r>
       <r>    3.8203    1.0000 </r>
       <r>    8.3518    0.0000 </r>
       <r>    8.7303    0.0000 </r>
       <r>   10.5905    0.0000 </r>
       <r>   13.3467    0.0000 </r>
       <r>   13.3901    0.0000 </r>
       <r>   15.6911    0.0000 </r>
       <r>   17.0490    0.0000 </r>
       <r>   17.5204    0.0000 </r>
      </set>
      <set comment="kpoint 36">
       <r>   -4.5311    1.0000 </r>
       <r>    0.8656    1.0000 </r>
       <r>    2.8704    1.0000 </r>
       <r>    3.5751    1.0000 </r>
       <r>    7.4027    0.0000 </r>
       <r>    8.6825    0.0000 </r>
       <r>   10.7565    0.0000 </r>
       <r>   12.0800    0.0000 </r>
       <r>   14.4312    0.0000 </r>
       <r>   16.2199    0.0000 </r>
       <r>   17.0604    0.0000 </r>
       <r>   18.3515    0.0000 </r>
      </set>
      <set comment="kpoint 37">
       <r>   -3.8259    1.0000 </r>
       <r>   -0.2146    1.0000 </r>
       <r>    2.2618    1.0000 </r>
       <r>    3.2559    1.0000 </r>
       <r>    7.7832    0.0000 </r>
       <r>    9.3688    0.0000 </r>
       <r>   10.3825    0.0000 </r>
       <r>   12.4714    0.0000 </r>
       <r>   15.5040    0.0000 </r>
       <r>   15.5344    0.0000 </r>
       <r>   18.0109    0.0000 </r>
       <r>   18.3504    0.0000 </r>
      </set>
      <set comment="kpoint 38">
       <r>   -3.1931    1.0000 </r>
       <r>   -1.0545    1.0000 </r>
       <r>    1.8596    1.0000 </r>
       <r>    3.2017    1.0000 </r>
       <r>    7.9630    0.0000 </r>
       <r>    9.9555    0.0000 </r>
       <r>   11.0786    0.0000 </r>
       <r>   12.3995    0.0000 </r>
       <r>   13.4812    0.0000 </r>
       <r>   16.3751    0.0000 </r>
       <r>   17.4582    0.0000 </r>
       <r>   18.5757    0.0000 </r>
      </set>
      <set comment="kpoint 39">
       <r>   -3.3894    1.0000 </r>
       <r>   -0.8020    1.0000 </r>
       <r>    1.7150    1.0000 </r>
       <r>    3.4355    1.0000 </r>
       <r>    8.2965    0.0000 </r>
       <r>    9.7010    0.0000 </r>
       <r>   11.5078    0.0000 </r>
       <r>   12.2847    0.0000 </r>
       <r>   13.1434    0.0000 </r>
       <r>   14.6914    0.0000 </r>
       <r>   18.2973    0.0000 </r>
       <r>   19.5417    0.0000 </r>
      </set>
      <set comment="kpoint 40">
       <r>   -4.1076    1.0000 </r>
       <r>    0.1268    1.0000 </r>
       <r>    2.0130    1.0000 </r>
       <r>    3.8645    1.0000 </r>
       <r>    8.7753    0.0000 </r>
       <r>    9.2539    0.0000 </r>
       <r>   10.3009    0.0000 </r>
       <r>   11.8085    0.0000 </r>
       <r>   13.4895    0.0000 </r>
       <r>   15.2386    0.0000 </r>
       <r>   18.2863    0.0000 </r>
       <r>   18.6357    0.0000 </r>
      </set>
      <set comment="kpoint 41">
       <r>   -3.4210    1.0000 </r>
       <r>   -0.6067    1.0000 </r>
       <r>    2.4678    1.0000 </r>
       <r>    2.7889    1.0000 </r>
       <r>    7.1192    0.0000 </r>
       <r>    7.7125    0.0000 </r>
[...]
        <r>  0.0073  0.0517  0.0000  0.0332  0.0000  0.0000  0.0000  0.0000  0.0000 </r>
       </set>
      </set>
      <set comment="kpoint 41">
       <set comment="band 1">
        <r>  0.2016  0.0069  0.0009  0.0210  0.0000  0.0000  0.0000  0.0000  0.0000 </r>
        <r>  0.2016  0.0069  0.0009  0.0210  0.0000  0.0000  0.0000  0.0000  0.0000 </r>
       </set>
       <set comment="band 2">
        <r>  0.1865  0.0158  0.0041  0.0410  0.0000  0.0000  0.0000  0.0000  0.0000 </r>
        <r>  0.1865  0.0158  0.0041  0.0410  0.0000  0.0000  0.0000  0.0000  0.0000 </r>
       </set>
       <set comment="band 3">
        <r>  0.0063  0.0385  0.0804  0.0532  0.0000  0.0000  0.0000  0.0000  0.0000 </r>
        <r>  0.0063  0.0385  0.0804  0.0532  0.0000  0.0000  0.0000  0.0000  0.0000 </r>
       </set>
       <set comment="band 4">
        <r>  0.0000  0.0876  0.0825  0.0120  0.0000  0.0000  0.0000  0.0000  0.0000 </r>
        <r>  0.0000  0.0876  0.0825  0.0120  0.0000  0.0000  0.0000  0.0000  0.0000 </r>
       </set>
       <set comment="band 5">
        <r>  0.0414  0.0420  0.0172  0.0134  0.0000  0.0000  0.0000  0.0000  0.0000 </r>
        <r>  0.0414  0.0420  0.0172  0.0134  0.0000  0.0000  0.0000  0.0000  0.0000 </r>
       </set>
       <set comment="band 6">
        <r>  0.0416  0.0032  0.0122  0.0338  0.0000  0.0000  0.0000  0.0000  0.0000 </r>
        <r>  0.0416  0.0032  0.0122  0.0338  0.0000  0.0000  0.0000  0.0000  0.0000 </r>
       </set>
       <set comment="band 7">
        <r>  0.0257  0.0665  0.0531  0.0069  0.0000  0.0000  0.0000  0.0000  0.0000 </r>
        <r>  0.0257  0.0665  0.0531  0.0069  0.0000  0.0000  0.0000  0.0000  0.0000 </r>
       </set>
       <set comment="band 8">
        <r>  0.0016  0.0657  0.0823  0.0201  0.0000  0.0000  0.0000  0.0000  0.0000 </r>
        <r>  0.0016  0.0657  0.0823  0.0201  0.0000  0.0000  0.0000  0.0000  0.0000 </r>
       </set>
       <set comment="band 9">
        <r>  0.0071  0.0048  0.0247  0.0693  0.0000  0.0000  0.0000  0.0000  0.0000 </r>
        <r>  0.0071  0.0048  0.0247  0.0693  0.0000  0.0000  0.0000  0.0000  0.0000 </r>
       </set>
       <set comment="band 10">
        <r>  0.0394  0.0139  0.0019  0.0585  0.0000  0.0000  0.0000  0.0000  0.0000 </r>
        <r>  0.0394  0.0139  0.0019  0.0585  0.0000  0.0000  0.0000  0.0000  0.0000 </r>
       </set>
       <set comment="band 11">
        <r>  0.0079  0.0244  0.0618  0.0675  0.0000  0.0000  0.0000  0.0000  0.0000 </r>
        <r>  0.0079  0.0244  0.0618  0.0675  0.0000  0.0000  0.0000  0.0000  0.0000 </r>
       </set>
       <set comment="band 12">
        <r>  0.0340  0.0125  0.0028  0.0350  0.0000  0.0000  0.0000  0.0000  0.0000 </r>
        <r>  0.0340  0.0125  0.0028  0.0350  0.0000  0.0000  0.0000  0.0000  0.0000 </r>
       </set>
      </set>
      <set comment="kpoint 42">
       <set comment="band 1">
        <r>  0.2050  0.0099  0.0012  0.0225  0.0000  0.0000  0.0000  0.0000  0.0000 </r>
        <r>  0.2050  0.0099  0.0012  0.0225  0.0000  0.0000  0.0000  0.0000  0.0000 </r>
       </set>
       <set comment="band 2">
        <r>  0.1912  0.0137  0.0019  0.0366  0.0000  0.0000  0.0000  0.0000  0.0000 </r>
        <r>  0.1912  0.0137  0.0019  0.0366  0.0000  0.0000  0.0000  0.0000  0.0000 </r>
       </set>
       <set comment="band 3">
        <r>  0.0032  0.0969  0.0038  0.0579  0.0000  0.0000  0.0000  0.0000  0.0000 </r>
        <r>  0.0032  0.0969  0.0038  0.0579  0.0000  0.0000  0.0000  0.0000  0.0000 </r>
       </set>
       <set comment="band 4">
        <r>  0.0020  0.0124  0.1619  0.0043  0.0000  0.0000  0.0000  0.0000  0.0000 </r>
        <r>  0.0020  0.0124  0.1619  0.0043  0.0000  0.0000  0.0000  0.0000  0.0000 </r>
       </set>
       <set comment="band 5">
        <r>  0.0423  0.0179  0.0295  0.0157  0.0000  0.0000  0.0000  0.0000  0.0000 </r>
        <r>  0.0423  0.0179  0.0295  0.0157  0.0000  0.0000  0.0000  0.0000  0.0000 </r>
       </set>
       <set comment="band 6">
        <r>  0.0297  0.0443  0.0008  0.0348  0.0000  0.0000  0.0000  0.0000  0.0000 </r>
        <r>  0.0297  0.0443  0.0008  0.0348  0.0000  0.0000  0.0000  0.0000  0.0000 </r>
       </set>
       <set comment="band 7">
        <r>  0.0299  0.0586  0.0515  0.0056  0.0000  0.0000  0.0000  0.0000  0.0000 </r>
        <r>  0.0299  0.0586  0.0515  0.0056  0.0000  0.0000  0.0000  0.0000  0.0000 </r>
       </set>
       <set comment="band 8">
        <r>  0.0205  0.0242  0.0544  0.0614  0.0000  0.0000  0.0000  0.0000  0.0000 </r>
        <r>  0.0205  0.0242  0.0544  0.0614  0.0000  0.0000  0.0000  0.0000  0.0000 </r>
       </set>
       <set comment="band 9">
        <r>  0.0091  0.0536  0.0437  0.0084  0.0000  0.0000  0.0000  0.0000  0.0000 </r>
        <r>  0.0091  0.0536  0.0437  0.0084  0.0000  0.0000  0.0000  0.0000  0.0000 </r>
       </set>
       <set comment="band 10">
        <r>  0.0059  0.0136  0.0205  0.0737  0.0000  0.0000  0.0000  0.0000  0.0000 </r>
        <r>  0.0059  0.0136  0.0205  0.0737  0.0000  0.0000  0.0000  0.0000  0.0000 </r>
       </set>
       <set comment="band 11">
        <r>  0.0233  0.0096  0.0240  0.0684  0.0000  0.0000  0.0000  0.0000  0.0000 </r>
        <r>  0.0233  0.0096  0.0240  0.0684  0.0000  0.0000  0.0000  0.0000  0.0000 </r>
       </set>
       <set comment="band 12">
        <r>  0.0027  0.0795  0.0371  0.0242  0.0000  0.0000  0.0000  0.0000  0.0000 </r>
        <r>  0.0027  0.0795  0.0371  0.0242  0.0000  0.0000  0.0000  0.0000  0.0000 </r>
       </set>
      </set>
      <set comment="kpoint 43">
       <set comment="band 1">
        <r>  0.2125  0.0140  0.0016  0.0146  0.0000  0.0000  0.0000  0.0000  0.0000 </r>
        <r>  0.2125  0.0140  0.0016  0.0146  0.0000  0.0000  0.0000  0.0000  0.0000 </r>
       </set>
       <set comment="band 2">
        <r>  0.1846  0.0233  0.0013  0.0307  0.0000  0.0000  0.0000  0.0000  0.0000 </r>
        <r>  0.1846  0.0233  0.0013  0.0307  0.0000  0.0000  0.0000  0.0000  0.0000 </r>
       </set>
       <set comment="band 3">
        <r>  0.0014  0.0839  0.0003  0.0685  0.0000  0.0000  0.0000  0.0000  0.0000 </r>
        <r>  0.0014  0.0839  0.0003  0.0685  0.0000  0.0000  0.0000  0.0000  0.0000 </r>
       </set>
       <set comment="band 4">
        <r>  0.0029  0.0043  0.1681  0.0086  0.0000  0.0000  0.0000  0.0000  0.0000 </r>
        <r>  0.0029  0.0043  0.1681  0.0086  0.0000  0.0000  0.0000  0.0000  0.0000 </r>
       </set>
       <set comment="band 5">
        <r>  0.0430  0.0129  0.0299  0.0231  0.0000  0.0000  0.0000  0.0000  0.0000 </r>
        <r>  0.0430  0.0129  0.0299  0.0231  0.0000  0.0000  0.0000  0.0000  0.0000 </r>
       </set>
       <set comment="band 6">
        <r>  0.0055  0.0454  0.0156  0.0234  0.0000  0.0000  0.0000  0.0000  0.0000 </r>
        <r>  0.0055  0.0454  0.0156  0.0234  0.0000  0.0000  0.0000  0.0000  0.0000 </r>
       </set>
       <set comment="band 7">
        <r>  0.0368  0.0238  0.0709  0.0365  0.0000  0.0000  0.0000  0.0000  0.0000 </r>
        <r>  0.0368  0.0238  0.0709  0.0365  0.0000  0.0000  0.0000  0.0000  0.0000 </r>
       </set>
       <set comment="band 8">
        <r>  0.0368  0.0538  0.0023  0.0403  0.0000  0.0000  0.0000  0.0000  0.0000 </r>
        <r>  0.0368  0.0538  0.0023  0.0403  0.0000  0.0000  0.0000  0.0000  0.0000 </r>
       </set>
       <set comment="band 9">
        <r>  0.0116  0.0243  0.0650  0.0484  0.0000  0.0000  0.0000  0.0000  0.0000 </r>
        <r>  0.0116  0.0243  0.0650  0.0484  0.0000  0.0000  0.0000  0.0000  0.0000 </r>
       </set>
       <set comment="band 10">
        <r>  0.0219  0.0486  0.0105  0.0276  0.0000  0.0000  0.0000  0.0000  0.0000 </r>
        <r>  0.0219  0.0486  0.0105  0.0276  0.0000  0.0000  0.0000  0.0000  0.0000 </r>
       </set>
       <set comment="band 11">
        <r>  0.0063  0.0518  0.0035  0.0768  0.0000  0.0000  0.0000  0.0000  0.0000 </r>
        <r>  0.0063  0.0518  0.0035  0.0768  0.0000  0.0000  0.0000  0.0000  0.0000 </r>
       </set>
       <set comment="band 12">
        <r>  0.0045  0.0413  0.0324  0.0050  0.0000  0.0000  0.0000  0.0000  0.0000 </r>
        <r>  0.0047  0.0405  0.0319  0.0052  0.0000  0.0000  0.0000  0.0000  0.0000 </r>
       </set>
      </set>
      <set comment="kpoint 44">
       <set comment="band 1">
        <r>  0.1965  0.0151  0.0015  0.0264  0.0000  0.0000  0.0000  0.0000  0.0000 </r>
        <r>  0.1965  0.0151  0.0015  0.0264  0.0000  0.0000  0.0000  0.0000  0.0000 </r>
       </set>
       <set comment="band 2">
        <r>  0.1965  0.0136  0.0014  0.0280  0.0000  0.0000  0.0000  0.0000  0.0000 </r>
        <r>  0.1965  0.0136  0.0014  0.0280  0.0000  0.0000  0.0000  0.0000  0.0000 </r>
       </set>
       <set comment="band 3">
        <r>  0.0025  0.0416  0.0763  0.0578  0.0000  0.0000  0.0000  0.0000  0.0000 </r>
        <r>  0.0025  0.0416  0.0763  0.0578  0.0000  0.0000  0.0000  0.0000  0.0000 </r>
       </set>
       <set comment="band 4">
        <r>  0.0025  0.0755  0.0876  0.0125  0.0000  0.0000  0.0000  0.0000  0.0000 </r>
        <r>  0.0025  0.0755  0.0876  0.0125  0.0000  0.0000  0.0000  0.0000  0.0000 </r>
       </set>
       <set comment="band 5">
        <r>  0.0428  0.0165  0.0043  0.0383  0.0000  0.0000  0.0000  0.0000  0.0000 </r>
        <r>  0.0428  0.0165  0.0043  0.0383  0.0000  0.0000  0.0000  0.0000  0.0000 </r>
       </set>
       <set comment="band 6">
        <r>  0.0428  0.0229  0.0260  0.0102  0.0000  0.0000  0.0000  0.0000  0.0000 </r>
        <r>  0.0428  0.0229  0.0260  0.0102  0.0000  0.0000  0.0000  0.0000  0.0000 </r>
       </set>
       <set comment="band 7">
        <r>  0.0169  0.0734  0.0574  0.0072  0.0000  0.0000  0.0000  0.0000  0.0000 </r>
        <r>  0.0169  0.0734  0.0574  0.0072  0.0000  0.0000  0.0000  0.0000  0.0000 </r>
       </set>
       <set comment="band 8">
        <r>  0.0169  0.0186  0.0563  0.0631  0.0000  0.0000  0.0000  0.0000  0.0000 </r>
        <r>  0.0169  0.0186  0.0563  0.0631  0.0000  0.0000  0.0000  0.0000  0.0000 </r>
       </set>
       <set comment="band 9">
        <r>  0.0009  0.0524  0.0481  0.0132  0.0000  0.0000  0.0000  0.0000  0.0000 </r>
        <r>  0.0009  0.0524  0.0481  0.0132  0.0000  0.0000  0.0000  0.0000  0.0000 </r>
       </set>
       <set comment="band 10">
        <r>  0.0009  0.0234  0.0475  0.0427  0.0000  0.0000  0.0000  0.0000  0.0000 </r>
        <r>  0.0009  0.0234  0.0475  0.0427  0.0000  0.0000  0.0000  0.0000  0.0000 </r>
       </set>
       <set comment="band 11">
        <r>  0.0236  0.0312  0.0051  0.0521  0.0000  0.0000  0.0000  0.0000  0.0000 </r>
        <r>  0.0236  0.0312  0.0051  0.0521  0.0000  0.0000  0.0000  0.0000  0.0000 </r>
       </set>
       <set comment="band 12">
        <r>  0.0236  0.0277  0.0049  0.0558  0.0000  0.0000  0.0000  0.0000  0.0000 </r>
        <r>  0.0236  0.0277  0.0049  0.0558  0.0000  0.0000  0.0000  0.0000  0.0000 </r>
       </set>
      </set>
      <set comment="kpoint 45">
       <set comment="band 1">
        <r>  0.2071  0.0053  0.0037  0.0199  0.0000  0.0000  0.0000  0.0000  0.0000 </r>
        <r>  0.2071  0.0053  0.0037  0.0199  0.0000  0.0000  0.0000  0.0000  0.0000 </r>
       </set>
       <set comment="band 2">
        <r>  0.1869  0.0131  0.0138  0.0317  0.0000  0.0000  0.0000  0.0000  0.0000 </r>
        <r>  0.1869  0.0131  0.0138  0.0317  0.0000  0.0000  0.0000  0.0000  0.0000 </r>
       </set>
       <set comment="band 3">
        <r>  0.0067  0.0257  0.0643  0.0654  0.0000  0.0000  0.0000  0.0000  0.0000 </r>
        <r>  0.0067  0.0257  0.0643  0.0654  0.0000  0.0000  0.0000  0.0000  0.0000 </r>
       </set>
       <set comment="band 4">
        <r>  0.0016  0.1006  0.0610  0.0106  0.0000  0.0000  0.0000  0.0000  0.0000 </r>
        <r>  0.0016  0.1006  0.0610  0.0106  0.0000  0.0000  0.0000  0.0000  0.0000 </r>
       </set>
       <set comment="band 5">
        <r>  0.0272  0.0553  0.0338  0.0077  0.0000  0.0000  0.0000  0.0000  0.0000 </r>
        <r>  0.0272  0.0553  0.0338  0.0077  0.0000  0.0000  0.0000  0.0000  0.0000 </r>
       </set>
       <set comment="band 6">
        <r>  0.0091  0.0120  0.0338  0.0269  0.0000  0.0000  0.0000  0.0000  0.0000 </r>
        <r>  0.0091  0.0120  0.0338  0.0269  0.0000  0.0000  0.0000  0.0000  0.0000 </r>
       </set>
       <set comment="band 7">
        <r>  0.0664  0.0466  0.0321  0.0194  0.0000  0.0000  0.0000  0.0000  0.0000 </r>
        <r>  0.0664  0.0466  0.0321  0.0194  0.0000  0.0000  0.0000  0.0000  0.0000 </r>
       </set>
       <set comment="band 8">
        <r>  0.0195  0.0095  0.0364  0.0720  0.0000  0.0000  0.0000  0.0000  0.0000 </r>
        <r>  0.0195  0.0095  0.0364  0.0720  0.0000  0.0000  0.0000  0.0000  0.0000 </r>
       </set>
       <set comment="band 9">
        <r>  0.0033  0.0675  0.0592  0.0145  0.0000  0.0000  0.0000  0.0000  0.0000 </r>
        <r>  0.0033  0.0675  0.0592  0.0145  0.0000  0.0000  0.0000  0.0000  0.0000 </r>
       </set>
       <set comment="band 10">
        <r>  0.0303  0.0098  0.0062  0.0688  0.0000  0.0000  0.0000  0.0000  0.0000 </r>
        <r>  0.0303  0.0098  0.0062  0.0688  0.0000  0.0000  0.0000  0.0000  0.0000 </r>
       </set>
       <set comment="band 11">
        <r>  0.0056  0.0338  0.0541  0.0208  0.0000  0.0000  0.0000  0.0000  0.0000 </r>
        <r>  0.0056  0.0338  0.0541  0.0208  0.0000  0.0000  0.0000  0.0000  0.0000 </r>
       </set>
       <set comment="band 12">
        <r>  0.0006  0.0439  0.0149  0.0423  0.0000  0.0000  0.0000  0.0000  0.0000 </r>
        <r>  0.0008  0.0402  0.0027  0.0719  0.0000  0.0000  0.0000  0.0000  0.0000 </r>
       </set>
      </set>
      <set comment="kpoint 46">
       <set comment="band 1">
        <r>  0.2111  0.0114  0.0055  0.0148  0.0000  0.0000  0.0000  0.0000  0.0000 </r>
        <r>  0.2111  0.0114  0.0055  0.0148  0.0000  0.0000  0.0000  0.0000  0.0000 </r>
       </set>
       <set comment="band 2">
        <r>  0.1887  0.0121  0.0070  0.0340  0.0000  0.0000  0.0000  0.0000  0.0000 </r>
        <r>  0.1887  0.0121  0.0070  0.0340  0.0000  0.0000  0.0000  0.0000  0.0000 </r>
       </set>
       <set comment="band 3">
        <r>  0.0051  0.0627  0.0230  0.0680  0.0000  0.0000  0.0000  0.0000  0.0000 </r>
        <r>  0.0051  0.0627  0.0230  0.0680  0.0000  0.0000  0.0000  0.0000  0.0000 </r>
       </set>
       <set comment="band 4">
        <r>  0.0009  0.0497  0.1086  0.0104  0.0000  0.0000  0.0000  0.0000  0.0000 </r>
        <r>  0.0009  0.0497  0.1086  0.0104  0.0000  0.0000  0.0000  0.0000  0.0000 </r>
       </set>
       <set comment="band 5">
        <r>  0.0069  0.0303  0.0523  0.0029  0.0000  0.0000  0.0000  0.0000  0.0000 </r>
        <r>  0.0069  0.0303  0.0523  0.0029  0.0000  0.0000  0.0000  0.0000  0.0000 </r>
       </set>
       <set comment="band 6">
        <r>  0.0488  0.0305  0.0519  0.0096  0.0000  0.0000  0.0000  0.0000  0.0000 </r>
        <r>  0.0488  0.0305  0.0519  0.0096  0.0000  0.0000  0.0000  0.0000  0.0000 </r>
       </set>
       <set comment="band 7">
        <r>  0.0239  0.0260  0.0117  0.0511  0.0000  0.0000  0.0000  0.0000  0.0000 </r>
        <r>  0.0239  0.0260  0.0117  0.0511  0.0000  0.0000  0.0000  0.0000  0.0000 </r>
       </set>
       <set comment="band 8">
        <r>  0.0433  0.0426  0.0160  0.0564  0.0000  0.0000  0.0000  0.0000  0.0000 </r>
        <r>  0.0433  0.0426  0.0160  0.0564  0.0000  0.0000  0.0000  0.0000  0.0000 </r>
       </set>
       <set comment="band 9">
        <r>  0.0089  0.0651  0.0606  0.0080  0.0000  0.0000  0.0000  0.0000  0.0000 </r>
        <r>  0.0089  0.0651  0.0606  0.0080  0.0000  0.0000  0.0000  0.0000  0.0000 </r>
       </set>
       <set comment="band 10">
        <r>  0.0058  0.0149  0.0021  0.0914  0.0000  0.0000  0.0000  0.0000  0.0000 </r>
        <r>  0.0058  0.0149  0.0021  0.0914  0.0000  0.0000  0.0000  0.0000  0.0000 </r>
       </set>
       <set comment="band 11">
        <r>  0.0231  0.0093  0.0449  0.0550  0.0000  0.0000  0.0000  0.0000  0.0000 </r>
        <r>  0.0231  0.0093  0.0449  0.0550  0.0000  0.0000  0.0000  0.0000  0.0000 </r>
       </set>
       <set comment="band 12">
        <r>  0.0000  0.0704  0.0332  0.0085  0.0000  0.0000  0.0000  0.0000  0.0000 </r>
        <r>  0.0000  0.0704  0.0332  0.0085  0.0000  0.0000  0.0000  0.0000  0.0000 </r>
       </set>
      </set>
      <set comment="kpoint 47">
       <set comment="band 1">
        <r>  0.2029  0.0142  0.0065  0.0206  0.0000  0.0000  0.0000  0.0000  0.0000 </r>
        <r>  0.2029  0.0142  0.0065  0.0206  0.0000  0.0000  0.0000  0.0000  0.0000 </r>
       </set>
       <set comment="band 2">
        <r>  0.2029  0.0133  0.0064  0.0215  0.0000  0.0000  0.0000  0.0000  0.0000 </r>
        <r>  0.2029  0.0133  0.0064  0.0215  0.0000  0.0000  0.0000  0.0000  0.0000 </r>
       </set>
       <set comment="band 3">
        <r>  0.0007  0.0198  0.0667  0.0748  0.0000  0.0000  0.0000  0.0000  0.0000 </r>
        <r>  0.0007  0.0198  0.0667  0.0748  0.0000  0.0000  0.0000  0.0000  0.0000 </r>
       </set>
       <set comment="band 4">
        <r>  0.0007  0.0877  0.0614  0.0122  0.0000  0.0000  0.0000  0.0000  0.0000 </r>
        <r>  0.0007  0.0877  0.0614  0.0122  0.0000  0.0000  0.0000  0.0000  0.0000 </r>
       </set>
       <set comment="band 5">
        <r>  0.0271  0.0435  0.0036  0.0361  0.0000  0.0000  0.0000  0.0000  0.0000 </r>
        <r>  0.0271  0.0435  0.0036  0.0361  0.0000  0.0000  0.0000  0.0000  0.0000 </r>
       </set>
       <set comment="band 6">
        <r>  0.0271  0.0120  0.0611  0.0101  0.0000  0.0000  0.0000  0.0000  0.0000 </r>
        <r>  0.0271  0.0120  0.0611  0.0101  0.0000  0.0000  0.0000  0.0000  0.0000 </r>
       </set>
       <set comment="band 7">
        <r>  0.0343  0.0605  0.0363  0.0108  0.0000  0.0000  0.0000  0.0000  0.0000 </r>
        <r>  0.0343  0.0605  0.0363  0.0108  0.0000  0.0000  0.0000  0.0000  0.0000 </r>
       </set>
       <set comment="band 8">
        <r>  0.0343  0.0112  0.0356  0.0607  0.0000  0.0000  0.0000  0.0000  0.0000 </r>
        <r>  0.0343  0.0112  0.0356  0.0607  0.0000  0.0000  0.0000  0.0000  0.0000 </r>
       </set>
       <set comment="band 9">
        <r>  0.0001  0.0704  0.0473  0.0163  0.0000  0.0000  0.0000  0.0000  0.0000 </r>
        <r>  0.0001  0.0704  0.0473  0.0163  0.0000  0.0000  0.0000  0.0000  0.0000 </r>
       </set>
       <set comment="band 10">
        <r>  0.0001  0.0189  0.0504  0.0647  0.0000  0.0000  0.0000  0.0000  0.0000 </r>
        <r>  0.0001  0.0189  0.0504  0.0647  0.0000  0.0000  0.0000  0.0000  0.0000 </r>
       </set>
       <set comment="band 11">
        <r>  0.0253  0.0339  0.0176  0.0498  0.0000  0.0000  0.0000  0.0000  0.0000 </r>
        <r>  0.0252  0.0339  0.0176  0.0499  0.0000  0.0000  0.0000  0.0000  0.0000 </r>
       </set>
       <set comment="band 12">
        <r>  0.0252  0.0337  0.0176  0.0501  0.0000  0.0000  0.0000  0.0000  0.0000 </r>
        <r>  0.0253  0.0337  0.0176  0.0501  0.0000  0.0000  0.0000  0.0000  0.0000 </r>
       </set>
      </set>
     </set>
    </set>
   </array>
  </projected>
 </calculation>
 <structure name="finalpos" >
  <crystal>
   <varray name="basis" >
    <v>       3.34889800       0.00000000       1.93348700 </v>
    <v>       1.11629900       3.15737200       1.93348700 </v>
    <v>       0.00000000       0.00000000       3.86697500 </v>
   </varray>
   <i name="volume">     40.88829843 </i>
   <varray name="rec_basis" >
    <v>       0.29860569      -0.10557300       0.00000000 </v>
    <v>       0.00000000       0.31671909       0.00000000 </v>
    <v>      -0.14930281      -0.10557302       0.25860007 </v>
   </varray>
  </crystal>
  <varray name="positions" >
   <v>       0.25000000       0.25000000       0.25000000 </v>
   <v>       0.00000000       0.00000000       0.00000000 </v>
  </varray>
 </structure>
</modeling>
