<?xml version="1.0" encoding="ISO-8859-1"?>
<modeling>
 <generator>
  <i name="program" type="string">vasp </i>
  <i name="version" type="string">6.2.1  </i>
  <i name="subversion" type="string">16May21 (build Oct 27 2021 18:14:32) complex                          parallel </i>
  <i name="platform" type="string">LinuxIFC </i>
  <i name="date" type="string">2021 11 21 </i>
  <i name="time" type="string">15:02:45 </i>
 </generator>
 <incar>
  <i type="string" name="PREC">Accurate</i>
  <i type="string" name="ALGO">All</i>
  <i type="int" name="ISPIN">     2</i>
  <i type="int" name="NELM">   200</i>
  <i type="int" name="IBRION">     2</i>
  <i name="EDIFF">      0.00001000</i>
  <i name="EDIFFG">     -0.02000000</i>
  <i type="int" name="NSW">     1</i>
  <i type="int" name="ISIF">     3</i>
  <i name="ENCUT">    680.00000000</i>
  <i name="ENAUG">   1360.00000000</i>
  <v name="MAGMOM">      0.60000000      0.60000000</v>
  <i type="string" name="LREAL">Auto</i>
  <i type="int" name="ISMEAR">    -5</i>
  <i name="SIGMA">      0.05000000</i>
  <i name="KSPACING">      0.50000000</i>
  <i type="logical" name="LWAVE"> F  </i>
  <i type="logical" name="LCHARG"> T  </i>
  <i type="logical" name="LVTOT"> T  </i>
  <i type="int" name="LORBIT">    11</i>
  <i type="logical" name="LELF"> T  </i>
  <i type="logical" name="LASPH"> T  </i>
  <i type="logical" name="LAECHG"> T  </i>
  <i name="HFSCREEN">      0.20000000</i>
  <i type="logical" name="LHFCALC"> T  </i>
  <i type="string" name="GGA">Pe</i>
  <i type="string" name="PRECFOCK">Fast</i>
  <i type="logical" name="LMIXTAU"> T  </i>
 </incar>
 <primitive_cell>
  <structure name="primitive_cell" >
   <crystal>
    <varray name="basis" >
     <v>       3.34889800       0.00000000       1.93348700 </v>
     <v>       1.11629900       3.15737200       1.93348700 </v>
     <v>       0.00000000       0.00000000       3.86697500 </v>
    </varray>
    <i name="volume">     40.88829843 </i>
    <varray name="rec_basis" >
     <v>       0.29860569      -0.10557300       0.00000000 </v>
     <v>       0.00000000       0.31671909       0.00000000 </v>
     <v>      -0.14930281      -0.10557302       0.25860007 </v>
    </varray>
   </crystal>
   <varray name="positions" >
    <v>       0.25000000       0.25000000       0.25000000 </v>
    <v>       0.00000000       0.00000000       0.00000000 </v>
   </varray>
  </structure>
  <varray name="primitive_index" >
   <v type="int" >        1 </v>
   <v type="int" >        2 </v>
  </varray>
 </primitive_cell>
 <kpoints>
  <generation param="Gamma">
   <v type="int" name="divisions">       4        4        4 </v>
   <v name="usershift">      0.00000000       0.00000000       0.00000000 </v>
   <v name="genvec1">      0.25000000      -0.00000000       0.00000000 </v>
   <v name="genvec2">      0.00000000       0.25000000       0.00000000 </v>
   <v name="genvec3">      0.00000000       0.00000000       0.25000000 </v>
   <v name="shift">      0.00000000       0.00000000       0.00000000 </v>
  </generation>
  <varray name="kpointlist" >
   <v>       0.00000000       0.00000000       0.00000000 </v>
   <v>       0.25000000       0.00000000       0.00000000 </v>
   <v>       0.50000000       0.00000000       0.00000000 </v>
   <v>       0.25000000       0.25000000       0.00000000 </v>
   <v>       0.50000000       0.25000000       0.00000000 </v>
   <v>      -0.25000000       0.25000000       0.00000000 </v>
   <v>       0.50000000       0.50000000       0.00000000 </v>
   <v>      -0.25000000       0.50000000       0.25000000 </v>
  </varray>
  <varray name="weights" >
   <v>       0.01562500 </v>
   <v>       0.12500000 </v>
   <v>       0.06250000 </v>
   <v>       0.09375000 </v>
   <v>       0.37500000 </v>
   <v>       0.18750000 </v>
   <v>       0.04687500 </v>
   <v>       0.09375000 </v>
  </varray>
  <varray name="tetrahedronlist"  type="int" >
   <v type="int" >       24        1        2        2        4 </v>
   <v type="int" >       48        2        4        5        6 </v>
   <v type="int" >       48        2        3        5        6 </v>
   <v type="int" >       24        2        2        4        6 </v>
   <v type="int" >       48        3        5        5        6 </v>
   <v type="int" >       24        4        5        5        7 </v>
   <v type="int" >       24        4        5        5        6 </v>
   <v type="int" >       48        5        5        7        8 </v>
   <v type="int" >       96        5        5        6        8 </v>
  </varray>
  <i name="volumeweight">      0.00260417 </i>
 </kpoints>
 <parameters>
  <separator name="general" >
   <i type="string" name="SYSTEM">unknown system</i>
   <i type="logical" name="LCOMPAT"> F  </i>
  </separator>
  <separator name="electronic" >
   <i type="string" name="PREC">accura</i>
   <i name="ENMAX">    680.00000000</i>
   <i name="ENAUG">   1360.00000000</i>
   <i name="EDIFF">      0.00001000</i>
   <i type="int" name="IALGO">    58</i>
   <i type="int" name="IWAVPR">    11</i>
   <i type="int" name="NBANDS">     9</i>
   <i type="int" name="NBANDSLOW">    -1</i>
   <i type="int" name="NBANDSHIGH">    -1</i>
   <i name="NELECT">      8.00000000</i>
   <i type="int" name="TURBO">     0</i>
   <i type="int" name="IRESTART">     0</i>
   <i type="int" name="NREBOOT">     0</i>
   <i type="int" name="NMIN">     0</i>
   <i name="EREF">      0.00000000</i>
   <separator name="electronic smearing" >
    <i type="int" name="ISMEAR">    -5</i>
    <i name="SIGMA">      0.05000000</i>
    <i name="KSPACING">      0.50000000</i>
    <i type="logical" name="KGAMMA"> T  </i>
    <i type="logical" name="KBLOWUP"> T  </i>
   </separator>
   <separator name="electronic projectors" >
    <i type="logical" name="LREAL"> T  </i>
    <v name="ROPT">     -0.00025000</v>
    <i type="int" name="LMAXPAW">  -100</i>
    <i type="int" name="LMAXMIX">     2</i>
    <i type="logical" name="NLSPLINE"> F  </i>
   </separator>
   <separator name="electronic startup" >
    <i type="int" name="ISTART">     0</i>
    <i type="int" name="ICHARG">     2</i>
    <i type="int" name="INIWAV">     1</i>
   </separator>
   <separator name="electronic spin" >
    <i type="int" name="ISPIN">     2</i>
    <i type="logical" name="LNONCOLLINEAR"> F  </i>
    <v name="MAGMOM">      0.60000000      0.60000000</v>
    <i name="NUPDOWN">     -1.00000000</i>
    <i type="logical" name="LSORBIT"> F  </i>
    <v name="SAXIS">      0.00000000      0.00000000      1.00000000</v>
    <i type="logical" name="LSPIRAL"> F  </i>
    <v name="QSPIRAL">      0.00000000      0.00000000      0.00000000</v>
    <i type="logical" name="LZEROZ"> F  </i>
   </separator>
   <separator name="electronic exchange-correlation" >
    <i type="logical" name="LASPH"> T  </i>
    <i type="logical" name="LMETAGGA"> F  </i>
   </separator>
   <separator name="electronic convergence" >
    <i type="int" name="NELM">   200</i>
    <i type="int" name="NELMDL">    -5</i>
    <i type="int" name="NELMIN">     2</i>
    <i name="ENINI">    680.00000000</i>
    <separator name="electronic convergence detail" >
     <i type="logical" name="LDIAG"> T  </i>
     <i type="logical" name="LSUBROT"> F  </i>
     <i name="WEIMIN">      0.00100000</i>
     <i name="EBREAK">      0.00000028</i>
     <i name="DEPER">      0.30000000</i>
     <i type="int" name="NRMM">     4</i>
     <i name="TIME">      0.40000000</i>
    </separator>
   </separator>
   <separator name="electronic mixer" >
    <i name="AMIX">      0.40000000</i>
    <i name="BMIX">      1.00000000</i>
    <i name="AMIN">      0.10000000</i>
    <i name="AMIX_MAG">      1.60000000</i>
    <i name="BMIX_MAG">      1.00000000</i>
    <separator name="electronic mixer details" >
     <i type="int" name="IMIX">     4</i>
     <i type="logical" name="MIXFIRST"> F  </i>
     <i type="int" name="MAXMIX">   -45</i>
     <i name="WC">    100.00000000</i>
     <i type="int" name="INIMIX">     1</i>
     <i type="int" name="MIXPRE">     1</i>
     <i type="int" name="MREMOVE">     5</i>
    </separator>
   </separator>
   <separator name="electronic dipolcorrection" >
    <i type="logical" name="LDIPOL"> F  </i>
    <i type="logical" name="LMONO"> F  </i>
    <i type="int" name="IDIPOL">     0</i>
    <i name="EPSILON">      1.00000000</i>
    <v name="DIPOL">   -100.00000000   -100.00000000   -100.00000000</v>
    <i name="EFIELD">      0.00000000</i>
   </separator>
  </separator>
  <separator name="grids" >
   <i type="int" name="NGX">    36</i>
   <i type="int" name="NGY">    36</i>
   <i type="int" name="NGZ">    36</i>
   <i type="int" name="NGXF">    72</i>
   <i type="int" name="NGYF">    72</i>
   <i type="int" name="NGZF">    72</i>
   <i type="logical" name="ADDGRID"> F  </i>
  </separator>
  <separator name="ionic" >
   <i type="int" name="NSW">     1</i>
   <i type="int" name="IBRION">     2</i>
   <i type="int" name="MDALGO">     0</i>
   <i type="int" name="ISIF">     3</i>
   <i name="PSTRESS">      0.00000000</i>
   <i name="EDIFFG">     -0.02000000</i>
   <i type="int" name="NFREE">     1</i>
   <i name="POTIM">      0.50000000</i>
   <i name="SMASS">     -3.00000000</i>
   <i name="SCALEE">      1.00000000</i>
  </separator>
  <separator name="ionic md" >
   <i name="TEBEG">      0.00010000</i>
   <i name="TEEND">      0.00010000</i>
   <i type="int" name="NBLOCK">     1</i>
   <i type="int" name="KBLOCK">     1</i>
   <i type="int" name="NPACO">   256</i>
   <i name="APACO">     16.00000000</i>
  </separator>
  <separator name="symmetry" >
   <i type="int" name="ISYM">     3</i>
   <i name="SYMPREC">      0.00001000</i>
  </separator>
  <separator name="dos" >
   <i type="int" name="LORBIT">    11</i>
   <v name="RWIGS">     -1.00000000</v>
   <i type="int" name="NEDOS">   301</i>
   <i name="EMIN">     10.00000000</i>
   <i name="EMAX">    -10.00000000</i>
   <i name="EFERMI">      0.00000000</i>
  </separator>
  <separator name="writing" >
   <i type="int" name="NWRITE">     2</i>
   <i type="logical" name="LWAVE"> F  </i>
   <i type="logical" name="LDOWNSAMPLE"> F  </i>
   <i type="logical" name="LCHARG"> T  </i>
   <i type="logical" name="LPARD"> F  </i>
   <i type="logical" name="LVTOT"> T  </i>
   <i type="logical" name="LVHAR"> F  </i>
   <i type="logical" name="LELF"> T  </i>
   <i type="logical" name="LOPTICS"> F  </i>
   <v name="STM">      0.00000000      0.00000000      0.00000000      0.00000000      0.00000000      0.00000000      0.00000000</v>
  </separator>
  <separator name="performance" >
   <i type="int" name="NPAR">     1</i>
   <i type="int" name="NSIM">     4</i>
   <i type="int" name="NBLK">    -1</i>
   <i type="logical" name="LPLANE"> T  </i>
   <i type="logical" name="LSCALAPACK"> F  </i>
   <i type="logical" name="LSCAAWARE"> F  </i>
   <i type="logical" name="LSCALU"> F  </i>
   <i type="logical" name="LASYNC"> F  </i>
   <i type="logical" name="LORBITALREAL"> F  </i>
  </separator>
  <separator name="miscellaneous" >
   <i type="int" name="IDIOT">     3</i>
   <i type="int" name="PHON_NSTRUCT">    -1</i>
   <i type="logical" name="LMUSIC"> F  </i>
   <v name="POMASS">     28.08500000</v>
   <v name="DARWINR">      0.00000000</v>
   <v name="DARWINV">      1.00000000</v>
   <i type="logical" name="LCORR"> T  </i>
  </separator>
  <i type="logical" name="GGA_COMPAT"> T  </i>
  <i type="logical" name="LBERRY"> F  </i>
  <i type="int" name="ICORELEVEL">     0</i>
  <i type="logical" name="LDAU"> F  </i>
  <i type="int" name="I_CONSTRAINED_M">     0</i>
  <separator name="electronic exchange-correlation" >
   <i type="string" name="GGA">PE</i>
   <i type="int" name="VOSKOWN">     0</i>
   <i type="logical" name="LHFCALC"> T  </i>
   <i type="string" name="PRECFOCK">fast</i>
   <i type="logical" name="LSYMGRAD"> F  </i>
   <i type="logical" name="LHFONE"> F  </i>
   <i type="logical" name="LRHFCALC"> F  </i>
   <i type="logical" name="LTHOMAS"> F  </i>
   <i type="logical" name="LMODELHF"> F  </i>
   <i type="logical" name="LFOCKACE"> T  </i>
   <i name="ENCUT4O">     -1.00000000</i>
   <i type="int" name="EXXOEP">     0</i>
   <i type="int" name="FOURORBIT">     0</i>
   <i name="AEXX">      0.25000000</i>
   <i name="HFALPHA">     -1.00000000</i>
   <i name="MCALPHA">      0.00000000</i>
   <i name="ALDAX">      0.75000000</i>
   <i name="AGGAX">      0.75000000</i>
   <i name="ALDAC">      1.00000000</i>
   <i name="AGGAC">      1.00000000</i>
   <i type="int" name="NKREDX">     1</i>
   <i type="int" name="NKREDY">     1</i>
   <i type="int" name="NKREDZ">     1</i>
   <i type="logical" name="SHIFTRED"> F  </i>
   <i type="logical" name="ODDONLY"> F  </i>
   <i type="logical" name="EVENONLY"> F  </i>
   <i type="int" name="LMAXFOCK">     4</i>
   <i type="int" name="NMAXFOCKAE">     1</i>
   <i type="logical" name="LFOCKAEDFT"> F  </i>
   <i name="HFSCREEN">      0.20000000</i>
   <i name="HFSCREENC">      0.20000000</i>
   <i type="int" name="NBANDSGWLOW">     1</i>
  </separator>
  <separator name="vdW DFT" >
   <i type="logical" name="LUSE_VDW"> F  </i>
   <i name="Zab_VDW">     -0.84910000</i>
   <i name="PARAM1">      0.12340000</i>
   <i name="PARAM2">      1.00000000</i>
   <i name="PARAM3">      0.00000000</i>
  </separator>
  <separator name="model GW" >
   <i type="int" name="MODEL_GW">     0</i>
   <i name="MODEL_EPS0">     12.26648953</i>
   <i name="MODEL_ALPHA">      1.00000000</i>
  </separator>
  <separator name="linear response parameters" >
   <i type="logical" name="LEPSILON"> F  </i>
   <i type="logical" name="LRPA"> F  </i>
   <i type="logical" name="LNABLA"> F  </i>
   <i type="logical" name="LVEL"> F  </i>
   <i type="int" name="KINTER">     0</i>
   <i name="CSHIFT">      0.10000000</i>
   <i name="OMEGAMAX">     -1.00000000</i>
   <i name="DEG_THRESHOLD">      0.00200000</i>
   <i name="RTIME">     -0.10000000</i>
   <i name="WPLASMAI">      0.00000000</i>
   <v name="DFIELD">      0.00000000      0.00000000      0.00000000</v>
   <v name="WPLASMA">      0.00000000      0.00000000      0.00000000      0.00000000      0.00000000      0.00000000      0.00000000      0.00000000      0.00000000</v>
  </separator>
  <separator name="orbital magnetization" >
   <i type="logical" name="NUCIND"> F  </i>
   <v name="MAGPOS">      0.00000000      0.00000000      0.00000000</v>
   <i type="logical" name="LNICSALL"> T  </i>
   <i type="logical" name="ORBITALMAG"> F  </i>
   <i type="logical" name="LMAGBLOCH"> F  </i>
   <i type="logical" name="LCHIMAG"> F  </i>
   <i type="logical" name="LGAUGE"> T  </i>
   <i type="int" name="MAGATOM">     0</i>
   <v name="MAGDIPOL">      0.00000000      0.00000000      0.00000000</v>
   <v name="AVECCONST">      0.00000000      0.00000000      0.00000000</v>
  </separator>
  <separator name="response functions" >
   <i type="logical" name="LFINITE_TEMPERATURE"> F  </i>
   <i type="logical" name="LADDER"> F  </i>
   <i type="logical" name="LRPAFORCE"> F  </i>
   <i type="logical" name="LFXC"> F  </i>
   <i type="logical" name="LHARTREE"> T  </i>
   <i type="int" name="IBSE">     0</i>
   <v type="int" name="KPOINT">    -1     0     0     0</v>
   <i type="logical" name="LTCTC"> F  </i>
   <i type="logical" name="LTCTE"> F  </i>
   <i type="logical" name="LTETE"> F  </i>
   <i type="logical" name="LTRIPLET"> F  </i>
   <i type="logical" name="LFXCEPS"> F  </i>
   <i type="logical" name="LFXHEG"> F  </i>
   <i type="int" name="NATURALO">     2</i>
   <i type="logical" name="LHOLEGF"> F  </i>
   <i type="logical" name="L2ORDER"> F  </i>
   <i type="logical" name="LDMP1"> F  </i>
   <i type="logical" name="LMP2LT"> F  </i>
   <i type="logical" name="LSMP2LT"> F  </i>
   <i type="logical" name="LGWLF"> F  </i>
   <i name="ENCUTGW">     -2.00000000</i>
   <i name="ENCUTGWSOFT">     -2.00000000</i>
   <i name="ENCUTLF">     -1.00000000</i>
   <i type="logical" name="LESF_SPLINES"> F  </i>
   <i type="int" name="LMAXMP2">    -1</i>
   <i name="SCISSOR">      0.00000000</i>
   <i type="int" name="NOMEGA">     0</i>
   <i type="int" name="NOMEGAR">     0</i>
   <i type="int" name="NBANDSGW">    -1</i>
   <i type="int" name="NBANDSO">    -1</i>
   <i type="int" name="NBANDSV">    -1</i>
   <i type="int" name="NELM">   200</i>
   <i type="int" name="NELMHF">     1</i>
   <i type="int" name="DIM">     3</i>
   <i type="int" name="IESPILON">     4</i>
   <i type="int" name="ANTIRES">     0</i>
   <i name="OMEGAMAX">    -30.00000000</i>
   <i name="OMEGAMIN">    -30.00000000</i>
   <i name="OMEGATL">   -200.00000000</i>
   <i type="int" name="OMEGAGRID">     0</i>
   <i name="CSHIFT">     -0.10000000</i>
   <i type="logical" name="LSELFENERGY"> F  </i>
   <i type="logical" name="LSPECTRAL"> F  </i>
   <i type="logical" name="LSPECTRALGW"> F  </i>
   <i type="logical" name="LSINGLES"> F  </i>
   <i type="logical" name="LFERMIGW"> F  </i>
   <i type="logical" name="ODDONLYGW"> F  </i>
   <i type="logical" name="EVENONLYGW"> F  </i>
   <i type="int" name="NKREDLFX">     1</i>
   <i type="int" name="NKREDLFY">     1</i>
   <i type="int" name="NKREDLFZ">     1</i>
   <i type="int" name="MAXMEM">  2800</i>
   <i type="int" name="TELESCOPE">     0</i>
   <i type="int" name="NTAUPAR">    -1</i>
   <i type="int" name="NOMEGAPAR">    -1</i>
   <i name="DAMP_NEWTON">      0.80000001</i>
   <i name="LAMBDA">      1.00000000</i>
  </separator>
  <separator name="External order field" >
   <i name="OFIELD_KAPPA">      0.00000000</i>
   <v name="OFIELD_K">      0.00000000      0.00000000      0.00000000</v>
   <i name="OFIELD_Q6_NEAR">      0.00000000</i>
   <i name="OFIELD_Q6_FAR">      0.00000000</i>
   <i name="OFIELD_A">      0.00000000</i>
  </separator>
 </parameters>
 <atominfo>
  <atoms>       2 </atoms>
  <types>       1 </types>
  <array name="atoms" >
   <dimension dim="1">ion</dimension>
   <field type="string">element</field>
   <field type="int">atomtype</field>
   <set>
    <rc><c>Si</c><c>   1</c></rc>
    <rc><c>Si</c><c>   1</c></rc>
   </set>
  </array>
  <array name="atomtypes" >
   <dimension dim="1">type</dimension>
   <field type="int">atomspertype</field>
   <field type="string">element</field>
   <field>mass</field>
   <field>valence</field>
   <field type="string">pseudopotential</field>
   <set>
    <rc><c>   2</c><c>Si</c><c>     28.08500000</c><c>      4.00000000</c><c>  PAW_PBE Si 05Jan2001                  </c></rc>
   </set>
  </array>
 </atominfo>
 <structure name="initialpos" >
  <crystal>
   <varray name="basis" >
    <v>       3.34889800       0.00000000       1.93348700 </v>
    <v>       1.11629900       3.15737200       1.93348700 </v>
    <v>       0.00000000       0.00000000       3.86697500 </v>
   </varray>
   <i name="volume">     40.88829843 </i>
   <varray name="rec_basis" >
    <v>       0.29860569      -0.10557300       0.00000000 </v>
    <v>       0.00000000       0.31671909       0.00000000 </v>
    <v>      -0.14930281      -0.10557302       0.25860007 </v>
   </varray>
  </crystal>
  <varray name="positions" >
   <v>       0.25000000       0.25000000       0.25000000 </v>
   <v>       0.00000000       0.00000000       0.00000000 </v>
  </varray>
 </structure>
 <calculation>
  <scstep>
   <time name="total">    0.65    0.66</time>
   <energy>
    <i name="alphaZ">      3.29317992 </i>
    <i name="ewald">   -226.94489173 </i>
    <i name="hartreedc">    -11.32339116 </i>
    <i name="XCdc">    -18.60636939 </i>
    <i name="pawpsdc">    176.18363791 </i>
    <i name="pawaedc">   -391.56082810 </i>
    <i name="eentropy">      0.00000000 </i>
    <i name="bandstr">     19.74004984 </i>
    <i name="atom">    203.99906502 </i>
    <i name="e_fr_energy">   -245.21954770 </i>
    <i name="e_wo_entrp">   -245.21954770 </i>
    <i name="e_0_energy">   -245.21954770 </i>
   </energy>
  </scstep>
  <scstep>
   <time name="total">    0.37    0.37</time>
   <energy>
    <i name="e_fr_energy">   -266.53606776 </i>
    <i name="e_wo_entrp">   -266.53606776 </i>
    <i name="e_0_energy">   -266.53606776 </i>
   </energy>
  </scstep>
  <scstep>
   <time name="total">    0.41    0.41</time>
   <energy>
    <i name="e_fr_energy">   -267.14417366 </i>
    <i name="e_wo_entrp">   -267.14417366 </i>
    <i name="e_0_energy">   -267.14417366 </i>
   </energy>
  </scstep>
  <scstep>
   <time name="total">    0.58    0.59</time>
   <energy>
    <i name="e_fr_energy">   -267.14821717 </i>
    <i name="e_wo_entrp">   -267.14821717 </i>
    <i name="e_0_energy">   -267.14821717 </i>
   </energy>
  </scstep>
  <scstep>
   <time name="total">    6.60    6.67</time>
   <energy>
    <i name="e_fr_energy">    -12.67932491 </i>
    <i name="e_wo_entrp">    -12.67932491 </i>
    <i name="e_0_energy">    -12.67932491 </i>
   </energy>
  </scstep>
  <scstep>
   <time name="total">   16.01   16.81</time>
   <energy>
    <i name="e_fr_energy">    -12.28886367 </i>
    <i name="e_wo_entrp">    -12.28886367 </i>
    <i name="e_0_energy">    -12.28886367 </i>
   </energy>
  </scstep>
  <scstep>
   <time name="total">   12.85   13.01</time>
   <energy>
    <i name="e_fr_energy">    -12.39063890 </i>
    <i name="e_wo_entrp">    -12.39063890 </i>
    <i name="e_0_energy">    -12.39063890 </i>
   </energy>
  </scstep>
  <scstep>
   <time name="total">    9.46    9.48</time>
   <energy>
    <i name="e_fr_energy">    -12.40938220 </i>
    <i name="e_wo_entrp">    -12.40938220 </i>
    <i name="e_0_energy">    -12.40938220 </i>
   </energy>
  </scstep>
  <scstep>
   <time name="total">    9.52    9.54</time>
   <energy>
    <i name="e_fr_energy">    -12.41602351 </i>
    <i name="e_wo_entrp">    -12.41602351 </i>
    <i name="e_0_energy">    -12.41602351 </i>
   </energy>
  </scstep>
  <scstep>
   <time name="total">    9.81    9.83</time>
   <energy>
    <i name="e_fr_energy">    -12.41740080 </i>
    <i name="e_wo_entrp">    -12.41740080 </i>
    <i name="e_0_energy">    -12.41740080 </i>
   </energy>
  </scstep>
  <scstep>
   <time name="total">    9.57    9.60</time>
   <energy>
    <i name="e_fr_energy">    -12.41763036 </i>
    <i name="e_wo_entrp">    -12.41763036 </i>
    <i name="e_0_energy">    -12.41763036 </i>
   </energy>
  </scstep>
  <scstep>
   <time name="total">    9.54    9.56</time>
   <energy>
    <i name="e_fr_energy">    -12.41766713 </i>
    <i name="e_wo_entrp">    -12.41766713 </i>
    <i name="e_0_energy">    -12.41766713 </i>
   </energy>
  </scstep>
  <scstep>
   <time name="total">   13.70   13.73</time>
   <energy>
    <i name="alphaZ">      3.29317992 </i>
    <i name="ewald">   -226.94489173 </i>
    <i name="hartreedc">    -15.52478519 </i>
    <i name="XCdc">    -14.41839953 </i>
    <i name="pawpsdc">   1649.33421531 </i>
    <i name="pawaedc">  -1621.69131158 </i>
    <i name="eentropy">      0.00000000 </i>
    <i name="bandstr">     -1.74452246 </i>
    <i name="atom">    203.99906502 </i>
    <i name="e_fr_energy">    -12.41767353 </i>
    <i name="e_wo_entrp">    -12.41767353 </i>
    <i name="e_0_energy">    -12.41767353 </i>
   </energy>
  </scstep>
  <structure>
   <crystal>
    <varray name="basis" >
     <v>       3.34889800       0.00000000       1.93348700 </v>
     <v>       1.11629900       3.15737200       1.93348700 </v>
     <v>       0.00000000       0.00000000       3.86697500 </v>
    </varray>
    <i name="volume">     40.88829843 </i>
    <varray name="rec_basis" >
     <v>       0.29860569      -0.10557300       0.00000000 </v>
     <v>       0.00000000       0.31671909       0.00000000 </v>
     <v>      -0.14930281      -0.10557302       0.25860007 </v>
    </varray>
   </crystal>
   <varray name="positions" >
    <v>       0.25000000       0.25000000       0.25000000 </v>
    <v>       0.00000000       0.00000000       0.00000000 </v>
   </varray>
  </structure>
  <varray name="forces" >
   <v>       0.00000000       0.00000000       0.00000000 </v>
   <v>      -0.00000000      -0.00000000      -0.00000000 </v>
  </varray>
  <varray name="stress" >
   <v>     -12.95722176       0.00000137       0.00000193 </v>
   <v>       0.00000137     -12.95722739       0.00000137 </v>
   <v>       0.00000193       0.00000137     -12.95722629 </v>
  </varray>
  <energy>
   <i name="e_fr_energy">    -12.41767353 </i>
   <i name="e_wo_entrp">    -12.41767353 </i>
   <i name="e_0_energy">    -12.41767353 </i>
  </energy>
  <time name="totalsc">  105.34  106.55</time>
  <eigenvalues>
   <array>
    <dimension dim="1">band</dimension>
    <dimension dim="2">kpoint</dimension>
    <dimension dim="3">spin</dimension>
    <field>eigene</field>
    <field>occ</field>
    <set>
     <set comment="spin 1">
      <set comment="kpoint 1">
       <r>   -7.8526    1.0000 </r>
       <r>    5.2611    1.0000 </r>
       <r>    5.2611    1.0000 </r>
       <r>    5.2611    1.0000 </r>
       <r>    8.6189    0.0000 </r>
       <r>    8.6189    0.0000 </r>
       <r>    8.6189    0.0000 </r>
       <r>    9.4019    0.0000 </r>
       <r>   14.0296    0.0000 </r>
      </set>
      <set comment="kpoint 2">
       <r>   -6.9814    1.0000 </r>
       <r>    1.0364    1.0000 </r>
       <r>    4.4654    1.0000 </r>
       <r>    4.4654    1.0000 </r>
       <r>    8.0129    0.0000 </r>
       <r>    9.6113    0.0000 </r>
       <r>    9.6113    0.0000 </r>
       <r>   13.1235    0.0000 </r>
       <r>   13.4815    0.0000 </r>
      </set>
      <set comment="kpoint 3">
       <r>   -5.3166    1.0000 </r>
       <r>   -2.3235    1.0000 </r>
       <r>    3.9725    1.0000 </r>
       <r>    3.9725    1.0000 </r>
       <r>    7.4893    0.0000 </r>
       <r>    9.4463    0.0000 </r>
       <r>    9.4463    0.0000 </r>
       <r>   13.8955    0.0000 </r>
       <r>   17.2053    0.0000 </r>
      </set>
      <set comment="kpoint 4">
       <r>   -6.6726    1.0000 </r>
       <r>    1.4529    1.0000 </r>
       <r>    3.2601    1.0000 </r>
       <r>    3.2601    1.0000 </r>
       <r>    7.0800    0.0000 </r>
       <r>    9.2000    0.0000 </r>
       <r>   11.9848    0.0000 </r>
       <r>   11.9849    0.0000 </r>
       <r>   14.3179    0.0000 </r>
      </set>
      <set comment="kpoint 5">
       <r>   -4.8864    1.0000 </r>
       <r>   -1.7123    1.0000 </r>
       <r>    1.5228    1.0000 </r>
       <r>    2.9029    1.0000 </r>
       <r>    7.4963    0.0000 </r>
       <r>   10.5568    0.0000 </r>
       <r>   11.9462    0.0000 </r>
       <r>   12.1648    0.0000 </r>
       <r>   16.6191    0.0000 </r>
      </set>
      <set comment="kpoint 6">
       <r>   -5.6235    1.0000 </r>
       <r>   -0.7188    1.0000 </r>
       <r>    1.2951    1.0000 </r>
       <r>    3.8534    1.0000 </r>
       <r>    8.4846    0.0000 </r>
       <r>   11.0047    0.0000 </r>
       <r>   11.2339    0.0000 </r>
       <r>   12.3624    0.0000 </r>
       <r>   12.6692    0.0000 </r>
      </set>
      <set comment="kpoint 7">
       <r>   -3.3122    1.0000 </r>
       <r>   -3.3122    1.0000 </r>
       <r>    2.1912    1.0000 </r>
       <r>    2.1912    1.0000 </r>
       <r>    6.6452    0.0000 </r>
       <r>    6.6452    0.0000 </r>
       <r>   16.6061    0.0000 </r>
       <r>   16.6129    0.0000 </r>
       <r>   17.4601    0.0000 </r>
      </set>
      <set comment="kpoint 8">
       <r>   -3.1403    1.0000 </r>
       <r>   -3.1403    1.0000 </r>
       <r>    1.1846    1.0000 </r>
       <r>    1.1846    1.0000 </r>
       <r>   10.3447    0.0000 </r>
       <r>   10.3447    0.0000 </r>
       <r>   11.1995    0.0000 </r>
       <r>   11.1995    0.0000 </r>
       <r>   17.0719    0.0000 </r>
      </set>
     </set>
     <set comment="spin 2">
      <set comment="kpoint 1">
       <r>   -7.8526    1.0000 </r>
       <r>    5.2615    1.0000 </r>
       <r>    5.2615    1.0000 </r>
       <r>    5.2615    1.0000 </r>
       <r>    8.6187    0.0000 </r>
       <r>    8.6187    0.0000 </r>
       <r>    8.6187    0.0000 </r>
       <r>    9.4019    0.0000 </r>
       <r>   14.0640    0.0000 </r>
      </set>
      <set comment="kpoint 2">
       <r>   -6.9814    1.0000 </r>
       <r>    1.0365    1.0000 </r>
       <r>    4.4657    1.0000 </r>
       <r>    4.4657    1.0000 </r>
       <r>    8.0128    0.0000 </r>
       <r>    9.6111    0.0000 </r>
       <r>    9.6112    0.0000 </r>
       <r>   13.1250    0.0000 </r>
       <r>   13.4813    0.0000 </r>
      </set>
      <set comment="kpoint 3">
       <r>   -5.3165    1.0000 </r>
       <r>   -2.3235    1.0000 </r>
       <r>    3.9728    1.0000 </r>
       <r>    3.9728    1.0000 </r>
       <r>    7.4892    0.0000 </r>
       <r>    9.4460    0.0000 </r>
       <r>    9.4461    0.0000 </r>
       <r>   13.8951    0.0000 </r>
       <r>   17.1680    0.0000 </r>
      </set>
      <set comment="kpoint 4">
       <r>   -6.6726    1.0000 </r>
       <r>    1.4532    1.0000 </r>
       <r>    3.2602    1.0000 </r>
       <r>    3.2602    1.0000 </r>
       <r>    7.0797    0.0000 </r>
       <r>    9.1998    0.0000 </r>
       <r>   11.9848    0.0000 </r>
       <r>   11.9848    0.0000 </r>
       <r>   14.3176    0.0000 </r>
      </set>
      <set comment="kpoint 5">
       <r>   -4.8863    1.0000 </r>
       <r>   -1.7122    1.0000 </r>
       <r>    1.5228    1.0000 </r>
       <r>    2.9030    1.0000 </r>
       <r>    7.4960    0.0000 </r>
       <r>   10.5567    0.0000 </r>
       <r>   11.9462    0.0000 </r>
       <r>   12.1647    0.0000 </r>
       <r>   16.6310    0.0000 </r>
      </set>
      <set comment="kpoint 6">
       <r>   -5.6234    1.0000 </r>
       <r>   -0.7186    1.0000 </r>
       <r>    1.2951    1.0000 </r>
       <r>    3.8536    1.0000 </r>
       <r>    8.4843    0.0000 </r>
       <r>   11.0045    0.0000 </r>
       <r>   11.2340    0.0000 </r>
       <r>   12.3622    0.0000 </r>
       <r>   12.6690    0.0000 </r>
      </set>
      <set comment="kpoint 7">
       <r>   -3.3120    1.0000 </r>
       <r>   -3.3120    1.0000 </r>
       <r>    2.1913    1.0000 </r>
       <r>    2.1913    1.0000 </r>
       <r>    6.6449    0.0000 </r>
       <r>    6.6449    0.0000 </r>
       <r>   16.6060    0.0000 </r>
       <r>   16.6084    0.0000 </r>
       <r>   17.4618    0.0000 </r>
      </set>
      <set comment="kpoint 8">
       <r>   -3.1401    1.0000 </r>
       <r>   -3.1401    1.0000 </r>
       <r>    1.1845    1.0000 </r>
       <r>    1.1845    1.0000 </r>
       <r>   10.3446    0.0000 </r>
       <r>   10.3446    0.0000 </r>
       <r>   11.1993    0.0000 </r>
       <r>   11.1993    0.0000 </r>
       <r>   17.0717    0.0000 </r>
      </set>
     </set>
    </set>
   </array>
  </eigenvalues>
  <separator name="orbital magnetization" >
   <v name="MAGDIPOLOUT">      0.00000000      0.00000000      0.00000000</v>
  </separator>
  <dos>
   <i name="efermi">      6.64514367 </i>
   <total>
    <array>
     <dimension dim="1">gridpoints</dimension>
     <dimension dim="2">spin</dimension>
     <field>energy</field>
     <field>total</field>
     <field>integrated</field>
     <set>
      <set comment="spin 1">
       <r>    -9.1183     0.0000     0.0000 </r>
       <r>    -9.0255     0.0000     0.0000 </r>
       <r>    -8.9327     0.0000     0.0000 </r>
       <r>    -8.8399     0.0000     0.0000 </r>
       <r>    -8.7470     0.0000     0.0000 </r>
       <r>    -8.6542     0.0000     0.0000 </r>
       <r>    -8.5614     0.0000     0.0000 </r>
       <r>    -8.4686     0.0000     0.0000 </r>
       <r>    -8.3758     0.0000     0.0000 </r>
       <r>    -8.2829     0.0000     0.0000 </r>
       <r>    -8.1901     0.0000     0.0000 </r>
       <r>    -8.0973     0.0000     0.0000 </r>
       <r>    -8.0045     0.0000     0.0000 </r>
       <r>    -7.9117     0.0000     0.0000 </r>
       <r>    -7.8188     0.0002     0.0000 </r>
       <r>    -7.7260     0.0034     0.0001 </r>
       <r>    -7.6332     0.0101     0.0007 </r>
       <r>    -7.5404     0.0204     0.0021 </r>
       <r>    -7.4476     0.0343     0.0046 </r>
       <r>    -7.3547     0.0519     0.0086 </r>
       <r>    -7.2619     0.0731     0.0144 </r>
       <r>    -7.1691     0.0978     0.0223 </r>
       <r>    -7.0763     0.1262     0.0327 </r>
       <r>    -6.9835     0.1582     0.0458 </r>
       <r>    -6.8906     0.1499     0.0601 </r>
       <r>    -6.7978     0.1475     0.0739 </r>
       <r>    -6.7050     0.1518     0.0877 </r>
       <r>    -6.6122     0.1616     0.1022 </r>
       <r>    -6.5194     0.1723     0.1177 </r>
       <r>    -6.4266     0.1835     0.1342 </r>
       <r>    -6.3337     0.1952     0.1518 </r>
       <r>    -6.2409     0.2074     0.1705 </r>
       <r>    -6.1481     0.2200     0.1903 </r>
       <r>    -6.0553     0.2332     0.2113 </r>
       <r>    -5.9625     0.2468     0.2336 </r>
       <r>    -5.8696     0.2609     0.2572 </r>
       <r>    -5.7768     0.2755     0.2821 </r>
       <r>    -5.6840     0.2906     0.3083 </r>
       <r>    -5.5912     0.3078     0.3361 </r>
       <r>    -5.4984     0.3461     0.3662 </r>
       <r>    -5.4055     0.4109     0.4011 </r>
       <r>    -5.3127     0.5023     0.4433 </r>
       <r>    -5.2199     0.5745     0.4937 </r>
       <r>    -5.1271     0.5891     0.5482 </r>
       <r>    -5.0343     0.5459     0.6013 </r>
       <r>    -4.9414     0.4450     0.6477 </r>
       <r>    -4.8486     0.3523     0.6833 </r>
       <r>    -4.7558     0.3383     0.7154 </r>
       <r>    -4.6630     0.3235     0.7461 </r>
       <r>    -4.5702     0.3080     0.7754 </r>
       <r>    -4.4773     0.2917     0.8033 </r>
       <r>    -4.3845     0.2747     0.8296 </r>
       <r>    -4.2917     0.2569     0.8542 </r>
       <r>    -4.1989     0.2384     0.8772 </r>
       <r>    -4.1061     0.2192     0.8985 </r>
       <r>    -4.0133     0.1992     0.9179 </r>
       <r>    -3.9204     0.1784     0.9354 </r>
       <r>    -3.8276     0.1569     0.9510 </r>
       <r>    -3.7348     0.1347     0.9645 </r>
       <r>    -3.6420     0.1117     0.9760 </r>
       <r>    -3.5492     0.0880     0.9852 </r>
       <r>    -3.4563     0.0635     0.9923 </r>
       <r>    -3.3635     0.0383     0.9970 </r>
       <r>    -3.2707     0.0153     0.9994 </r>
       <r>    -3.1779     0.0168     1.0007 </r>
       <r>    -3.0851     0.0420     1.0033 </r>
       <r>    -2.9922     0.0687     1.0085 </r>
       <r>    -2.8994     0.0946     1.0161 </r>
       <r>    -2.8066     0.1196     1.0260 </r>
       <r>    -2.7138     0.1437     1.0382 </r>
       <r>    -2.6210     0.1670     1.0527 </r>
       <r>    -2.5281     0.1894     1.0692 </r>
       <r>    -2.4353     0.2109     1.0878 </r>
       <r>    -2.3425     0.2316     1.1083 </r>
       <r>    -2.2497     0.2554     1.1309 </r>
       <r>    -2.1569     0.2909     1.1561 </r>
       <r>    -2.0640     0.3382     1.1852 </r>
       <r>    -1.9712     0.3974     1.2193 </r>
       <r>    -1.8784     0.4685     1.2594 </r>
       <r>    -1.7856     0.5514     1.3066 </r>
       <r>    -1.6928     0.6086     1.3617 </r>
       <r>    -1.5999     0.5337     1.4147 </r>
       <r>    -1.5071     0.4659     1.4610 </r>
       <r>    -1.4143     0.4051     1.5014 </r>
       <r>    -1.3215     0.3513     1.5365 </r>
       <r>    -1.2287     0.3046     1.5668 </r>
       <r>    -1.1359     0.2649     1.5932 </r>
       <r>    -1.0430     0.2322     1.6162 </r>
       <r>    -0.9502     0.2066     1.6365 </r>
       <r>    -0.8574     0.1880     1.6548 </r>
       <r>    -0.7646     0.1764     1.6717 </r>
       <r>    -0.6718     0.1709     1.6877 </r>
       <r>    -0.5789     0.1665     1.7034 </r>
       <r>    -0.4861     0.1622     1.7187 </r>
       <r>    -0.3933     0.1580     1.7335 </r>
       <r>    -0.3005     0.1540     1.7480 </r>
       <r>    -0.2077     0.1501     1.7621 </r>
       <r>    -0.1148     0.1463     1.7759 </r>
       <r>    -0.0220     0.1427     1.7893 </r>
       <r>     0.0708     0.1392     1.8023 </r>
       <r>     0.1636     0.1359     1.8151 </r>
       <r>     0.2564     0.1327     1.8276 </r>
       <r>     0.3493     0.1296     1.8397 </r>
       <r>     0.4421     0.1267     1.8516 </r>
       <r>     0.5349     0.1239     1.8633 </r>
       <r>     0.6277     0.1212     1.8746 </r>
       <r>     0.7205     0.1187     1.8858 </r>
       <r>     0.8134     0.1164     1.8967 </r>
       <r>     0.9062     0.1141     1.9074 </r>
       <r>     0.9990     0.1120     1.9179 </r>
       <r>     1.0918     0.0946     1.9277 </r>
       <r>     1.1846     0.0716     1.9354 </r>
       <r>     1.2775     0.5964     1.9580 </r>
       <r>     1.3703     1.4983     2.0620 </r>
       <r>     1.4631     1.3588     2.2029 </r>
       <r>     1.5559     0.6746     2.2892 </r>
       <r>     1.6487     0.6223     2.3493 </r>
       <r>     1.7415     0.5820     2.4051 </r>
       <r>     1.8344     0.5538     2.4577 </r>
       <r>     1.9272     0.5374     2.5083 </r>
       <r>     2.0200     0.5331     2.5579 </r>
       <r>     2.1128     0.5408     2.6076 </r>
       <r>     2.2056     0.5603     2.6586 </r>
       <r>     2.2985     0.5825     2.7117 </r>
       <r>     2.3913     0.6025     2.7667 </r>
       <r>     2.4841     0.6201     2.8235 </r>
       <r>     2.5769     0.6354     2.8817 </r>
       <r>     2.6697     0.6483     2.9413 </r>
       <r>     2.7626     0.6590     3.0020 </r>
       <r>     2.8554     0.6673     3.0636 </r>
       <r>     2.9482     0.6760     3.1259 </r>
       <r>     3.0410     0.6843     3.1890 </r>
       <r>     3.1338     0.6893     3.2528 </r>
       <r>     3.2267     0.6908     3.3169 </r>
       <r>     3.3195     0.6886     3.3810 </r>
       <r>     3.4123     0.6817     3.4446 </r>
       <r>     3.5051     0.6699     3.5074 </r>
       <r>     3.5979     0.6533     3.5688 </r>
       <r>     3.6908     0.6317     3.6285 </r>
       <r>     3.7836     0.6054     3.6859 </r>
       <r>     3.8764     0.5729     3.7407 </r>
       <r>     3.9692     0.5066     3.7911 </r>
       <r>     4.0620     0.4216     3.8341 </r>
       <r>     4.1548     0.3484     3.8698 </r>
       <r>     4.2477     0.2869     3.8992 </r>
       <r>     4.3405     0.2373     3.9234 </r>
       <r>     4.4333     0.1995     3.9436 </r>
       <r>     4.5261     0.1614     3.9605 </r>
       <r>     4.6189     0.1232     3.9736 </r>
       <r>     4.7118     0.0902     3.9835 </r>
       <r>     4.8046     0.0623     3.9905 </r>
       <r>     4.8974     0.0395     3.9952 </r>
       <r>     4.9902     0.0219     3.9980 </r>
       <r>     5.0830     0.0095     3.9994 </r>
       <r>     5.1759     0.0022     3.9999 </r>
       <r>     5.2687     0.0000     4.0000 </r>
       <r>     5.3615     0.0000     4.0000 </r>
       <r>     5.4543     0.0000     4.0000 </r>
       <r>     5.5471     0.0000     4.0000 </r>
       <r>     5.6400     0.0000     4.0000 </r>
       <r>     5.7328     0.0000     4.0000 </r>
       <r>     5.8256     0.0000     4.0000 </r>
       <r>     5.9184     0.0000     4.0000 </r>
       <r>     6.0112     0.0000     4.0000 </r>
       <r>     6.1041     0.0000     4.0000 </r>
       <r>     6.1969     0.0000     4.0000 </r>
       <r>     6.2897     0.0000     4.0000 </r>
       <r>     6.3825     0.0000     4.0000 </r>
       <r>     6.4753     0.0000     4.0000 </r>
       <r>     6.5682     0.0000     4.0000 </r>
       <r>     6.6610     0.0002     4.0000 </r>
       <r>     6.7538     0.0088     4.0003 </r>
       <r>     6.8466     0.0303     4.0020 </r>
       <r>     6.9394     0.0646     4.0063 </r>
       <r>     7.0322     0.1119     4.0144 </r>
       <r>     7.1251     0.1705     4.0275 </r>
       <r>     7.2179     0.2309     4.0461 </r>
       <r>     7.3107     0.2915     4.0703 </r>
       <r>     7.4035     0.3522     4.1002 </r>
       <r>     7.4963     0.7950     4.1366 </r>
       <r>     7.5892     0.9297     4.2170 </r>
       <r>     7.6820     1.0172     4.3078 </r>
       <r>     7.7748     1.0578     4.4044 </r>
       <r>     7.8676     1.0512     4.5027 </r>
       <r>     7.9604     0.9976     4.5981 </r>
       <r>     8.0533     0.8443     4.6853 </r>
       <r>     8.1461     0.6401     4.7538 </r>
       <r>     8.2389     0.4789     4.8054 </r>
       <r>     8.3317     0.3607     4.8441 </r>
       <r>     8.4245     0.2855     4.8737 </r>
       <r>     8.5174     0.2511     4.8984 </r>
       <r>     8.6102     0.2312     4.9207 </r>
       <r>     8.7030     0.2187     4.9415 </r>
       <r>     8.7958     0.2140     4.9616 </r>
       <r>     8.8886     0.2173     4.9815 </r>
       <r>     8.9815     0.2284     5.0021 </r>
       <r>     9.0743     0.2474     5.0242 </r>
       <r>     9.1671     0.2743     5.0483 </r>
       <r>     9.2599     0.3059     5.0753 </r>
       <r>     9.3527     0.3307     5.1049 </r>
       <r>     9.4455     0.3479     5.1364 </r>
       <r>     9.5384     0.3748     5.1697 </r>
       <r>     9.6312     0.4326     5.2069 </r>
       <r>     9.7240     0.5085     5.2506 </r>
       <r>     9.8168     0.5768     5.3010 </r>
       <r>     9.9096     0.6374     5.3575 </r>
       <r>    10.0025     0.6903     5.4191 </r>
       <r>    10.0953     0.7356     5.4854 </r>
       <r>    10.1881     0.7733     5.5555 </r>
       <r>    10.2809     0.8033     5.6287 </r>
       <r>    10.3737     0.8450     5.7045 </r>
       <r>    10.4666     1.1811     5.7956 </r>
       <r>    10.5594     1.8609     5.9357 </r>
       <r>    10.6522     1.2691     6.0799 </r>
       <r>    10.7450     0.8169     6.1756 </r>
       <r>    10.8378     0.5043     6.2359 </r>
       <r>    10.9307     0.3314     6.2736 </r>
       <r>    11.0235     0.2951     6.3017 </r>
       <r>    11.1163     0.3027     6.3294 </r>
       <r>    11.2091     0.3131     6.3578 </r>
       <r>    11.3019     0.5356     6.3966 </r>
       <r>    11.3948     0.7310     6.4558 </r>
       <r>    11.4876     0.8729     6.5307 </r>
       <r>    11.5804     0.9613     6.6162 </r>
       <r>    11.6732     0.9961     6.7075 </r>
       <r>    11.7660     0.9775     6.7995 </r>
       <r>    11.8589     0.9053     6.8873 </r>
       <r>    11.9517     0.7374     6.9658 </r>
       <r>    12.0445     0.7667     7.0278 </r>
       <r>    12.1373     1.3204     7.1216 </r>
       <r>    12.2301     1.1430     7.2485 </r>
       <r>    12.3229     0.8224     7.3373 </r>
       <r>    12.4158     0.7648     7.4100 </r>
       <r>    12.5086     0.7286     7.4794 </r>
       <r>    12.6014     0.6844     7.5450 </r>
       <r>    12.6942     0.6324     7.6062 </r>
       <r>    12.7870     0.5760     7.6623 </r>
       <r>    12.8799     0.5168     7.7130 </r>
       <r>    12.9727     0.4545     7.7581 </r>
       <r>    13.0655     0.3893     7.7973 </r>
       <r>    13.1583     0.3402     7.8306 </r>
       <r>    13.2511     0.3287     7.8616 </r>
       <r>    13.3440     0.3269     7.8920 </r>
       <r>    13.4368     0.3349     7.9226 </r>
       <r>    13.5296     0.3621     7.9547 </r>
       <r>    13.6224     0.3887     7.9896 </r>
       <r>    13.7152     0.4000     8.0264 </r>
       <r>    13.8081     0.3958     8.0634 </r>
       <r>    13.9009     0.3763     8.0994 </r>
       <r>    13.9937     0.3389     8.1327 </r>
       <r>    14.0865     0.2886     8.1618 </r>
       <r>    14.1793     0.2528     8.1868 </r>
       <r>    14.2722     0.2343     8.2093 </r>
       <r>    14.3650     0.2311     8.2308 </r>
       <r>    14.4578     0.2303     8.2522 </r>
       <r>    14.5506     0.2299     8.2736 </r>
       <r>    14.6434     0.2300     8.2949 </r>
       <r>    14.7363     0.2304     8.3163 </r>
       <r>    14.8291     0.2312     8.3377 </r>
       <r>    14.9219     0.2324     8.3592 </r>
       <r>    15.0147     0.2341     8.3809 </r>
       <r>    15.1075     0.2361     8.4027 </r>
       <r>    15.2003     0.2385     8.4247 </r>
       <r>    15.2932     0.2414     8.4470 </r>
       <r>    15.3860     0.2446     8.4695 </r>
       <r>    15.4788     0.2482     8.4924 </r>
       <r>    15.5716     0.2523     8.5156 </r>
       <r>    15.6644     0.2567     8.5392 </r>
       <r>    15.7573     0.2616     8.5633 </r>
       <r>    15.8501     0.2668     8.5878 </r>
       <r>    15.9429     0.2724     8.6128 </r>
       <r>    16.0357     0.2785     8.6384 </r>
       <r>    16.1285     0.2849     8.6645 </r>
       <r>    16.2214     0.2918     8.6913 </r>
       <r>    16.3142     0.2990     8.7187 </r>
       <r>    16.4070     0.3067     8.7468 </r>
       <r>    16.4998     0.3148     8.7757 </r>
       <r>    16.5926     0.3232     8.8053 </r>
       <r>    16.6855     0.3659     8.8369 </r>
       <r>    16.7783     0.3904     8.8723 </r>
       <r>    16.8711     0.3777     8.9082 </r>
       <r>    16.9639     0.3280     8.9413 </r>
       <r>    17.0567     0.2412     8.9680 </r>
       <r>    17.1496     0.1407     8.9855 </r>
       <r>    17.2424     0.0688     8.9950 </r>
       <r>    17.3352     0.0226     8.9991 </r>
       <r>    17.4280     0.0015     9.0000 </r>
       <r>    17.5208     0.0000     9.0000 </r>
       <r>    17.6136     0.0000     9.0000 </r>
       <r>    17.7065     0.0000     9.0000 </r>
       <r>    17.7993     0.0000     9.0000 </r>
       <r>    17.8921     0.0000     9.0000 </r>
       <r>    17.9849     0.0000     9.0000 </r>
       <r>    18.0777     0.0000     9.0000 </r>
       <r>    18.1706     0.0000     9.0000 </r>
       <r>    18.2634     0.0000     9.0000 </r>
       <r>    18.3562     0.0000     9.0000 </r>
       <r>    18.4490     0.0000     9.0000 </r>
       <r>    18.5418     0.0000     9.0000 </r>
       <r>    18.6347     0.0000     9.0000 </r>
       <r>    18.7275     0.0000     9.0000 </r>
      </set>
      <set comment="spin 2">
       <r>    -9.1183     0.0000     0.0000 </r>
       <r>    -9.0255     0.0000     0.0000 </r>
       <r>    -8.9327     0.0000     0.0000 </r>
       <r>    -8.8399     0.0000     0.0000 </r>
       <r>    -8.7470     0.0000     0.0000 </r>
       <r>    -8.6542     0.0000     0.0000 </r>
       <r>    -8.5614     0.0000     0.0000 </r>
       <r>    -8.4686     0.0000     0.0000 </r>
       <r>    -8.3758     0.0000     0.0000 </r>
       <r>    -8.2829     0.0000     0.0000 </r>
       <r>    -8.1901     0.0000     0.0000 </r>
       <r>    -8.0973     0.0000     0.0000 </r>
       <r>    -8.0045     0.0000     0.0000 </r>
       <r>    -7.9117     0.0000     0.0000 </r>
       <r>    -7.8188     0.0002     0.0000 </r>
       <r>    -7.7260     0.0034     0.0001 </r>
       <r>    -7.6332     0.0101     0.0007 </r>
       <r>    -7.5404     0.0204     0.0021 </r>
       <r>    -7.4476     0.0343     0.0046 </r>
       <r>    -7.3547     0.0519     0.0086 </r>
       <r>    -7.2619     0.0730     0.0144 </r>
       <r>    -7.1691     0.0978     0.0223 </r>
       <r>    -7.0763     0.1262     0.0327 </r>
       <r>    -6.9835     0.1582     0.0458 </r>
       <r>    -6.8906     0.1499     0.0601 </r>
       <r>    -6.7978     0.1475     0.0739 </r>
       <r>    -6.7050     0.1518     0.0877 </r>
       <r>    -6.6122     0.1616     0.1022 </r>
       <r>    -6.5194     0.1723     0.1177 </r>
       <r>    -6.4266     0.1835     0.1342 </r>
       <r>    -6.3337     0.1952     0.1518 </r>
       <r>    -6.2409     0.2073     0.1705 </r>
       <r>    -6.1481     0.2200     0.1903 </r>
       <r>    -6.0553     0.2331     0.2113 </r>
       <r>    -5.9625     0.2468     0.2336 </r>
       <r>    -5.8696     0.2609     0.2572 </r>
       <r>    -5.7768     0.2755     0.2820 </r>
       <r>    -5.6840     0.2906     0.3083 </r>
       <r>    -5.5912     0.3078     0.3360 </r>
       <r>    -5.4984     0.3460     0.3662 </r>
       <r>    -5.4055     0.4108     0.4011 </r>
       <r>    -5.3127     0.5021     0.4433 </r>
       <r>    -5.2199     0.5745     0.4937 </r>
       <r>    -5.1271     0.5891     0.5481 </r>
       <r>    -5.0343     0.5460     0.6012 </r>
       <r>    -4.9414     0.4451     0.6477 </r>
       <r>    -4.8486     0.3523     0.6833 </r>
       <r>    -4.7558     0.3383     0.7154 </r>
       <r>    -4.6630     0.3235     0.7461 </r>
       <r>    -4.5702     0.3080     0.7754 </r>
       <r>    -4.4773     0.2917     0.8032 </r>
       <r>    -4.3845     0.2747     0.8295 </r>
       <r>    -4.2917     0.2569     0.8542 </r>
       <r>    -4.1989     0.2384     0.8772 </r>
       <r>    -4.1061     0.2192     0.8984 </r>
       <r>    -4.0133     0.1992     0.9179 </r>
       <r>    -3.9204     0.1784     0.9354 </r>
       <r>    -3.8276     0.1570     0.9510 </r>
       <r>    -3.7348     0.1347     0.9645 </r>
       <r>    -3.6420     0.1118     0.9760 </r>
       <r>    -3.5492     0.0880     0.9852 </r>
       <r>    -3.4563     0.0636     0.9923 </r>
       <r>    -3.3635     0.0384     0.9970 </r>
       <r>    -3.2707     0.0154     0.9994 </r>
       <r>    -3.1779     0.0168     1.0007 </r>
       <r>    -3.0851     0.0419     1.0033 </r>
       <r>    -2.9922     0.0687     1.0085 </r>
       <r>    -2.8994     0.0945     1.0160 </r>
       <r>    -2.8066     0.1195     1.0260 </r>
       <r>    -2.7138     0.1437     1.0382 </r>
       <r>    -2.6210     0.1670     1.0526 </r>
       <r>    -2.5281     0.1894     1.0692 </r>
       <r>    -2.4353     0.2109     1.0878 </r>
       <r>    -2.3425     0.2316     1.1083 </r>
       <r>    -2.2497     0.2554     1.1308 </r>
       <r>    -2.1569     0.2909     1.1561 </r>
       <r>    -2.0640     0.3382     1.1852 </r>
       <r>    -1.9712     0.3973     1.2192 </r>
       <r>    -1.8784     0.4684     1.2593 </r>
       <r>    -1.7856     0.5513     1.3065 </r>
       <r>    -1.6928     0.6087     1.3617 </r>
       <r>    -1.5999     0.5338     1.4146 </r>
       <r>    -1.5071     0.4660     1.4610 </r>
       <r>    -1.4143     0.4052     1.5014 </r>
       <r>    -1.3215     0.3514     1.5364 </r>
       <r>    -1.2287     0.3047     1.5668 </r>
       <r>    -1.1359     0.2649     1.5932 </r>
       <r>    -1.0430     0.2323     1.6162 </r>
       <r>    -0.9502     0.2066     1.6365 </r>
       <r>    -0.8574     0.1880     1.6548 </r>
       <r>    -0.7646     0.1764     1.6716 </r>
       <r>    -0.6718     0.1709     1.6877 </r>
       <r>    -0.5789     0.1665     1.7034 </r>
       <r>    -0.4861     0.1622     1.7186 </r>
       <r>    -0.3933     0.1580     1.7335 </r>
       <r>    -0.3005     0.1540     1.7480 </r>
       <r>    -0.2077     0.1501     1.7621 </r>
       <r>    -0.1148     0.1463     1.7758 </r>
       <r>    -0.0220     0.1427     1.7892 </r>
       <r>     0.0708     0.1392     1.8023 </r>
       <r>     0.1636     0.1359     1.8151 </r>
       <r>     0.2564     0.1327     1.8276 </r>
       <r>     0.3493     0.1296     1.8397 </r>
       <r>     0.4421     0.1267     1.8516 </r>
       <r>     0.5349     0.1239     1.8632 </r>
       <r>     0.6277     0.1212     1.8746 </r>
       <r>     0.7205     0.1187     1.8858 </r>
       <r>     0.8134     0.1164     1.8967 </r>
       <r>     0.9062     0.1141     1.9074 </r>
       <r>     0.9990     0.1120     1.9179 </r>
       <r>     1.0918     0.0946     1.9277 </r>
       <r>     1.1846     0.0716     1.9354 </r>
       <r>     1.2775     0.5969     1.9580 </r>
       <r>     1.3703     1.4982     2.0620 </r>
       <r>     1.4631     1.3585     2.2029 </r>
       <r>     1.5559     0.6745     2.2892 </r>
       <r>     1.6487     0.6223     2.3493 </r>
       <r>     1.7415     0.5820     2.4051 </r>
       <r>     1.8344     0.5537     2.4577 </r>
       <r>     1.9272     0.5374     2.5083 </r>
       <r>     2.0200     0.5331     2.5578 </r>
       <r>     2.1128     0.5407     2.6076 </r>
       <r>     2.2056     0.5602     2.6586 </r>
       <r>     2.2985     0.5824     2.7116 </r>
       <r>     2.3913     0.6024     2.7666 </r>
       <r>     2.4841     0.6200     2.8234 </r>
       <r>     2.5769     0.6353     2.8817 </r>
       <r>     2.6697     0.6483     2.9413 </r>
       <r>     2.7626     0.6589     3.0019 </r>
       <r>     2.8554     0.6672     3.0635 </r>
       <r>     2.9482     0.6759     3.1258 </r>
       <r>     3.0410     0.6843     3.1889 </r>
       <r>     3.1338     0.6892     3.2527 </r>
       <r>     3.2267     0.6908     3.3168 </r>
       <r>     3.3195     0.6886     3.3808 </r>
       <r>     3.4123     0.6817     3.4445 </r>
       <r>     3.5051     0.6699     3.5072 </r>
       <r>     3.5979     0.6532     3.5687 </r>
       <r>     3.6908     0.6317     3.6283 </r>
       <r>     3.7836     0.6054     3.6858 </r>
       <r>     3.8764     0.5730     3.7406 </r>
       <r>     3.9692     0.5068     3.7910 </r>
       <r>     4.0620     0.4218     3.8340 </r>
       <r>     4.1548     0.3485     3.8697 </r>
       <r>     4.2477     0.2871     3.8991 </r>
       <r>     4.3405     0.2374     3.9234 </r>
       <r>     4.4333     0.1996     3.9435 </r>
       <r>     4.5261     0.1615     3.9604 </r>
       <r>     4.6189     0.1233     3.9736 </r>
       <r>     4.7118     0.0903     3.9835 </r>
       <r>     4.8046     0.0623     3.9905 </r>
       <r>     4.8974     0.0396     3.9952 </r>
       <r>     4.9902     0.0220     3.9980 </r>
       <r>     5.0830     0.0095     3.9994 </r>
       <r>     5.1759     0.0022     3.9999 </r>
       <r>     5.2687     0.0000     4.0000 </r>
       <r>     5.3615     0.0000     4.0000 </r>
       <r>     5.4543     0.0000     4.0000 </r>
       <r>     5.5471     0.0000     4.0000 </r>
       <r>     5.6400     0.0000     4.0000 </r>
       <r>     5.7328     0.0000     4.0000 </r>
       <r>     5.8256     0.0000     4.0000 </r>
       <r>     5.9184     0.0000     4.0000 </r>
       <r>     6.0112     0.0000     4.0000 </r>
       <r>     6.1041     0.0000     4.0000 </r>
       <r>     6.1969     0.0000     4.0000 </r>
       <r>     6.2897     0.0000     4.0000 </r>
       <r>     6.3825     0.0000     4.0000 </r>
       <r>     6.4753     0.0000     4.0000 </r>
       <r>     6.5682     0.0000     4.0000 </r>
       <r>     6.6610     0.0002     4.0000 </r>
       <r>     6.7538     0.0089     4.0003 </r>
       <r>     6.8466     0.0304     4.0020 </r>
       <r>     6.9394     0.0648     4.0064 </r>
       <r>     7.0322     0.1120     4.0145 </r>
       <r>     7.1251     0.1706     4.0275 </r>
       <r>     7.2179     0.2311     4.0462 </r>
       <r>     7.3107     0.2916     4.0704 </r>
       <r>     7.4035     0.3524     4.1003 </r>
       <r>     7.4963     0.7954     4.1368 </r>
       <r>     7.5892     0.9299     4.2173 </r>
       <r>     7.6820     1.0173     4.3080 </r>
       <r>     7.7748     1.0577     4.4047 </r>
       <r>     7.8676     1.0511     4.5029 </r>
       <r>     7.9604     0.9974     4.5983 </r>
       <r>     8.0533     0.8438     4.6855 </r>
       <r>     8.1461     0.6396     4.7540 </r>
       <r>     8.2389     0.4785     4.8055 </r>
       <r>     8.3317     0.3604     4.8442 </r>
       <r>     8.4245     0.2854     4.8738 </r>
       <r>     8.5174     0.2510     4.8984 </r>
       <r>     8.6102     0.2312     4.9208 </r>
       <r>     8.7030     0.2187     4.9416 </r>
       <r>     8.7958     0.2140     4.9616 </r>
       <r>     8.8886     0.2173     4.9816 </r>
       <r>     8.9815     0.2284     5.0022 </r>
       <r>     9.0743     0.2475     5.0242 </r>
       <r>     9.1671     0.2744     5.0484 </r>
       <r>     9.2599     0.3059     5.0753 </r>
       <r>     9.3527     0.3307     5.1049 </r>
       <r>     9.4455     0.3479     5.1365 </r>
       <r>     9.5384     0.3749     5.1698 </r>
       <r>     9.6312     0.4328     5.2070 </r>
       <r>     9.7240     0.5087     5.2507 </r>
       <r>     9.8168     0.5769     5.3011 </r>
       <r>     9.9096     0.6375     5.3576 </r>
       <r>    10.0025     0.6904     5.4193 </r>
       <r>    10.0953     0.7357     5.4855 </r>
       <r>    10.1881     0.7733     5.5556 </r>
       <r>    10.2809     0.8032     5.6288 </r>
       <r>    10.3737     0.8451     5.7046 </r>
       <r>    10.4666     1.1817     5.7957 </r>
       <r>    10.5594     1.8600     5.9359 </r>
       <r>    10.6522     1.2684     6.0801 </r>
       <r>    10.7450     0.8163     6.1757 </r>
       <r>    10.8378     0.5039     6.2359 </r>
       <r>    10.9307     0.3311     6.2736 </r>
       <r>    11.0235     0.2951     6.3017 </r>
       <r>    11.1163     0.3026     6.3294 </r>
       <r>    11.2091     0.3131     6.3579 </r>
       <r>    11.3019     0.5356     6.3966 </r>
       <r>    11.3948     0.7310     6.4558 </r>
       <r>    11.4876     0.8729     6.5307 </r>
       <r>    11.5804     0.9613     6.6162 </r>
       <r>    11.6732     0.9962     6.7075 </r>
       <r>    11.7660     0.9775     6.7995 </r>
       <r>    11.8589     0.9054     6.8873 </r>
       <r>    11.9517     0.7373     6.9658 </r>
       <r>    12.0445     0.7669     7.0278 </r>
       <r>    12.1373     1.3211     7.1217 </r>
       <r>    12.2301     1.1422     7.2486 </r>
       <r>    12.3229     0.8217     7.3373 </r>
       <r>    12.4158     0.7644     7.4100 </r>
       <r>    12.5086     0.7283     7.4793 </r>
       <r>    12.6014     0.6842     7.5449 </r>
       <r>    12.6942     0.6323     7.6061 </r>
       <r>    12.7870     0.5762     7.6622 </r>
       <r>    12.8799     0.5171     7.7129 </r>
       <r>    12.9727     0.4551     7.7581 </r>
       <r>    13.0655     0.3901     7.7973 </r>
       <r>    13.1583     0.3404     7.8307 </r>
       <r>    13.2511     0.3288     7.8617 </r>
       <r>    13.3440     0.3269     7.8921 </r>
       <r>    13.4368     0.3349     7.9227 </r>
       <r>    13.5296     0.3600     7.9547 </r>
       <r>    13.6224     0.3841     7.9894 </r>
       <r>    13.7152     0.3947     8.0256 </r>
       <r>    13.8081     0.3920     8.0622 </r>
       <r>    13.9009     0.3759     8.0980 </r>
       <r>    13.9937     0.3439     8.1315 </r>
       <r>    14.0865     0.2950     8.1613 </r>
       <r>    14.1793     0.2549     8.1866 </r>
       <r>    14.2722     0.2344     8.2092 </r>
       <r>    14.3650     0.2309     8.2307 </r>
       <r>    14.4578     0.2301     8.2521 </r>
       <r>    14.5506     0.2297     8.2734 </r>
       <r>    14.6434     0.2297     8.2948 </r>
       <r>    14.7363     0.2302     8.3161 </r>
       <r>    14.8291     0.2310     8.3375 </r>
       <r>    14.9219     0.2322     8.3590 </r>
       <r>    15.0147     0.2338     8.3806 </r>
       <r>    15.1075     0.2358     8.4024 </r>
       <r>    15.2003     0.2382     8.4244 </r>
       <r>    15.2932     0.2410     8.4466 </r>
       <r>    15.3860     0.2442     8.4692 </r>
       <r>    15.4788     0.2478     8.4920 </r>
       <r>    15.5716     0.2518     8.5152 </r>
       <r>    15.6644     0.2562     8.5387 </r>
       <r>    15.7573     0.2610     8.5627 </r>
       <r>    15.8501     0.2661     8.5872 </r>
       <r>    15.9429     0.2717     8.6122 </r>
       <r>    16.0357     0.2777     8.6377 </r>
       <r>    16.1285     0.2841     8.6637 </r>
       <r>    16.2214     0.2909     8.6904 </r>
       <r>    16.3142     0.2980     8.7177 </r>
       <r>    16.4070     0.3056     8.7457 </r>
       <r>    16.4998     0.3136     8.7745 </r>
       <r>    16.5926     0.3219     8.8040 </r>
       <r>    16.6855     0.3610     8.8351 </r>
       <r>    16.7783     0.3907     8.8703 </r>
       <r>    16.8711     0.3814     8.9065 </r>
       <r>    16.9639     0.3331     8.9399 </r>
       <r>    17.0567     0.2459     8.9671 </r>
       <r>    17.1496     0.1443     8.9850 </r>
       <r>    17.2424     0.0712     8.9948 </r>
       <r>    17.3352     0.0237     8.9990 </r>
       <r>    17.4280     0.0017     9.0000 </r>
       <r>    17.5208     0.0000     9.0000 </r>
       <r>    17.6136     0.0000     9.0000 </r>
       <r>    17.7065     0.0000     9.0000 </r>
       <r>    17.7993     0.0000     9.0000 </r>
       <r>    17.8921     0.0000     9.0000 </r>
       <r>    17.9849     0.0000     9.0000 </r>
       <r>    18.0777     0.0000     9.0000 </r>
       <r>    18.1706     0.0000     9.0000 </r>
       <r>    18.2634     0.0000     9.0000 </r>
       <r>    18.3562     0.0000     9.0000 </r>
       <r>    18.4490     0.0000     9.0000 </r>
       <r>    18.5418     0.0000     9.0000 </r>
       <r>    18.6347     0.0000     9.0000 </r>
       <r>    18.7275     0.0000     9.0000 </r>
      </set>
     </set>
    </array>
   </total>
   <partial>
    <array>
     <dimension dim="1">gridpoints</dimension>
     <dimension dim="2">spin</dimension>
     <dimension dim="3">ion</dimension>
     <field>energy</field>
     <field>    s</field>
     <field>   py</field>
     <field>   pz</field>
     <field>   px</field>
     <field>  dxy</field>
     <field>  dyz</field>
     <field>  dz2</field>
     <field>  dxz</field>
     <field>x2-y2</field>
     <set>
      <set comment="ion 1">
       <set comment="spin 1">
        <r>    -9.1183     0.0000     0.0000     0.0000     0.0000     0.0000     0.0000     0.0000     0.0000     0.0000 </r>
        <r>    -9.0255     0.0000     0.0000     0.0000     0.0000     0.0000     0.0000     0.0000     0.0000     0.0000 </r>
        <r>    -8.9327     0.0000     0.0000     0.0000     0.0000     0.0000     0.0000     0.0000     0.0000     0.0000 </r>
        <r>    -8.8399     0.0000     0.0000     0.0000     0.0000     0.0000     0.0000     0.0000     0.0000     0.0000 </r>
        <r>    -8.7470     0.0000     0.0000     0.0000     0.0000     0.0000     0.0000     0.0000     0.0000     0.0000 </r>
        <r>    -8.6542     0.0000     0.0000     0.0000     0.0000     0.0000     0.0000     0.0000     0.0000     0.0000 </r>
        <r>    -8.5614     0.0000     0.0000     0.0000     0.0000     0.0000     0.0000     0.0000     0.0000     0.0000 </r>
        <r>    -8.4686     0.0000     0.0000     0.0000     0.0000     0.0000     0.0000     0.0000     0.0000     0.0000 </r>
        <r>    -8.3758     0.0000     0.0000     0.0000     0.0000     0.0000     0.0000     0.0000     0.0000     0.0000 </r>
        <r>    -8.2829     0.0000     0.0000     0.0000     0.0000     0.0000     0.0000     0.0000     0.0000     0.0000 </r>
        <r>    -8.1901     0.0000     0.0000     0.0000     0.0000     0.0000     0.0000     0.0000     0.0000     0.0000 </r>
        <r>    -8.0973     0.0000     0.0000     0.0000     0.0000     0.0000     0.0000     0.0000     0.0000     0.0000 </r>
        <r>    -8.0045     0.0000     0.0000     0.0000     0.0000     0.0000     0.0000     0.0000     0.0000     0.0000 </r>
        <r>    -7.9117     0.0000     0.0000     0.0000     0.0000     0.0000     0.0000     0.0000     0.0000     0.0000 </r>
        <r>    -7.8188     0.0001     0.0000     0.0000     0.0000     0.0000     0.0000     0.0000     0.0000     0.0000 </r>
        <r>    -7.7260     0.0007     0.0000     0.0000     0.0000     0.0000     0.0000     0.0000     0.0000     0.0000 </r>
        <r>    -7.6332     0.0022     0.0000     0.0000     0.0000     0.0000     0.0000     0.0000     0.0000     0.0000 </r>
        <r>    -7.5404     0.0044     0.0000     0.0000     0.0000     0.0000     0.0000     0.0000     0.0000     0.0000 </r>
        <r>    -7.4476     0.0074     0.0001     0.0001     0.0001     0.0000     0.0000     0.0000     0.0000     0.0000 </r>
        <r>    -7.3547     0.0112     0.0001     0.0001     0.0001     0.0000     0.0000     0.0000     0.0000     0.0000 </r>
        <r>    -7.2619     0.0157     0.0002     0.0002     0.0002     0.0000     0.0000     0.0000     0.0000     0.0000 </r>
        <r>    -7.1691     0.0210     0.0002     0.0002     0.0002     0.0000     0.0000     0.0000     0.0000     0.0000 </r>
        <r>    -7.0763     0.0271     0.0003     0.0003     0.0003     0.0000     0.0000     0.0000     0.0000     0.0000 </r>
        <r>    -6.9835     0.0340     0.0004     0.0004     0.0004     0.0000     0.0000     0.0000     0.0000     0.0000 </r>
        <r>    -6.8906     0.0321     0.0005     0.0005     0.0005     0.0000     0.0000     0.0000     0.0000     0.0000 </r>
        <r>    -6.7978     0.0316     0.0006     0.0006     0.0006     0.0000     0.0000     0.0000     0.0000     0.0000 </r>
        <r>    -6.7050     0.0325     0.0006     0.0006     0.0006     0.0000     0.0000     0.0000     0.0000     0.0000 </r>
        <r>    -6.6122     0.0346     0.0007     0.0007     0.0007     0.0000     0.0000     0.0000     0.0000     0.0000 </r>
        <r>    -6.5194     0.0369     0.0008     0.0008     0.0008     0.0000     0.0000     0.0000     0.0000     0.0000 </r>
        <r>    -6.4266     0.0393     0.0009     0.0009     0.0009     0.0000     0.0000     0.0000     0.0000     0.0000 </r>
        <r>    -6.3337     0.0418     0.0010     0.0010     0.0010     0.0000     0.0000     0.0000     0.0000     0.0000 </r>
        <r>    -6.2409     0.0444     0.0011     0.0011     0.0011     0.0000     0.0000     0.0000     0.0000     0.0000 </r>
        <r>    -6.1481     0.0472     0.0012     0.0012     0.0012     0.0000     0.0000     0.0000     0.0000     0.0000 </r>
        <r>    -6.0553     0.0500     0.0013     0.0013     0.0013     0.0000     0.0000     0.0000     0.0000     0.0000 </r>
        <r>    -5.9625     0.0530     0.0014     0.0014     0.0014     0.0000     0.0000     0.0000     0.0000     0.0000 </r>
        <r>    -5.8696     0.0560     0.0015     0.0015     0.0015     0.0000     0.0000     0.0000     0.0000     0.0000 </r>
        <r>    -5.7768     0.0592     0.0016     0.0016     0.0016     0.0000     0.0000     0.0000     0.0000     0.0000 </r>
        <r>    -5.6840     0.0625     0.0017     0.0017     0.0017     0.0000     0.0000     0.0000     0.0000     0.0000 </r>
        <r>    -5.5912     0.0662     0.0018     0.0018     0.0018     0.0000     0.0000     0.0000     0.0000     0.0000 </r>
        <r>    -5.4984     0.0745     0.0021     0.0021     0.0021     0.0000     0.0000     0.0000     0.0000     0.0000 </r>
        <r>    -5.4055     0.0885     0.0027     0.0027     0.0027     0.0000     0.0000     0.0000     0.0000     0.0000 </r>
        <r>    -5.3127     0.1082     0.0035     0.0035     0.0035     0.0000     0.0000     0.0000     0.0000     0.0000 </r>
        <r>    -5.2199     0.1237     0.0041     0.0041     0.0041     0.0000     0.0000     0.0000     0.0000     0.0000 </r>
        <r>    -5.1271     0.1266     0.0044     0.0044     0.0044     0.0000     0.0000     0.0000     0.0000     0.0000 </r>
        <r>    -5.0343     0.1170     0.0043     0.0043     0.0043     0.0000     0.0000     0.0000     0.0000     0.0000 </r>
        <r>    -4.9414     0.0948     0.0038     0.0038     0.0038     0.0000     0.0000     0.0000     0.0000     0.0000 </r>
        <r>    -4.8486     0.0744     0.0033     0.0033     0.0033     0.0000     0.0000     0.0000     0.0000     0.0000 </r>
        <r>    -4.7558     0.0714     0.0032     0.0032     0.0032     0.0000     0.0000     0.0000     0.0000     0.0000 </r>
        <r>    -4.6630     0.0682     0.0031     0.0031     0.0031     0.0000     0.0000     0.0000     0.0000     0.0000 </r>
        <r>    -4.5702     0.0648     0.0030     0.0030     0.0030     0.0000     0.0000     0.0000     0.0000     0.0000 </r>
        <r>    -4.4773     0.0613     0.0029     0.0029     0.0029     0.0000     0.0000     0.0000     0.0000     0.0000 </r>
        <r>    -4.3845     0.0577     0.0028     0.0028     0.0028     0.0000     0.0000     0.0000     0.0000     0.0000 </r>
        <r>    -4.2917     0.0539     0.0026     0.0026     0.0026     0.0000     0.0000     0.0000     0.0000     0.0000 </r>
        <r>    -4.1989     0.0500     0.0024     0.0024     0.0024     0.0000     0.0000     0.0000     0.0000     0.0000 </r>
        <r>    -4.1061     0.0459     0.0023     0.0023     0.0023     0.0000     0.0000     0.0000     0.0000     0.0000 </r>
        <r>    -4.0133     0.0417     0.0021     0.0021     0.0021     0.0000     0.0000     0.0000     0.0000     0.0000 </r>
        <r>    -3.9204     0.0373     0.0019     0.0019     0.0019     0.0000     0.0000     0.0000     0.0000     0.0000 </r>
        <r>    -3.8276     0.0328     0.0017     0.0017     0.0017     0.0000     0.0000     0.0000     0.0000     0.0000 </r>
        <r>    -3.7348     0.0281     0.0015     0.0015     0.0015     0.0000     0.0000     0.0000     0.0000     0.0000 </r>
        <r>    -3.6420     0.0233     0.0012     0.0012     0.0012     0.0000     0.0000     0.0000     0.0000     0.0000 </r>
        <r>    -3.5492     0.0183     0.0010     0.0010     0.0010     0.0000     0.0000     0.0000     0.0000     0.0000 </r>
        <r>    -3.4563     0.0132     0.0007     0.0007     0.0007     0.0000     0.0000     0.0000     0.0000     0.0000 </r>
        <r>    -3.3635     0.0080     0.0004     0.0004     0.0004     0.0000     0.0000     0.0000     0.0000     0.0000 </r>
        <r>    -3.2707     0.0032     0.0002     0.0002     0.0002     0.0000     0.0000     0.0000     0.0000     0.0000 </r>
        <r>    -3.1779     0.0031     0.0003     0.0003     0.0003     0.0000     0.0000     0.0000     0.0000     0.0000 </r>
        <r>    -3.0851     0.0075     0.0008     0.0008     0.0008     0.0000     0.0000     0.0000     0.0000     0.0000 </r>
        <r>    -2.9922     0.0123     0.0014     0.0014     0.0014     0.0000     0.0000     0.0000     0.0000     0.0000 </r>
        <r>    -2.8994     0.0169     0.0019     0.0019     0.0019     0.0000     0.0000     0.0000     0.0000     0.0000 </r>
        <r>    -2.8066     0.0213     0.0024     0.0024     0.0024     0.0000     0.0000     0.0000     0.0000     0.0000 </r>
        <r>    -2.7138     0.0255     0.0030     0.0030     0.0030     0.0000     0.0000     0.0000     0.0000     0.0000 </r>
        <r>    -2.6210     0.0295     0.0035     0.0035     0.0035     0.0000     0.0000     0.0000     0.0000     0.0000 </r>
        <r>    -2.5281     0.0334     0.0040     0.0040     0.0040     0.0000     0.0000     0.0000     0.0000     0.0000 </r>
        <r>    -2.4353     0.0370     0.0045     0.0045     0.0045     0.0000     0.0000     0.0000     0.0000     0.0000 </r>
        <r>    -2.3425     0.0405     0.0050     0.0050     0.0050     0.0000     0.0000     0.0000     0.0000     0.0000 </r>
        <r>    -2.2497     0.0443     0.0056     0.0056     0.0056     0.0000     0.0000     0.0000     0.0000     0.0000 </r>
        <r>    -2.1569     0.0497     0.0065     0.0065     0.0065     0.0000     0.0000     0.0000     0.0000     0.0000 </r>
        <r>    -2.0640     0.0567     0.0078     0.0078     0.0078     0.0000     0.0000     0.0000     0.0000     0.0000 </r>
        <r>    -1.9712     0.0654     0.0095     0.0095     0.0095     0.0000     0.0000     0.0000     0.0000     0.0000 </r>
        <r>    -1.8784     0.0756     0.0114     0.0114     0.0114     0.0000     0.0000     0.0000     0.0000     0.0000 </r>
        <r>    -1.7856     0.0874     0.0138     0.0138     0.0138     0.0000     0.0000     0.0000     0.0000     0.0000 </r>
        <r>    -1.6928     0.0952     0.0155     0.0155     0.0155     0.0000     0.0000     0.0000     0.0000     0.0000 </r>
        <r>    -1.5999     0.0829     0.0137     0.0137     0.0137     0.0000     0.0000     0.0000     0.0000     0.0000 </r>
        <r>    -1.5071     0.0719     0.0121     0.0121     0.0121     0.0000     0.0000     0.0000     0.0000     0.0000 </r>
        <r>    -1.4143     0.0619     0.0107     0.0107     0.0107     0.0000     0.0000     0.0000     0.0000     0.0000 </r>
        <r>    -1.3215     0.0532     0.0094     0.0094     0.0094     0.0000     0.0000     0.0000     0.0000     0.0000 </r>
        <r>    -1.2287     0.0456     0.0083     0.0083     0.0083     0.0000     0.0000     0.0000     0.0000     0.0000 </r>
        <r>    -1.1359     0.0391     0.0074     0.0074     0.0074     0.0000     0.0000     0.0000     0.0000     0.0000 </r>
        <r>    -1.0430     0.0339     0.0066     0.0066     0.0066     0.0000     0.0000     0.0000     0.0000     0.0000 </r>
        <r>    -0.9502     0.0297     0.0060     0.0060     0.0060     0.0000     0.0000     0.0000     0.0000     0.0000 </r>
        <r>    -0.8574     0.0268     0.0056     0.0056     0.0056     0.0000     0.0000     0.0000     0.0000     0.0000 </r>
        <r>    -0.7646     0.0250     0.0053     0.0053     0.0053     0.0000     0.0000     0.0000     0.0000     0.0000 </r>
        <r>    -0.6718     0.0242     0.0051     0.0051     0.0051     0.0000     0.0000     0.0000     0.0000     0.0000 </r>
        <r>    -0.5789     0.0236     0.0050     0.0050     0.0050     0.0000     0.0000     0.0000     0.0000     0.0000 </r>
        <r>    -0.4861     0.0230     0.0049     0.0049     0.0049     0.0000     0.0000     0.0000     0.0000     0.0000 </r>
        <r>    -0.3933     0.0223     0.0048     0.0048     0.0048     0.0000     0.0000     0.0000     0.0000     0.0000 </r>
        <r>    -0.3005     0.0217     0.0047     0.0047     0.0047     0.0000     0.0000     0.0000     0.0000     0.0000 </r>
        <r>    -0.2077     0.0212     0.0046     0.0046     0.0046     0.0000     0.0000     0.0000     0.0000     0.0000 </r>
        <r>    -0.1148     0.0206     0.0045     0.0045     0.0045     0.0000     0.0000     0.0000     0.0000     0.0000 </r>
        <r>    -0.0220     0.0200     0.0045     0.0045     0.0045     0.0000     0.0000     0.0000     0.0000     0.0000 </r>
        <r>     0.0708     0.0195     0.0044     0.0044     0.0044     0.0000     0.0000     0.0000     0.0000     0.0000 </r>
        <r>     0.1636     0.0189     0.0043     0.0043     0.0043     0.0000     0.0000     0.0000     0.0000     0.0000 </r>
        <r>     0.2564     0.0184     0.0042     0.0042     0.0042     0.0000     0.0000     0.0000     0.0000     0.0000 </r>
        <r>     0.3493     0.0179     0.0042     0.0042     0.0042     0.0000     0.0000     0.0000     0.0000     0.0000 </r>
        <r>     0.4421     0.0173     0.0041     0.0041     0.0041     0.0000     0.0000     0.0000     0.0000     0.0000 </r>
        <r>     0.5349     0.0168     0.0041     0.0041     0.0041     0.0000     0.0000     0.0000     0.0000     0.0000 </r>
        <r>     0.6277     0.0164     0.0040     0.0040     0.0040     0.0000     0.0000     0.0000     0.0000     0.0000 </r>
        <r>     0.7205     0.0159     0.0040     0.0040     0.0040     0.0000     0.0000     0.0000     0.0000     0.0000 </r>
        <r>     0.8134     0.0154     0.0039     0.0039     0.0039     0.0000     0.0000     0.0000     0.0000     0.0000 </r>
        <r>     0.9062     0.0149     0.0039     0.0039     0.0039     0.0000     0.0000     0.0000     0.0000     0.0000 </r>
        <r>     0.9990     0.0145     0.0039     0.0039     0.0039     0.0000     0.0000     0.0000     0.0000     0.0000 </r>
        <r>     1.0918     0.0117     0.0034     0.0034     0.0034     0.0000     0.0000     0.0000     0.0000     0.0000 </r>
        <r>     1.1846     0.0081     0.0028     0.0028     0.0028     0.0000     0.0000     0.0000     0.0000     0.0000 </r>
        <r>     1.2775     0.0134     0.0310     0.0310     0.0310     0.0000     0.0000     0.0000     0.0000     0.0000 </r>
        <r>     1.3703     0.0248     0.0792     0.0792     0.0792     0.0000     0.0000     0.0000     0.0000     0.0000 </r>
        <r>     1.4631     0.0216     0.0730     0.0730     0.0730     0.0000     0.0000     0.0000     0.0000     0.0000 </r>
        <r>     1.5559     0.0109     0.0380     0.0380     0.0380     0.0000     0.0000     0.0000     0.0000     0.0000 </r>
        <r>     1.6487     0.0098     0.0353     0.0353     0.0353     0.0000     0.0000     0.0000     0.0000     0.0000 </r>
        <r>     1.7415     0.0089     0.0334     0.0334     0.0334     0.0000     0.0000     0.0000     0.0000     0.0000 </r>
        <r>     1.8344     0.0080     0.0322     0.0322     0.0322     0.0000     0.0000     0.0000     0.0000     0.0000 </r>
        <r>     1.9272     0.0073     0.0316     0.0316     0.0316     0.0000     0.0000     0.0000     0.0000     0.0000 </r>
        <r>     2.0200     0.0066     0.0317     0.0317     0.0317     0.0000     0.0000     0.0000     0.0000     0.0000 </r>
        <r>     2.1128     0.0061     0.0325     0.0325     0.0325     0.0000     0.0000     0.0000     0.0000     0.0000 </r>
        <r>     2.2056     0.0057     0.0339     0.0339     0.0339     0.0000     0.0000     0.0000     0.0000     0.0000 </r>
        <r>     2.2985     0.0053     0.0355     0.0355     0.0355     0.0000     0.0000     0.0000     0.0000     0.0000 </r>
        <r>     2.3913     0.0049     0.0370     0.0370     0.0370     0.0000     0.0000     0.0000     0.0000     0.0000 </r>
        <r>     2.4841     0.0045     0.0383     0.0383     0.0383     0.0000     0.0000     0.0000     0.0000     0.0000 </r>
        <r>     2.5769     0.0042     0.0395     0.0395     0.0395     0.0000     0.0000     0.0000     0.0000     0.0000 </r>
        <r>     2.6697     0.0039     0.0406     0.0406     0.0406     0.0000     0.0000     0.0000     0.0000     0.0000 </r>
        <r>     2.7626     0.0036     0.0415     0.0415     0.0415     0.0000     0.0000     0.0000     0.0000     0.0000 </r>
        <r>     2.8554     0.0033     0.0423     0.0423     0.0423     0.0000     0.0000     0.0000     0.0000     0.0000 </r>
        <r>     2.9482     0.0030     0.0432     0.0432     0.0432     0.0000     0.0000     0.0000     0.0000     0.0000 </r>
        <r>     3.0410     0.0027     0.0443     0.0443     0.0443     0.0000     0.0000     0.0000     0.0000     0.0000 </r>
        <r>     3.1338     0.0025     0.0450     0.0450     0.0450     0.0000     0.0000     0.0000     0.0000     0.0000 </r>
        <r>     3.2267     0.0023     0.0455     0.0455     0.0455     0.0000     0.0000     0.0000     0.0000     0.0000 </r>
        <r>     3.3195     0.0021     0.0457     0.0457     0.0457     0.0000     0.0000     0.0000     0.0000     0.0000 </r>
        <r>     3.4123     0.0019     0.0455     0.0455     0.0455     0.0000     0.0000     0.0000     0.0000     0.0000 </r>
        <r>     3.5051     0.0017     0.0450     0.0450     0.0450     0.0000     0.0000     0.0000     0.0000     0.0000 </r>
        <r>     3.5979     0.0015     0.0441     0.0441     0.0441     0.0000     0.0000     0.0000     0.0000     0.0000 </r>
        <r>     3.6908     0.0013     0.0429     0.0429     0.0429     0.0000     0.0000     0.0000     0.0000     0.0000 </r>
        <r>     3.7836     0.0011     0.0413     0.0413     0.0413     0.0000     0.0000     0.0000     0.0000     0.0000 </r>
        <r>     3.8764     0.0009     0.0393     0.0393     0.0393     0.0000     0.0000     0.0000     0.0000     0.0000 </r>
        <r>     3.9692     0.0008     0.0348     0.0348     0.0348     0.0000     0.0000     0.0000     0.0000     0.0000 </r>
        <r>     4.0620     0.0006     0.0290     0.0290     0.0290     0.0000     0.0000     0.0000     0.0000     0.0000 </r>
        <r>     4.1548     0.0005     0.0240     0.0240     0.0240     0.0000     0.0000     0.0000     0.0000     0.0000 </r>
        <r>     4.2477     0.0004     0.0198     0.0198     0.0198     0.0000     0.0000     0.0000     0.0000     0.0000 </r>
        <r>     4.3405     0.0003     0.0164     0.0164     0.0164     0.0000     0.0000     0.0000     0.0000     0.0000 </r>
        <r>     4.4333     0.0002     0.0139     0.0139     0.0139     0.0000     0.0000     0.0000     0.0000     0.0000 </r>
        <r>     4.5261     0.0001     0.0113     0.0113     0.0113     0.0000     0.0000     0.0000     0.0000     0.0000 </r>
[...]
       </set>
       <set comment="band 7">
        <r>  0.0000  0.0436  0.1737  0.0219  0.0000  0.0000  0.0000  0.0000  0.0000 </r>
        <r>  0.0000  0.0437  0.1738  0.0218  0.0000  0.0000  0.0000  0.0000  0.0000 </r>
       </set>
       <set comment="band 8">
        <r>  0.0000  0.1113  0.0629  0.0552  0.0000  0.0000  0.0000  0.0000  0.0000 </r>
        <r>  0.0000  0.1184  0.0671  0.0600  0.0000  0.0000  0.0000  0.0000  0.0000 </r>
       </set>
       <set comment="band 9">
        <r>  0.0000  0.0019  0.0085  0.0017  0.0000  0.0000  0.0000  0.0000  0.0000 </r>
        <r>  0.0000  0.0022  0.0084  0.0015  0.0000  0.0000  0.0000  0.0000  0.0000 </r>
       </set>
      </set>
      <set comment="kpoint 8">
       <set comment="band 1">
        <r>  0.3735  0.0028  0.0021  0.0035  0.0000  0.0000  0.0000  0.0000  0.0000 </r>
        <r>  0.0403  0.0257  0.0193  0.0321  0.0000  0.0000  0.0000  0.0000  0.0000 </r>
       </set>
       <set comment="band 2">
        <r>  0.0403  0.0257  0.0193  0.0321  0.0000  0.0000  0.0000  0.0000  0.0000 </r>
        <r>  0.3735  0.0028  0.0021  0.0035  0.0000  0.0000  0.0000  0.0000  0.0000 </r>
       </set>
       <set comment="band 3">
        <r>  0.0000  0.0326  0.0575  0.0896  0.0000  0.0000  0.0000  0.0000  0.0000 </r>
        <r>  0.0000  0.0218  0.0787  0.0466  0.0000  0.0000  0.0000  0.0000  0.0000 </r>
       </set>
       <set comment="band 4">
        <r>  0.0000  0.0763  0.0601  0.0107  0.0000  0.0000  0.0000  0.0000  0.0000 </r>
        <r>  0.0000  0.0872  0.0389  0.0536  0.0000  0.0000  0.0000  0.0000  0.0000 </r>
       </set>
       <set comment="band 5">
        <r>  0.0000  0.0515  0.0776  0.0249  0.0000  0.0000  0.0000  0.0000  0.0000 </r>
        <r>  0.0000  0.0031  0.0049  0.0008  0.0000  0.0000  0.0000  0.0000  0.0000 </r>
       </set>
       <set comment="band 6">
        <r>  0.0000  0.0028  0.0038  0.0022  0.0000  0.0000  0.0000  0.0000  0.0000 </r>
        <r>  0.0000  0.0511  0.0764  0.0264  0.0000  0.0000  0.0000  0.0000  0.0000 </r>
       </set>
       <set comment="band 7">
        <r>  0.0731  0.0289  0.0217  0.0361  0.0000  0.0000  0.0000  0.0000  0.0000 </r>
        <r>  0.0548  0.0386  0.0289  0.0482  0.0000  0.0000  0.0000  0.0000  0.0000 </r>
       </set>
       <set comment="band 8">
        <r>  0.0548  0.0386  0.0289  0.0482  0.0000  0.0000  0.0000  0.0000  0.0000 </r>
        <r>  0.0731  0.0289  0.0217  0.0361  0.0000  0.0000  0.0000  0.0000  0.0000 </r>
       </set>
       <set comment="band 9">
        <r>  0.0000  0.0786  0.0052  0.0731  0.0000  0.0000  0.0000  0.0000  0.0000 </r>
        <r>  0.0000  0.0634  0.0016  0.0503  0.0000  0.0000  0.0000  0.0000  0.0000 </r>
       </set>
      </set>
     </set>
     <set comment="spin2">
      <set comment="kpoint 1">
       <set comment="band 1">
        <r>  0.2179  0.0000  0.0000  0.0000  0.0000  0.0000  0.0000  0.0000  0.0000 </r>
        <r>  0.2179  0.0000  0.0000  0.0000  0.0000  0.0000  0.0000  0.0000  0.0000 </r>
       </set>
       <set comment="band 2">
        <r>  0.0000  0.0001  0.1319  0.0830  0.0000  0.0000  0.0000  0.0000  0.0000 </r>
        <r>  0.0000  0.0001  0.1319  0.0830  0.0000  0.0000  0.0000  0.0000  0.0000 </r>
       </set>
       <set comment="band 3">
        <r>  0.0000  0.0956  0.0464  0.0730  0.0000  0.0000  0.0000  0.0000  0.0000 </r>
        <r>  0.0000  0.0956  0.0464  0.0730  0.0000  0.0000  0.0000  0.0000  0.0000 </r>
       </set>
       <set comment="band 4">
        <r>  0.0000  0.1192  0.0367  0.0590  0.0000  0.0000  0.0000  0.0000  0.0000 </r>
        <r>  0.0000  0.1192  0.0367  0.0590  0.0000  0.0000  0.0000  0.0000  0.0000 </r>
       </set>
       <set comment="band 5">
        <r>  0.0000  0.0456  0.0268  0.0771  0.0000  0.0000  0.0000  0.0000  0.0000 </r>
        <r>  0.0000  0.0456  0.0268  0.0771  0.0000  0.0000  0.0000  0.0000  0.0000 </r>
       </set>
       <set comment="band 6">
        <r>  0.0000  0.0063  0.1044  0.0389  0.0000  0.0000  0.0000  0.0000  0.0000 </r>
        <r>  0.0000  0.0063  0.1044  0.0388  0.0000  0.0000  0.0000  0.0000  0.0000 </r>
       </set>
       <set comment="band 7">
        <r>  0.0000  0.0976  0.0183  0.0336  0.0000  0.0000  0.0000  0.0000  0.0000 </r>
        <r>  0.0000  0.0976  0.0183  0.0336  0.0000  0.0000  0.0000  0.0000  0.0000 </r>
       </set>
       <set comment="band 8">
        <r>  0.3649  0.0000  0.0000  0.0000  0.0000  0.0000  0.0000  0.0000  0.0000 </r>
        <r>  0.3649  0.0000  0.0000  0.0000  0.0000  0.0000  0.0000  0.0000  0.0000 </r>
       </set>
       <set comment="band 9">
        <r>  0.0005  0.0000  0.0000  0.0000  0.0000  0.0000  0.0000  0.0000  0.0000 </r>
        <r>  0.0005  0.0000  0.0000  0.0000  0.0000  0.0000  0.0000  0.0000  0.0000 </r>
       </set>
      </set>
      <set comment="kpoint 2">
       <set comment="band 1">
        <r>  0.2148  0.0009  0.0000  0.0071  0.0000  0.0000  0.0000  0.0000  0.0000 </r>
        <r>  0.2148  0.0009  0.0000  0.0071  0.0000  0.0000  0.0000  0.0000  0.0000 </r>
       </set>
       <set comment="band 2">
        <r>  0.0956  0.0134  0.0000  0.1074  0.0000  0.0000  0.0000  0.0000  0.0000 </r>
        <r>  0.0956  0.0134  0.0000  0.1074  0.0000  0.0000  0.0000  0.0000  0.0000 </r>
       </set>
       <set comment="band 3">
        <r>  0.0000  0.0175  0.1934  0.0022  0.0000  0.0000  0.0000  0.0000  0.0000 </r>
        <r>  0.0000  0.0175  0.1934  0.0022  0.0000  0.0000  0.0000  0.0000  0.0000 </r>
       </set>
       <set comment="band 4">
        <r>  0.0000  0.1719  0.0197  0.0215  0.0000  0.0000  0.0000  0.0000  0.0000 </r>
        <r>  0.0000  0.1719  0.0197  0.0215  0.0000  0.0000  0.0000  0.0000  0.0000 </r>
       </set>
       <set comment="band 5">
        <r>  0.1559  0.0053  0.0000  0.0422  0.0000  0.0000  0.0000  0.0000  0.0000 </r>
        <r>  0.1559  0.0053  0.0000  0.0422  0.0000  0.0000  0.0000  0.0000  0.0000 </r>
       </set>
       <set comment="band 6">
        <r>  0.0000  0.0417  0.0893  0.0052  0.0000  0.0000  0.0000  0.0000  0.0000 </r>
        <r>  0.0000  0.0417  0.0893  0.0052  0.0000  0.0000  0.0000  0.0000  0.0000 </r>
       </set>
       <set comment="band 7">
        <r>  0.0000  0.0794  0.0469  0.0099  0.0000  0.0000  0.0000  0.0000  0.0000 </r>
        <r>  0.0000  0.0794  0.0469  0.0099  0.0000  0.0000  0.0000  0.0000  0.0000 </r>
       </set>
       <set comment="band 8">
        <r>  0.1170  0.0149  0.0000  0.1295  0.0000  0.0000  0.0000  0.0000  0.0000 </r>
        <r>  0.1170  0.0167  0.0000  0.1276  0.0000  0.0000  0.0000  0.0000  0.0000 </r>
       </set>
       <set comment="band 9">
        <r>  0.0000  0.0051  0.0111  0.0006  0.0000  0.0000  0.0000  0.0000  0.0000 </r>
        <r>  0.0000  0.0051  0.0111  0.0006  0.0000  0.0000  0.0000  0.0000  0.0000 </r>
       </set>
      </set>
      <set comment="kpoint 3">
       <set comment="band 1">
        <r>  0.2285  0.0015  0.0000  0.0124  0.0000  0.0000  0.0000  0.0000  0.0000 </r>
        <r>  0.2285  0.0015  0.0000  0.0124  0.0000  0.0000  0.0000  0.0000  0.0000 </r>
       </set>
       <set comment="band 2">
        <r>  0.1012  0.0104  0.0000  0.0835  0.0000  0.0000  0.0000  0.0000  0.0000 </r>
        <r>  0.1012  0.0104  0.0000  0.0835  0.0000  0.0000  0.0000  0.0000  0.0000 </r>
       </set>
       <set comment="band 3">
        <r>  0.0000  0.0315  0.1812  0.0039  0.0000  0.0000  0.0000  0.0000  0.0000 </r>
        <r>  0.0000  0.0315  0.1812  0.0039  0.0000  0.0000  0.0000  0.0000  0.0000 </r>
       </set>
       <set comment="band 4">
        <r>  0.0000  0.1611  0.0355  0.0201  0.0000  0.0000  0.0000  0.0000  0.0000 </r>
        <r>  0.0000  0.1611  0.0355  0.0201  0.0000  0.0000  0.0000  0.0000  0.0000 </r>
       </set>
       <set comment="band 5">
        <r>  0.1874  0.0021  0.0000  0.0170  0.0000  0.0000  0.0000  0.0000  0.0000 </r>
        <r>  0.1874  0.0021  0.0000  0.0170  0.0000  0.0000  0.0000  0.0000  0.0000 </r>
       </set>
       <set comment="band 6">
        <r>  0.0000  0.0605  0.0242  0.0076  0.0000  0.0000  0.0000  0.0000  0.0000 </r>
        <r>  0.0000  0.0605  0.0242  0.0076  0.0000  0.0000  0.0000  0.0000  0.0000 </r>
       </set>
       <set comment="band 7">
        <r>  0.0000  0.0215  0.0680  0.0027  0.0000  0.0000  0.0000  0.0000  0.0000 </r>
        <r>  0.0000  0.0215  0.0680  0.0027  0.0000  0.0000  0.0000  0.0000  0.0000 </r>
       </set>
       <set comment="band 8">
        <r>  0.0066  0.0053  0.0000  0.0422  0.0000  0.0000  0.0000  0.0000  0.0000 </r>
        <r>  0.0066  0.0053  0.0000  0.0422  0.0000  0.0000  0.0000  0.0000  0.0000 </r>
       </set>
       <set comment="band 9">
        <r>  0.0065  0.0062  0.0016  0.0202  0.0000  0.0000  0.0000  0.0000  0.0000 </r>
        <r>  0.0067  0.0111  0.0018  0.0172  0.0000  0.0000  0.0000  0.0000  0.0000 </r>
       </set>
      </set>
      <set comment="kpoint 4">
       <set comment="band 1">
        <r>  0.2122  0.0039  0.0000  0.0078  0.0000  0.0000  0.0000  0.0000  0.0000 </r>
        <r>  0.2122  0.0039  0.0000  0.0078  0.0000  0.0000  0.0000  0.0000  0.0000 </r>
       </set>
       <set comment="band 2">
        <r>  0.1535  0.0341  0.0000  0.0681  0.0000  0.0000  0.0000  0.0000  0.0000 </r>
        <r>  0.1535  0.0341  0.0000  0.0681  0.0000  0.0000  0.0000  0.0000  0.0000 </r>
       </set>
       <set comment="band 3">
        <r>  0.0000  0.0352  0.1453  0.0176  0.0000  0.0000  0.0000  0.0000  0.0000 </r>
        <r>  0.0000  0.0352  0.1453  0.0176  0.0000  0.0000  0.0000  0.0000  0.0000 </r>
       </set>
       <set comment="band 4">
        <r>  0.0000  0.0968  0.0528  0.0484  0.0000  0.0000  0.0000  0.0000  0.0000 </r>
        <r>  0.0000  0.0968  0.0528  0.0484  0.0000  0.0000  0.0000  0.0000  0.0000 </r>
       </set>
       <set comment="band 5">
        <r>  0.0435  0.0250  0.0000  0.0500  0.0000  0.0000  0.0000  0.0000  0.0000 </r>
        <r>  0.0435  0.0250  0.0000  0.0500  0.0000  0.0000  0.0000  0.0000  0.0000 </r>
       </set>
       <set comment="band 6">
        <r>  0.0512  0.0123  0.0000  0.0246  0.0000  0.0000  0.0000  0.0000  0.0000 </r>
        <r>  0.0512  0.0123  0.0000  0.0246  0.0000  0.0000  0.0000  0.0000  0.0000 </r>
       </set>
       <set comment="band 7">
        <r>  0.0000  0.0361  0.1106  0.0180  0.0000  0.0000  0.0000  0.0000  0.0000 </r>
        <r>  0.0000  0.0361  0.1106  0.0180  0.0000  0.0000  0.0000  0.0000  0.0000 </r>
       </set>
       <set comment="band 8">
        <r>  0.0000  0.0737  0.0541  0.0369  0.0000  0.0000  0.0000  0.0000  0.0000 </r>
        <r>  0.0000  0.0737  0.0541  0.0369  0.0000  0.0000  0.0000  0.0000  0.0000 </r>
       </set>
       <set comment="band 9">
        <r>  0.1600  0.0316  0.0000  0.0633  0.0000  0.0000  0.0000  0.0000  0.0000 </r>
        <r>  0.1604  0.0318  0.0000  0.0636  0.0000  0.0000  0.0000  0.0000  0.0000 </r>
       </set>
      </set>
      <set comment="kpoint 5">
       <set comment="band 1">
        <r>  0.2136  0.0047  0.0000  0.0201  0.0000  0.0000  0.0000  0.0000  0.0000 </r>
        <r>  0.2136  0.0047  0.0000  0.0201  0.0000  0.0000  0.0000  0.0000  0.0000 </r>
       </set>
       <set comment="band 2">
        <r>  0.1581  0.0100  0.0000  0.0651  0.0000  0.0000  0.0000  0.0000  0.0000 </r>
        <r>  0.1581  0.0100  0.0000  0.0651  0.0000  0.0000  0.0000  0.0000  0.0000 </r>
       </set>
       <set comment="band 3">
        <r>  0.0231  0.1215  0.0000  0.0346  0.0000  0.0000  0.0000  0.0000  0.0000 </r>
        <r>  0.0231  0.1215  0.0000  0.0346  0.0000  0.0000  0.0000  0.0000  0.0000 </r>
       </set>
       <set comment="band 4">
        <r>  0.0000  0.0000  0.2008  0.0000  0.0000  0.0000  0.0000  0.0000  0.0000 </r>
        <r>  0.0000  0.0000  0.2008  0.0000  0.0000  0.0000  0.0000  0.0000  0.0000 </r>
       </set>
       <set comment="band 5">
        <r>  0.0514  0.0308  0.0000  0.0185  0.0000  0.0000  0.0000  0.0000  0.0000 </r>
        <r>  0.0514  0.0308  0.0000  0.0185  0.0000  0.0000  0.0000  0.0000  0.0000 </r>
       </set>
       <set comment="band 6">
        <r>  0.0189  0.0460  0.0000  0.0299  0.0000  0.0000  0.0000  0.0000  0.0000 </r>
        <r>  0.0189  0.0460  0.0000  0.0299  0.0000  0.0000  0.0000  0.0000  0.0000 </r>
       </set>
       <set comment="band 7">
        <r>  0.0700  0.1189  0.0000  0.0076  0.0000  0.0000  0.0000  0.0000  0.0000 </r>
        <r>  0.0701  0.1189  0.0000  0.0076  0.0000  0.0000  0.0000  0.0000  0.0000 </r>
       </set>
       <set comment="band 8">
        <r>  0.0000  0.0000  0.1119  0.0000  0.0000  0.0000  0.0000  0.0000  0.0000 </r>
        <r>  0.0000  0.0000  0.1119  0.0000  0.0000  0.0000  0.0000  0.0000  0.0000 </r>
       </set>
       <set comment="band 9">
        <r>  0.0078  0.0143  0.0035  0.1147  0.0000  0.0000  0.0000  0.0000  0.0000 </r>
        <r>  0.0077  0.0142  0.0035  0.1152  0.0000  0.0000  0.0000  0.0000  0.0000 </r>
       </set>
      </set>
      <set comment="kpoint 6">
       <set comment="band 1">
        <r>  0.2132  0.0120  0.0000  0.0072  0.0000  0.0000  0.0000  0.0000  0.0000 </r>
        <r>  0.2132  0.0120  0.0000  0.0072  0.0000  0.0000  0.0000  0.0000  0.0000 </r>
       </set>
       <set comment="band 2">
        <r>  0.1550  0.0434  0.0000  0.0413  0.0000  0.0000  0.0000  0.0000  0.0000 </r>
        <r>  0.1550  0.0434  0.0000  0.0413  0.0000  0.0000  0.0000  0.0000  0.0000 </r>
       </set>
       <set comment="band 3">
        <r>  0.0124  0.0761  0.0000  0.0802  0.0000  0.0000  0.0000  0.0000  0.0000 </r>
        <r>  0.0124  0.0761  0.0000  0.0802  0.0000  0.0000  0.0000  0.0000  0.0000 </r>
       </set>
       <set comment="band 4">
        <r>  0.0000  0.0000  0.2111  0.0000  0.0000  0.0000  0.0000  0.0000  0.0000 </r>
        <r>  0.0000  0.0000  0.2111  0.0000  0.0000  0.0000  0.0000  0.0000  0.0000 </r>
       </set>
       <set comment="band 5">
        <r>  0.0657  0.0217  0.0000  0.0403  0.0000  0.0000  0.0000  0.0000  0.0000 </r>
        <r>  0.0657  0.0217  0.0000  0.0403  0.0000  0.0000  0.0000  0.0000  0.0000 </r>
       </set>
       <set comment="band 6">
        <r>  0.0000  0.0000  0.1474  0.0000  0.0000  0.0000  0.0000  0.0000  0.0000 </r>
        <r>  0.0000  0.0000  0.1474  0.0000  0.0000  0.0000  0.0000  0.0000  0.0000 </r>
       </set>
       <set comment="band 7">
        <r>  0.0320  0.0337  0.0000  0.0664  0.0000  0.0000  0.0000  0.0000  0.0000 </r>
        <r>  0.0320  0.0337  0.0000  0.0664  0.0000  0.0000  0.0000  0.0000  0.0000 </r>
       </set>
       <set comment="band 8">
        <r>  0.0785  0.0691  0.0000  0.0469  0.0000  0.0000  0.0000  0.0000  0.0000 </r>
        <r>  0.0784  0.0691  0.0000  0.0469  0.0000  0.0000  0.0000  0.0000  0.0000 </r>
       </set>
       <set comment="band 9">
        <r>  0.0000  0.0000  0.0070  0.0000  0.0000  0.0000  0.0000  0.0000  0.0000 </r>
        <r>  0.0000  0.0000  0.0070  0.0000  0.0000  0.0000  0.0000  0.0000  0.0000 </r>
       </set>
      </set>
      <set comment="kpoint 7">
       <set comment="band 1">
        <r>  0.0018  0.0301  0.0000  0.0603  0.0000  0.0000  0.0000  0.0000  0.0000 </r>
        <r>  0.3907  0.0001  0.0000  0.0003  0.0000  0.0000  0.0000  0.0000  0.0000 </r>
       </set>
       <set comment="band 2">
        <r>  0.3907  0.0001  0.0000  0.0003  0.0000  0.0000  0.0000  0.0000  0.0000 </r>
        <r>  0.0018  0.0301  0.0000  0.0603  0.0000  0.0000  0.0000  0.0000  0.0000 </r>
       </set>
       <set comment="band 3">
        <r>  0.0000  0.0293  0.1522  0.0147  0.0000  0.0000  0.0000  0.0000  0.0000 </r>
        <r>  0.0000  0.0293  0.1522  0.0147  0.0000  0.0000  0.0000  0.0000  0.0000 </r>
       </set>
       <set comment="band 4">
        <r>  0.0000  0.1015  0.0440  0.0507  0.0000  0.0000  0.0000  0.0000  0.0000 </r>
        <r>  0.0000  0.1015  0.0440  0.0507  0.0000  0.0000  0.0000  0.0000  0.0000 </r>
       </set>
       <set comment="band 5">
        <r>  0.0715  0.0071  0.0000  0.0142  0.0000  0.0000  0.0000  0.0000  0.0000 </r>
        <r>  0.0324  0.0156  0.0000  0.0312  0.0000  0.0000  0.0000  0.0000  0.0000 </r>
       </set>
       <set comment="band 6">
        <r>  0.0324  0.0156  0.0000  0.0312  0.0000  0.0000  0.0000  0.0000  0.0000 </r>
        <r>  0.0715  0.0071  0.0000  0.0142  0.0000  0.0000  0.0000  0.0000  0.0000 </r>
       </set>
       <set comment="band 7">
        <r>  0.0000  0.0949  0.0965  0.0477  0.0000  0.0000  0.0000  0.0000  0.0000 </r>
        <r>  0.0000  0.0950  0.0965  0.0478  0.0000  0.0000  0.0000  0.0000  0.0000 </r>
       </set>
       <set comment="band 8">
        <r>  0.0000  0.0657  0.1407  0.0328  0.0000  0.0000  0.0000  0.0000  0.0000 </r>
        <r>  0.0000  0.0629  0.1440  0.0312  0.0000  0.0000  0.0000  0.0000  0.0000 </r>
       </set>
       <set comment="band 9">
        <r>  0.0000  0.0052  0.0056  0.0016  0.0000  0.0000  0.0000  0.0000  0.0000 </r>
        <r>  0.0001  0.0046  0.0057  0.0019  0.0000  0.0000  0.0000  0.0000  0.0000 </r>
       </set>
      </set>
      <set comment="kpoint 8">
       <set comment="band 1">
        <r>  0.0904  0.0222  0.0167  0.0278  0.0000  0.0000  0.0000  0.0000  0.0000 </r>
        <r>  0.3234  0.0062  0.0047  0.0078  0.0000  0.0000  0.0000  0.0000  0.0000 </r>
       </set>
       <set comment="band 2">
        <r>  0.3234  0.0062  0.0047  0.0078  0.0000  0.0000  0.0000  0.0000  0.0000 </r>
        <r>  0.0904  0.0222  0.0167  0.0278  0.0000  0.0000  0.0000  0.0000  0.0000 </r>
       </set>
       <set comment="band 3">
        <r>  0.0000  0.0151  0.0889  0.0442  0.0000  0.0000  0.0000  0.0000  0.0000 </r>
        <r>  0.0000  0.0252  0.0692  0.0841  0.0000  0.0000  0.0000  0.0000  0.0000 </r>
       </set>
       <set comment="band 4">
        <r>  0.0000  0.0938  0.0287  0.0560  0.0000  0.0000  0.0000  0.0000  0.0000 </r>
        <r>  0.0000  0.0837  0.0483  0.0161  0.0000  0.0000  0.0000  0.0000  0.0000 </r>
       </set>
       <set comment="band 5">
        <r>  0.0000  0.0175  0.0236  0.0068  0.0000  0.0000  0.0000  0.0000  0.0000 </r>
        <r>  0.0000  0.0398  0.0571  0.0180  0.0000  0.0000  0.0000  0.0000  0.0000 </r>
       </set>
       <set comment="band 6">
        <r>  0.0000  0.0367  0.0577  0.0203  0.0000  0.0000  0.0000  0.0000  0.0000 </r>
        <r>  0.0000  0.0145  0.0243  0.0092  0.0000  0.0000  0.0000  0.0000  0.0000 </r>
       </set>
       <set comment="band 7">
        <r>  0.0696  0.0307  0.0230  0.0384  0.0000  0.0000  0.0000  0.0000  0.0000 </r>
        <r>  0.0583  0.0367  0.0275  0.0459  0.0000  0.0000  0.0000  0.0000  0.0000 </r>
       </set>
       <set comment="band 8">
        <r>  0.0583  0.0367  0.0276  0.0459  0.0000  0.0000  0.0000  0.0000  0.0000 </r>
        <r>  0.0696  0.0307  0.0230  0.0384  0.0000  0.0000  0.0000  0.0000  0.0000 </r>
       </set>
       <set comment="band 9">
        <r>  0.0000  0.0855  0.0055  0.0501  0.0000  0.0000  0.0000  0.0000  0.0000 </r>
        <r>  0.0000  0.0829  0.0046  0.0439  0.0000  0.0000  0.0000  0.0000  0.0000 </r>
       </set>
      </set>
     </set>
    </set>
   </array>
  </projected>
 </calculation>
 <structure name="finalpos" >
  <crystal>
   <varray name="basis" >
    <v>       3.34889800       0.00000000       1.93348700 </v>
    <v>       1.11629900       3.15737200       1.93348700 </v>
    <v>       0.00000000       0.00000000       3.86697500 </v>
   </varray>
   <i name="volume">     40.88829843 </i>
   <varray name="rec_basis" >
    <v>       0.29860569      -0.10557300       0.00000000 </v>
    <v>       0.00000000       0.31671909       0.00000000 </v>
    <v>      -0.14930281      -0.10557302       0.25860007 </v>
   </varray>
  </crystal>
  <varray name="positions" >
   <v>       0.25000000       0.25000000       0.25000000 </v>
   <v>       0.00000000       0.00000000       0.00000000 </v>
  </varray>
 </structure>
</modeling>
