<?xml version="1.0" encoding="ISO-8859-1"?>
<modeling>
 <generator>
  <i name="program" type="string">vasp </i>
  <i name="version" type="string">6.3.0  </i>
  <i name="subversion" type="string">20Jan22 (build Feb 02 2022 18:12:33) complex                          parallel </i>
  <i name="platform" type="string">LinuxIFC </i>
  <i name="date" type="string">2022 04 15 </i>
  <i name="time" type="string">08:40:25 </i>
 </generator>
 <incar>
  <i type="string" name="PREC">Accurate</i>
  <i type="string" name="ALGO">Fast</i>
  <i type="int" name="ISPIN">     2</i>
  <i type="int" name="NELM">   200</i>
  <i type="int" name="NELMIN">     6</i>
  <i name="EDIFF">      0.00001000</i>
  <i type="int" name="NSW">     0</i>
  <i name="ENCUT">    500.00000000</i>
  <i name="ENAUG">   1360.00000000</i>
  <v name="MAGMOM">      0.00100000      0.00000000      0.00100000      0.00000000      0.00100000      0.00000000      0.00100000</v>
  <i name="NELECT">     28.00000000</i>
  <i type="logical" name="LREAL"> F  </i>
  <i type="int" name="ISMEAR">     0</i>
  <i name="SIGMA">      0.05000000</i>
  <i type="logical" name="LWAVE"> T  </i>
  <i type="logical" name="LCHARG"> T  </i>
  <i type="logical" name="LVTOT"> T  </i>
  <i type="int" name="LORBIT">    11</i>
  <i type="logical" name="LELF"> F  </i>
  <i type="logical" name="LASPH"> T  </i>
  <i type="logical" name="LAECHG"> F  </i>
  <i type="string" name="GGA">Ps</i>
  <i type="logical" name="LMIXTAU"> T  </i>
 </incar>
 <primitive_cell>
  <structure name="primitive_cell" >
   <crystal>
    <varray name="basis" >
     <v>       5.43784835       0.00000000       0.00000000 </v>
     <v>       0.00000000       5.43784835       0.00000000 </v>
     <v>       0.00000000       0.00000000       5.43784835 </v>
    </varray>
    <i name="volume">    160.79823434 </i>
    <varray name="rec_basis" >
     <v>       0.18389626       0.00000000       0.00000000 </v>
     <v>       0.00000000       0.18389626       0.00000000 </v>
     <v>       0.00000000       0.00000000       0.18389626 </v>
    </varray>
   </crystal>
   <varray name="positions" >
    <v>       0.25537591       0.74462409       0.25537591 </v>
    <v>       0.00000000       0.00000000       0.50000000 </v>
    <v>       0.25537591       0.25537591       0.74462409 </v>
    <v>       0.00000000       0.50000000       0.00000000 </v>
    <v>       0.74462409       0.74462409       0.74462409 </v>
    <v>       0.50000000       0.00000000       0.00000000 </v>
    <v>       0.74462409       0.25537591       0.25537591 </v>
   </varray>
  </structure>
  <varray name="primitive_index" >
   <v type="int" >        1 </v>
   <v type="int" >        2 </v>
   <v type="int" >        3 </v>
   <v type="int" >        4 </v>
   <v type="int" >        5 </v>
   <v type="int" >        6 </v>
   <v type="int" >        7 </v>
  </varray>
 </primitive_cell>
 <kpoints>
  <generation param="Gamma">
   <v type="int" name="divisions">       4        4        4 </v>
   <v name="usershift">      0.00000000       0.00000000       0.00000000 </v>
   <v name="genvec1">      0.25000000       0.00000000       0.00000000 </v>
   <v name="genvec2">      0.00000000       0.25000000       0.00000000 </v>
   <v name="genvec3">      0.00000000       0.00000000       0.25000000 </v>
   <v name="shift">      0.00000000       0.00000000       0.00000000 </v>
  </generation>
  <varray name="kpointlist" >
   <v>       0.00000000       0.00000000       0.00000000 </v>
   <v>       0.25000000       0.00000000       0.00000000 </v>
   <v>       0.50000000       0.00000000       0.00000000 </v>
   <v>       0.25000000       0.25000000       0.00000000 </v>
   <v>       0.50000000       0.25000000       0.00000000 </v>
   <v>       0.50000000       0.50000000       0.00000000 </v>
   <v>       0.25000000       0.25000000       0.25000000 </v>
   <v>       0.50000000       0.25000000       0.25000000 </v>
   <v>       0.50000000       0.50000000       0.25000000 </v>
   <v>       0.50000000       0.50000000       0.50000000 </v>
  </varray>
  <varray name="weights" >
   <v>       0.01562500 </v>
   <v>       0.09375000 </v>
   <v>       0.04687500 </v>
   <v>       0.18750000 </v>
   <v>       0.18750000 </v>
   <v>       0.04687500 </v>
   <v>       0.12500000 </v>
   <v>       0.18750000 </v>
   <v>       0.09375000 </v>
   <v>       0.01562500 </v>
  </varray>
 </kpoints>
 <parameters>
  <separator name="general" >
   <i type="string" name="SYSTEM">unknown system</i>
   <i type="logical" name="LCOMPAT"> F  </i>
  </separator>
  <separator name="electronic" >
   <i type="string" name="PREC">accura</i>
   <i name="ENMAX">    500.00000000</i>
   <i name="ENAUG">   1360.00000000</i>
   <i name="EDIFF">      0.00001000</i>
   <i type="int" name="IALGO">    68</i>
   <i type="int" name="IWAVPR">    10</i>
   <i type="int" name="NBANDS">   144</i>
   <i type="int" name="NBANDSLOW">    -1</i>
   <i type="int" name="NBANDSHIGH">    -1</i>
   <i name="NELECT">     28.00000000</i>
   <i type="int" name="TURBO">     0</i>
   <i type="int" name="IRESTART">     0</i>
   <i type="int" name="NREBOOT">     0</i>
   <i type="int" name="NMIN">     0</i>
   <i name="EREF">      0.00000000</i>
   <separator name="electronic smearing" >
    <i type="int" name="ISMEAR">     0</i>
    <i name="SIGMA">      0.05000000</i>
    <i name="KSPACING">      0.50000000</i>
    <i type="logical" name="KGAMMA"> T  </i>
    <i type="logical" name="KBLOWUP"> T  </i>
   </separator>
   <separator name="electronic projectors" >
    <i type="logical" name="LREAL"> F  </i>
    <v name="ROPT">      0.00000000</v>
    <i type="int" name="LMAXPAW">  -100</i>
    <i type="int" name="LMAXMIX">     2</i>
    <i type="logical" name="NLSPLINE"> F  </i>
   </separator>
   <separator name="electronic startup" >
    <i type="int" name="ISTART">     0</i>
    <i type="int" name="ICHARG">     2</i>
    <i type="int" name="INIWAV">     1</i>
   </separator>
   <separator name="electronic spin" >
    <i type="int" name="ISPIN">     2</i>
    <i type="logical" name="LNONCOLLINEAR"> F  </i>
    <v name="MAGMOM">      0.00100000      0.00000000      0.00100000      0.00000000      0.00100000      0.00000000      0.00100000</v>
    <i name="NUPDOWN">     -1.00000000</i>
    <i type="logical" name="LSORBIT"> F  </i>
    <v name="SAXIS">      0.00000000      0.00000000      1.00000000</v>
    <i type="logical" name="LSPIRAL"> F  </i>
    <v name="QSPIRAL">      0.00000000      0.00000000      0.00000000</v>
    <i type="logical" name="LZEROZ"> F  </i>
   </separator>
   <separator name="electronic exchange-correlation" >
    <i type="logical" name="LASPH"> T  </i>
    <i type="logical" name="LMETAGGA"> F  </i>
   </separator>
   <separator name="electronic convergence" >
    <i type="int" name="NELM">   200</i>
    <i type="int" name="NELMDL">    -5</i>
    <i type="int" name="NELMIN">     6</i>
    <i name="ENINI">    500.00000000</i>
    <separator name="electronic convergence detail" >
     <i type="logical" name="LDIAG"> T  </i>
     <i type="logical" name="LSUBROT"> F  </i>
     <i name="WEIMIN">      0.00000000</i>
     <i name="EBREAK">      0.00000002</i>
     <i name="DEPER">      0.30000000</i>
     <i type="int" name="NRMM">     4</i>
     <i name="TIME">      0.40000000</i>
    </separator>
   </separator>
   <separator name="electronic mixer" >
    <i name="AMIX">      0.40000000</i>
    <i name="BMIX">      1.00000000</i>
    <i name="AMIN">      0.10000000</i>
    <i name="AMIX_MAG">      1.60000000</i>
    <i name="BMIX_MAG">      1.00000000</i>
    <separator name="electronic mixer details" >
     <i type="int" name="IMIX">     4</i>
     <i type="logical" name="MIXFIRST"> F  </i>
     <i type="int" name="MAXMIX">   -45</i>
     <i name="WC">    100.00000000</i>
     <i type="int" name="INIMIX">     1</i>
     <i type="int" name="MIXPRE">     1</i>
     <i type="int" name="MREMOVE">     5</i>
    </separator>
   </separator>
   <separator name="electronic dipolcorrection" >
    <i type="logical" name="LDIPOL"> F  </i>
    <i type="logical" name="LMONO"> F  </i>
    <i type="int" name="IDIPOL">     0</i>
    <i name="EPSILON">      1.00000000</i>
    <v name="DIPOL">   -100.00000000   -100.00000000   -100.00000000</v>
    <i name="EFIELD">      0.00000000</i>
   </separator>
  </separator>
  <separator name="grids" >
   <i type="int" name="NGX">    40</i>
   <i type="int" name="NGY">    40</i>
   <i type="int" name="NGZ">    40</i>
   <i type="int" name="NGXF">    80</i>
   <i type="int" name="NGYF">    80</i>
   <i type="int" name="NGZF">    80</i>
   <i type="logical" name="ADDGRID"> F  </i>
  </separator>
  <separator name="ionic" >
   <i type="int" name="NSW">     0</i>
   <i type="int" name="IBRION">    -1</i>
   <i type="int" name="MDALGO">     0</i>
   <i type="int" name="ISIF">     2</i>
   <i name="PSTRESS">      0.00000000</i>
   <i name="EDIFFG">      0.00010000</i>
   <i type="int" name="NFREE">     0</i>
   <i name="POTIM">      0.50000000</i>
   <i name="SMASS">     -3.00000000</i>
   <i name="SCALEE">      1.00000000</i>
  </separator>
  <separator name="ionic md" >
   <i name="TEBEG">      0.00010000</i>
   <i name="TEEND">      0.00010000</i>
   <i type="int" name="NBLOCK">     1</i>
   <i type="int" name="KBLOCK">     1</i>
   <i type="int" name="NPACO">   256</i>
   <i name="APACO">     10.00000000</i>
  </separator>
  <separator name="symmetry" >
   <i type="int" name="ISYM">     2</i>
   <i name="SYMPREC">      0.00001000</i>
  </separator>
  <separator name="dos" >
   <i type="int" name="LORBIT">    11</i>
   <v name="RWIGS">     -1.00000000</v>
   <i type="int" name="NEDOS">   301</i>
   <i name="EMIN">     10.00000000</i>
   <i name="EMAX">    -10.00000000</i>
   <i name="EFERMI">      0.00000000</i>
  </separator>
  <separator name="writing" >
   <i type="int" name="NWRITE">     2</i>
   <i type="logical" name="LWAVE"> T  </i>
   <i type="logical" name="LDOWNSAMPLE"> F  </i>
   <i type="logical" name="LCHARG"> T  </i>
   <i type="logical" name="LPARD"> F  </i>
   <i type="logical" name="LVTOT"> T  </i>
   <i type="logical" name="LVHAR"> F  </i>
   <i type="logical" name="LELF"> F  </i>
   <i type="logical" name="LOPTICS"> F  </i>
   <v name="STM">      0.00000000      0.00000000      0.00000000      0.00000000      0.00000000      0.00000000      0.00000000</v>
  </separator>
  <separator name="performance" >
   <i type="int" name="NPAR">   144</i>
   <i type="int" name="NSIM">     4</i>
   <i type="int" name="NBLK">    -1</i>
   <i type="logical" name="LPLANE"> T  </i>
   <i type="logical" name="LSCALAPACK"> T  </i>
   <i type="logical" name="LSCAAWARE"> T  </i>
   <i type="logical" name="LSCALU"> F  </i>
   <i type="logical" name="LASYNC"> F  </i>
   <i type="logical" name="LORBITALREAL"> F  </i>
  </separator>
  <separator name="miscellaneous" >
   <i type="int" name="IDIOT">     3</i>
   <i type="int" name="PHON_NSTRUCT">    -1</i>
   <i type="logical" name="LMUSIC"> F  </i>
   <v name="POMASS">     28.08500000</v>
   <v name="DARWINR">      0.00000000</v>
   <v name="DARWINV">      1.00000000</v>
   <i type="logical" name="LCORR"> T  </i>
  </separator>
  <i type="logical" name="GGA_COMPAT"> T  </i>
  <i type="logical" name="LBERRY"> F  </i>
  <i type="int" name="ICORELEVEL">     0</i>
  <i type="logical" name="LDAU"> F  </i>
  <i type="int" name="I_CONSTRAINED_M">     0</i>
  <separator name="electronic exchange-correlation" >
   <i type="string" name="GGA">PS</i>
   <i type="int" name="VOSKOWN">     0</i>
   <i type="logical" name="LHFCALC"> F  </i>
   <i type="string" name="PRECFOCK"></i>
   <i type="logical" name="LSYMGRAD"> F  </i>
   <i type="logical" name="LHFONE"> F  </i>
   <i type="logical" name="LRHFCALC"> F  </i>
   <i type="logical" name="LTHOMAS"> F  </i>
   <i type="logical" name="LMODELHF"> F  </i>
   <i type="logical" name="LFOCKACE"> F  </i>
   <i name="ENCUT4O">     -1.00000000</i>
   <i type="int" name="EXXOEP">     0</i>
   <i type="int" name="FOURORBIT">     0</i>
   <i name="AEXX">      0.00000000</i>
   <i name="HFALPHA">      0.00000000</i>
   <i name="MCALPHA">      0.00000000</i>
   <i name="ALDAX">      1.00000000</i>
   <i name="AGGAX">      1.00000000</i>
   <i name="ALDAC">      1.00000000</i>
   <i name="AGGAC">      1.00000000</i>
   <i type="int" name="NKREDX">     1</i>
   <i type="int" name="NKREDY">     1</i>
   <i type="int" name="NKREDZ">     1</i>
   <i type="logical" name="SHIFTRED"> F  </i>
   <i type="logical" name="ODDONLY"> F  </i>
   <i type="logical" name="EVENONLY"> F  </i>
   <i type="int" name="LMAXFOCK">     0</i>
   <i type="int" name="NMAXFOCKAE">     0</i>
   <i type="logical" name="LFOCKAEDFT"> F  </i>
   <i name="HFSCREEN">      0.00000000</i>
   <i name="HFSCREENC">      0.00000000</i>
   <i type="int" name="NBANDSGWLOW">     0</i>
  </separator>
  <separator name="vdW DFT" >
   <i type="logical" name="LUSE_VDW"> F  </i>
   <i name="Zab_VDW">     -0.84910000</i>
   <i name="PARAM1">      0.12340000</i>
   <i name="PARAM2">      1.00000000</i>
   <i name="PARAM3">      0.00000000</i>
  </separator>
  <separator name="model GW" >
   <i type="int" name="MODEL_GW">     0</i>
   <i name="MODEL_EPS0">     13.78270580</i>
   <i name="MODEL_ALPHA">      1.00000000</i>
  </separator>
  <separator name="linear response parameters" >
   <i type="logical" name="LEPSILON"> F  </i>
   <i type="logical" name="LRPA"> F  </i>
   <i type="logical" name="LNABLA"> F  </i>
   <i type="logical" name="LVEL"> F  </i>
   <i name="CSHIFT">      0.10000000</i>
   <i name="OMEGAMAX">     -1.00000000</i>
   <i name="DEG_THRESHOLD">      0.00200000</i>
   <i name="RTIME">     -0.10000000</i>
   <i name="WPLASMAI">      0.00000000</i>
   <v name="DFIELD">      0.00000000      0.00000000      0.00000000</v>
   <v name="WPLASMA">      0.00000000      0.00000000      0.00000000      0.00000000      0.00000000      0.00000000      0.00000000      0.00000000      0.00000000</v>
  </separator>
  <separator name="orbital magnetization" >
   <i type="logical" name="NUCIND"> F  </i>
   <v name="MAGPOS">      0.00000000      0.00000000      0.00000000</v>
   <i type="logical" name="LNICSALL"> T  </i>
   <i type="logical" name="ORBITALMAG"> F  </i>
   <i type="logical" name="LMAGBLOCH"> F  </i>
   <i type="logical" name="LCHIMAG"> F  </i>
   <i type="logical" name="LGAUGE"> T  </i>
   <i type="int" name="MAGATOM">     0</i>
   <v name="MAGDIPOL">      0.00000000      0.00000000      0.00000000</v>
   <v name="AVECCONST">      0.00000000      0.00000000      0.00000000</v>
  </separator>
  <separator name="response functions" >
   <i type="logical" name="LFINITE_TEMPERATURE"> F  </i>
   <i type="logical" name="LADDER"> F  </i>
   <i type="logical" name="LRPAFORCE"> F  </i>
   <i type="logical" name="LFXC"> F  </i>
   <i type="logical" name="LHARTREE"> T  </i>
   <i type="int" name="IBSE">     0</i>
   <v type="int" name="KPOINT">    -1     0     0     0</v>
   <i type="logical" name="LTCTC"> F  </i>
   <i type="logical" name="LTCTE"> F  </i>
   <i type="logical" name="LTETE"> F  </i>
   <i type="logical" name="LTRIPLET"> F  </i>
   <i type="logical" name="LFXCEPS"> F  </i>
   <i type="logical" name="LFXHEG"> F  </i>
   <i type="int" name="NATURALO">     2</i>
   <i type="logical" name="LHOLEGF"> F  </i>
   <i type="logical" name="L2ORDER"> F  </i>
   <i type="logical" name="LDMP1"> F  </i>
   <i type="logical" name="LMP2LT"> F  </i>
   <i type="logical" name="LSMP2LT"> F  </i>
   <i type="logical" name="LGWLF"> F  </i>
   <i name="ENCUTGW">     -2.00000000</i>
   <i name="ENCUTGWSOFT">     -2.00000000</i>
   <i name="ENCUTLF">     -1.00000000</i>
   <i type="logical" name="LESF_SPLINES"> F  </i>
   <i type="int" name="LMAXMP2">    -1</i>
   <i name="SCISSOR">      0.00000000</i>
   <i type="int" name="NOMEGA">     0</i>
   <i type="int" name="NOMEGAR">     0</i>
   <i type="int" name="NBANDSGW">    -1</i>
   <i type="int" name="NBANDSO">    -1</i>
   <i type="int" name="NBANDSV">    -1</i>
   <i type="int" name="NELMGW">     1</i>
   <i type="int" name="NELMHF">     1</i>
   <i type="int" name="DIM">     3</i>
   <i type="int" name="IESPILON">     4</i>
   <i type="int" name="ANTIRES">     0</i>
   <i name="OMEGAMAX">    -30.00000000</i>
   <i name="OMEGAMIN">    -30.00000000</i>
   <i name="OMEGATL">   -200.00000000</i>
   <i type="int" name="OMEGAGRID">     0</i>
   <i name="CSHIFT">     -0.10000000</i>
   <i type="logical" name="LSELFENERGY"> F  </i>
   <i type="logical" name="LSPECTRAL"> F  </i>
   <i type="logical" name="LSPECTRALGW"> F  </i>
   <i type="logical" name="LSINGLES"> F  </i>
   <i type="logical" name="LFERMIGW"> F  </i>
   <i type="logical" name="ODDONLYGW"> F  </i>
   <i type="logical" name="EVENONLYGW"> F  </i>
   <i type="int" name="NKREDLFX">     1</i>
   <i type="int" name="NKREDLFY">     1</i>
   <i type="int" name="NKREDLFZ">     1</i>
   <i type="int" name="MAXMEM">  2800</i>
   <i type="int" name="TELESCOPE">     0</i>
   <i type="int" name="NTAUPAR">    -1</i>
   <i type="int" name="NOMEGAPAR">    -1</i>
   <i name="DAMP_NEWTON">      0.80000001</i>
   <i name="LAMBDA">      1.00000000</i>
  </separator>
  <separator name="External order field" >
   <i name="OFIELD_KAPPA">      0.00000000</i>
   <v name="OFIELD_K">      0.00000000      0.00000000      0.00000000</v>
   <i name="OFIELD_Q6_NEAR">      0.00000000</i>
   <i name="OFIELD_Q6_FAR">      0.00000000</i>
   <i name="OFIELD_A">      0.00000000</i>
  </separator>
  <separator name="optional k-points parameters" >
   <i type="int" name="KPOINTS_OPT_MODE">     1</i>
   <i type="logical" name="LKPOINTS_OPT"> F  </i>
  </separator>
 </parameters>
 <atominfo>
  <atoms>       7 </atoms>
  <types>       1 </types>
  <array name="atoms" >
   <dimension dim="1">ion</dimension>
   <field type="string">element</field>
   <field type="int">atomtype</field>
   <set>
    <rc><c>Si</c><c>   1</c></rc>
    <rc><c>Si</c><c>   1</c></rc>
    <rc><c>Si</c><c>   1</c></rc>
    <rc><c>Si</c><c>   1</c></rc>
    <rc><c>Si</c><c>   1</c></rc>
    <rc><c>Si</c><c>   1</c></rc>
    <rc><c>Si</c><c>   1</c></rc>
   </set>
  </array>
  <array name="atomtypes" >
   <dimension dim="1">type</dimension>
   <field type="int">atomspertype</field>
   <field type="string">element</field>
   <field>mass</field>
   <field>valence</field>
   <field type="string">pseudopotential</field>
   <set>
    <rc><c>   7</c><c>Si</c><c>     28.08500000</c><c>      4.00000000</c><c>  PAW_PBE Si 05Jan2001                  </c></rc>
   </set>
  </array>
 </atominfo>
 <structure name="initialpos" >
  <crystal>
   <varray name="basis" >
    <v>       5.43784835       0.00000000       0.00000000 </v>
    <v>       0.00000000       5.43784835       0.00000000 </v>
    <v>       0.00000000       0.00000000       5.43784835 </v>
   </varray>
   <i name="volume">    160.79823434 </i>
   <varray name="rec_basis" >
    <v>       0.18389626       0.00000000       0.00000000 </v>
    <v>       0.00000000       0.18389626       0.00000000 </v>
    <v>       0.00000000       0.00000000       0.18389626 </v>
   </varray>
  </crystal>
  <varray name="positions" >
   <v>       0.25537591       0.74462409       0.25537591 </v>
   <v>       0.00000000       0.00000000       0.50000000 </v>
   <v>       0.25537591       0.25537591       0.74462409 </v>
   <v>       0.00000000       0.50000000       0.00000000 </v>
   <v>       0.74462409       0.74462409       0.74462409 </v>
   <v>       0.50000000       0.00000000       0.00000000 </v>
   <v>       0.74462409       0.25537591       0.25537591 </v>
  </varray>
 </structure>
 <calculation>
  <scstep>
   <time name="dav">    5.19    5.19</time>
   <time name="total">    5.42    5.43</time>
   <energy>
    <i name="alphaZ">     10.25815623 </i>
    <i name="ewald">   -751.06367591 </i>
    <i name="hartreedc">    -54.93635407 </i>
    <i name="XCdc">    -62.64105653 </i>
    <i name="pawpsdc">    612.34974622 </i>
    <i name="pawaedc">   -491.33201668 </i>
    <i name="eentropy">     -0.00790538 </i>
    <i name="bandstr">      0.18844859 </i>
    <i name="atom">    718.02812073 </i>
    <i name="e_fr_energy">    -19.15653681 </i>
    <i name="e_wo_entrp">    -19.14863143 </i>
    <i name="e_0_energy">    -19.15258412 </i>
   </energy>
  </scstep>
  <scstep>
   <time name="dav">   12.37   12.39</time>
   <time name="total">   12.37   12.39</time>
   <energy>
    <i name="e_fr_energy">    -37.74813047 </i>
    <i name="e_wo_entrp">    -37.73830152 </i>
    <i name="e_0_energy">    -37.74321599 </i>
   </energy>
  </scstep>
  <scstep>
   <time name="dav">    5.34    5.36</time>
   <time name="total">    5.35    5.37</time>
   <energy>
    <i name="e_fr_energy">    -37.76300861 </i>
    <i name="e_wo_entrp">    -37.75317840 </i>
    <i name="e_0_energy">    -37.75809351 </i>
   </energy>
  </scstep>
  <scstep>
   <time name="dav">   25.46   25.48</time>
   <time name="total">   25.46   25.49</time>
   <energy>
    <i name="e_fr_energy">    -37.76301610 </i>
    <i name="e_wo_entrp">    -37.75318588 </i>
    <i name="e_0_energy">    -37.75810099 </i>
   </energy>
  </scstep>
  <scstep>
   <time name="dav">    5.69    5.71</time>
   <time name="total">    5.74    5.76</time>
   <energy>
    <i name="e_fr_energy">    -37.76301610 </i>
    <i name="e_wo_entrp">    -37.75318588 </i>
    <i name="e_0_energy">    -37.75810099 </i>
   </energy>
  </scstep>
  <scstep>
   <time name="diag">    0.81    0.81</time>
   <time name="diis">    0.20    0.20</time>
   <time name="orth">    0.11    0.11</time>
   <time name="total">    1.39    1.41</time>
   <energy>
    <i name="e_fr_energy">    -37.18956707 </i>
    <i name="e_wo_entrp">    -37.18238919 </i>
    <i name="e_0_energy">    -37.18597813 </i>
   </energy>
  </scstep>
  <scstep>
   <time name="diag">    0.81    0.81</time>
   <time name="diis">    0.29    0.29</time>
   <time name="orth">    0.11    0.11</time>
   <time name="total">    1.47    1.48</time>
   <energy>
    <i name="e_fr_energy">    -37.02777550 </i>
    <i name="e_wo_entrp">    -37.02107278 </i>
    <i name="e_0_energy">    -37.02442414 </i>
   </energy>
  </scstep>
  <scstep>
   <time name="diag">    0.77    0.77</time>
   <time name="diis">    0.28    0.28</time>
   <time name="orth">    0.11    0.11</time>
   <time name="total">    1.43    1.44</time>
   <energy>
    <i name="e_fr_energy">    -37.02166115 </i>
    <i name="e_wo_entrp">    -37.01499000 </i>
    <i name="e_0_energy">    -37.01832558 </i>
   </energy>
  </scstep>
  <scstep>
   <time name="diag">    0.77    0.77</time>
   <time name="diis">    0.31    0.31</time>
   <time name="orth">    0.11    0.11</time>
   <time name="total">    1.45    1.47</time>
   <energy>
    <i name="e_fr_energy">    -37.02161931 </i>
    <i name="e_wo_entrp">    -37.01492418 </i>
    <i name="e_0_energy">    -37.01827174 </i>
   </energy>
  </scstep>
  <scstep>
   <time name="diag">    0.76    0.76</time>
   <time name="diis">    0.31    0.31</time>
   <time name="orth">    0.11    0.11</time>
   <time name="total">    1.45    1.46</time>
   <energy>
    <i name="e_fr_energy">    -37.02165289 </i>
    <i name="e_wo_entrp">    -37.01494537 </i>
    <i name="e_0_energy">    -37.01829913 </i>
   </energy>
  </scstep>
  <scstep>
   <time name="diag">    0.75    0.75</time>
   <time name="diis">    0.32    0.32</time>
   <time name="orth">    0.11    0.11</time>
   <time name="total">    1.44    1.46</time>
   <energy>
    <i name="e_fr_energy">    -37.02164171 </i>
    <i name="e_wo_entrp">    -37.01493593 </i>
    <i name="e_0_energy">    -37.01828882 </i>
   </energy>
  </scstep>
  <scstep>
   <time name="diag">    0.75    0.75</time>
   <time name="diis">    0.31    0.31</time>
   <time name="orth">    0.11    0.11</time>
   <time name="total">    1.40    1.42</time>
   <energy>
    <i name="alphaZ">     10.25815623 </i>
    <i name="ewald">   -751.06367591 </i>
    <i name="hartreedc">    -64.92973403 </i>
    <i name="XCdc">    -61.11572818 </i>
    <i name="pawpsdc">   2381.27838159 </i>
    <i name="pawaedc">  -2260.76216358 </i>
    <i name="eentropy">     -0.00670561 </i>
    <i name="bandstr">     -8.70829294 </i>
    <i name="atom">    718.02812073 </i>
    <i name="e_fr_energy">    -37.02164171 </i>
    <i name="e_wo_entrp">    -37.01493610 </i>
    <i name="e_0_energy">    -37.01828891 </i>
   </energy>
  </scstep>
  <structure>
   <crystal>
    <varray name="basis" >
     <v>       5.43784835       0.00000000       0.00000000 </v>
     <v>       0.00000000       5.43784835       0.00000000 </v>
     <v>       0.00000000       0.00000000       5.43784835 </v>
    </varray>
    <i name="volume">    160.79823434 </i>
    <varray name="rec_basis" >
     <v>       0.18389626       0.00000000       0.00000000 </v>
     <v>       0.00000000       0.18389626       0.00000000 </v>
     <v>       0.00000000       0.00000000       0.18389626 </v>
    </varray>
   </crystal>
   <varray name="positions" >
    <v>       0.25537591       0.74462409       0.25537591 </v>
    <v>       0.00000000       0.00000000       0.50000000 </v>
    <v>       0.25537591       0.25537591       0.74462409 </v>
    <v>       0.00000000       0.50000000       0.00000000 </v>
    <v>       0.74462409       0.74462409       0.74462409 </v>
    <v>       0.50000000       0.00000000       0.00000000 </v>
    <v>       0.74462409       0.25537591       0.25537591 </v>
   </varray>
  </structure>
  <varray name="forces" >
   <v>      -0.02038415       0.02038415      -0.02038415 </v>
   <v>       0.00000000       0.00000000       0.00000000 </v>
   <v>      -0.02038415      -0.02038415       0.02038415 </v>
   <v>       0.00000000       0.00000000       0.00000000 </v>
   <v>       0.02038415       0.02038415       0.02038415 </v>
   <v>       0.00000000       0.00000000       0.00000000 </v>
   <v>       0.02038415      -0.02038415      -0.02038415 </v>
  </varray>
  <varray name="stress" >
   <v>     -45.69274660      -0.00000000      -0.00000000 </v>
   <v>       0.00000000     -45.69274660      -0.00000000 </v>
   <v>       0.00000000       0.00000000     -45.69274660 </v>
  </varray>
  <energy>
   <i name="e_fr_energy">    -37.02164171 </i>
   <i name="e_wo_entrp">    -37.01493610 </i>
   <i name="e_0_energy">    -37.01828891 </i>
  </energy>
  <time name="totalsc">   67.24   67.54</time>
  <eigenvalues>
   <array>
    <dimension dim="1">band</dimension>
    <dimension dim="2">kpoint</dimension>
    <dimension dim="3">spin</dimension>
    <field>eigene</field>
    <field>occ</field>
    <set>
     <set comment="spin 1">
      <set comment="kpoint 1">
       <r>   -6.9108    1.0000 </r>
       <r>   -3.2364    1.0000 </r>
       <r>   -3.2364    1.0000 </r>
       <r>   -2.8787    1.0000 </r>
       <r>   -2.8787    1.0000 </r>
       <r>   -2.8787    1.0000 </r>
       <r>    1.1836    1.0000 </r>
       <r>    1.7045    1.0000 </r>
       <r>    1.7045    1.0000 </r>
       <r>    1.7045    1.0000 </r>
       <r>    2.9571    1.0000 </r>
       <r>    2.9571    1.0000 </r>
       <r>    2.9571    1.0000 </r>
       <r>    5.5599    0.0000 </r>
       <r>    5.5599    0.0000 </r>
       <r>    5.5800    0.0000 </r>
       <r>    5.5800    0.0000 </r>
       <r>    5.5800    0.0000 </r>
       <r>    6.1697    0.0000 </r>
       <r>    6.1697    0.0000 </r>
       <r>    6.1697    0.0000 </r>
       <r>    6.3242    0.0000 </r>
       <r>    8.5013    0.0000 </r>
       <r>    8.5013    0.0000 </r>
       <r>    8.5013    0.0000 </r>
       <r>   10.1085    0.0000 </r>
       <r>   12.9633    0.0000 </r>
       <r>   12.9633    0.0000 </r>
       <r>   13.1244    0.0000 </r>
       <r>   14.5796    0.0000 </r>
       <r>   14.5796    0.0000 </r>
       <r>   14.5796    0.0000 </r>
       <r>   15.6543    0.0000 </r>
       <r>   15.6543    0.0000 </r>
       <r>   15.6543    0.0000 </r>
       <r>   15.7062    0.0000 </r>
       <r>   15.7062    0.0000 </r>
       <r>   15.7062    0.0000 </r>
       <r>   16.2926    0.0000 </r>
       <r>   16.2926    0.0000 </r>
       <r>   16.2926    0.0000 </r>
       <r>   17.0096    0.0000 </r>
       <r>   17.4541    0.0000 </r>
       <r>   17.4541    0.0000 </r>
       <r>   17.4863    0.0000 </r>
       <r>   17.4863    0.0000 </r>
       <r>   17.4863    0.0000 </r>
       <r>   18.1266    0.0000 </r>
       <r>   18.1266    0.0000 </r>
       <r>   18.1266    0.0000 </r>
       <r>   19.1484    0.0000 </r>
       <r>   19.1484    0.0000 </r>
       <r>   19.1862    0.0000 </r>
       <r>   20.2914    0.0000 </r>
       <r>   20.9200    0.0000 </r>
       <r>   20.9200    0.0000 </r>
       <r>   20.9200    0.0000 </r>
       <r>   23.5964    0.0000 </r>
       <r>   23.6996    0.0000 </r>
       <r>   23.6996    0.0000 </r>
       <r>   23.6996    0.0000 </r>
       <r>   24.3846    0.0000 </r>
       <r>   24.3846    0.0000 </r>
       <r>   24.3846    0.0000 </r>
       <r>   24.8248    0.0000 </r>
       <r>   24.8248    0.0000 </r>
       <r>   24.8248    0.0000 </r>
       <r>   24.9406    0.0000 </r>
       <r>   24.9406    0.0000 </r>
       <r>   24.9406    0.0000 </r>
       <r>   25.2531    0.0000 </r>
       <r>   25.2531    0.0000 </r>
       <r>   26.0973    0.0000 </r>
       <r>   26.0973    0.0000 </r>
       <r>   26.2063    0.0000 </r>
       <r>   26.2063    0.0000 </r>
       <r>   26.2063    0.0000 </r>
       <r>   27.1122    0.0000 </r>
       <r>   27.1122    0.0000 </r>
       <r>   27.1122    0.0000 </r>
       <r>   27.5240    0.0000 </r>
       <r>   28.5099    0.0000 </r>
       <r>   28.5099    0.0000 </r>
       <r>   28.5099    0.0000 </r>
       <r>   29.3936    0.0000 </r>
       <r>   29.3936    0.0000 </r>
       <r>   30.8516    0.0000 </r>
       <r>   31.7057    0.0000 </r>
       <r>   31.7057    0.0000 </r>
       <r>   31.7057    0.0000 </r>
       <r>   32.9945    0.0000 </r>
       <r>   32.9945    0.0000 </r>
       <r>   33.1161    0.0000 </r>
       <r>   33.1161    0.0000 </r>
       <r>   33.1161    0.0000 </r>
       <r>   33.8966    0.0000 </r>
       <r>   33.8966    0.0000 </r>
       <r>   33.8966    0.0000 </r>
       <r>   34.9443    0.0000 </r>
       <r>   34.9443    0.0000 </r>
       <r>   34.9443    0.0000 </r>
       <r>   37.6178    0.0000 </r>
       <r>   37.6178    0.0000 </r>
       <r>   37.6178    0.0000 </r>
       <r>   38.8729    0.0000 </r>
       <r>   38.8729    0.0000 </r>
       <r>   38.8729    0.0000 </r>
       <r>   39.0727    0.0000 </r>
       <r>   39.0727    0.0000 </r>
       <r>   39.0727    0.0000 </r>
       <r>   39.1806    0.0000 </r>
       <r>   39.1806    0.0000 </r>
       <r>   39.3256    0.0000 </r>
       <r>   40.1646    0.0000 </r>
       <r>   40.3643    0.0000 </r>
       <r>   40.3643    0.0000 </r>
       <r>   40.3643    0.0000 </r>
       <r>   40.8899    0.0000 </r>
       <r>   40.8899    0.0000 </r>
       <r>   40.8899    0.0000 </r>
       <r>   41.7953    0.0000 </r>
       <r>   41.7953    0.0000 </r>
       <r>   41.7953    0.0000 </r>
       <r>   42.2464    0.0000 </r>
       <r>   42.2464    0.0000 </r>
       <r>   42.5557    0.0000 </r>
       <r>   42.7921    0.0000 </r>
       <r>   42.9256    0.0000 </r>
       <r>   42.9256    0.0000 </r>
       <r>   43.2105    0.0000 </r>
       <r>   43.2105    0.0000 </r>
       <r>   43.2105    0.0000 </r>
       <r>   44.2620    0.0000 </r>
       <r>   44.2620    0.0000 </r>
       <r>   44.2620    0.0000 </r>
       <r>   44.8025    0.0000 </r>
       <r>   44.8028    0.0000 </r>
       <r>   45.1438    0.0000 </r>
       <r>   45.1438    0.0000 </r>
       <r>   45.1438    0.0000 </r>
       <r>   45.8443    0.0000 </r>
       <r>   45.8443    0.0000 </r>
       <r>   45.8443    0.0000 </r>
       <r>   46.1853    0.0000 </r>
      </set>
      <set comment="kpoint 2">
       <r>   -6.6655    1.0000 </r>
       <r>   -4.5767    1.0000 </r>
       <r>   -3.1641    1.0000 </r>
       <r>   -2.8114    1.0000 </r>
       <r>   -2.8114    1.0000 </r>
       <r>   -1.5028    1.0000 </r>
       <r>    1.1959    1.0000 </r>
       <r>    1.4635    1.0000 </r>
       <r>    1.4635    1.0000 </r>
       <r>    1.5158    1.0000 </r>
       <r>    2.1989    1.0000 </r>
       <r>    2.7578    1.0000 </r>
       <r>    2.7578    1.0000 </r>
       <r>    4.8702    0.0000 </r>
       <r>    5.2894    0.0000 </r>
       <r>    5.2894    0.0000 </r>
       <r>    5.6903    0.0000 </r>
       <r>    6.3991    0.0000 </r>
       <r>    6.7651    0.0000 </r>
       <r>    7.0368    0.0000 </r>
       <r>    7.0368    0.0000 </r>
       <r>    7.5352    0.0000 </r>
       <r>    8.0631    0.0000 </r>
       <r>    9.5588    0.0000 </r>
       <r>    9.5588    0.0000 </r>
       <r>   10.7006    0.0000 </r>
       <r>   11.9423    0.0000 </r>
       <r>   12.4130    0.0000 </r>
       <r>   12.5125    0.0000 </r>
       <r>   12.5125    0.0000 </r>
       <r>   13.3164    0.0000 </r>
       <r>   13.6464    0.0000 </r>
       <r>   14.2429    0.0000 </r>
       <r>   14.2922    0.0000 </r>
       <r>   14.2922    0.0000 </r>
       <r>   15.1198    0.0000 </r>
       <r>   15.9021    0.0000 </r>
       <r>   16.0001    0.0000 </r>
       <r>   16.0001    0.0000 </r>
       <r>   16.7094    0.0000 </r>
       <r>   16.7877    0.0000 </r>
       <r>   16.7877    0.0000 </r>
       <r>   16.9939    0.0000 </r>
       <r>   17.5285    0.0000 </r>
       <r>   17.6530    0.0000 </r>
       <r>   18.3637    0.0000 </r>
       <r>   18.3637    0.0000 </r>
       <r>   18.9744    0.0000 </r>
       <r>   18.9744    0.0000 </r>
       <r>   19.4257    0.0000 </r>
       <r>   19.8855    0.0000 </r>
       <r>   19.9609    0.0000 </r>
       <r>   20.6229    0.0000 </r>
       <r>   21.0658    0.0000 </r>
       <r>   21.4069    0.0000 </r>
       <r>   21.4069    0.0000 </r>
       <r>   21.6195    0.0000 </r>
       <r>   22.0226    0.0000 </r>
       <r>   22.2024    0.0000 </r>
       <r>   22.2024    0.0000 </r>
       <r>   22.9011    0.0000 </r>
       <r>   23.2864    0.0000 </r>
       <r>   23.2864    0.0000 </r>
       <r>   23.4128    0.0000 </r>
       <r>   23.8556    0.0000 </r>
       <r>   24.2679    0.0000 </r>
       <r>   24.2679    0.0000 </r>
       <r>   24.5659    0.0000 </r>
       <r>   24.8111    0.0000 </r>
       <r>   25.8325    0.0000 </r>
       <r>   25.8325    0.0000 </r>
       <r>   26.3506    0.0000 </r>
       <r>   26.8236    0.0000 </r>
       <r>   26.9714    0.0000 </r>
       <r>   26.9714    0.0000 </r>
       <r>   27.5059    0.0000 </r>
       <r>   28.1188    0.0000 </r>
       <r>   28.2387    0.0000 </r>
       <r>   28.3470    0.0000 </r>
       <r>   28.5039    0.0000 </r>
       <r>   28.5856    0.0000 </r>
       <r>   28.5856    0.0000 </r>
       <r>   29.3109    0.0000 </r>
       <r>   29.4395    0.0000 </r>
       <r>   29.4395    0.0000 </r>
       <r>   29.9550    0.0000 </r>
       <r>   30.1646    0.0000 </r>
       <r>   30.7482    0.0000 </r>
       <r>   31.0748    0.0000 </r>
       <r>   31.0748    0.0000 </r>
       <r>   31.4756    0.0000 </r>
       <r>   32.8214    0.0000 </r>
       <r>   32.8214    0.0000 </r>
       <r>   32.8852    0.0000 </r>
       <r>   33.8494    0.0000 </r>
       <r>   34.6140    0.0000 </r>
       <r>   34.6140    0.0000 </r>
       <r>   34.7491    0.0000 </r>
       <r>   35.1816    0.0000 </r>
       <r>   36.1073    0.0000 </r>
       <r>   36.1073    0.0000 </r>
       <r>   36.3524    0.0000 </r>
       <r>   36.3524    0.0000 </r>
       <r>   36.7360    0.0000 </r>
       <r>   36.8462    0.0000 </r>
       <r>   36.9432    0.0000 </r>
       <r>   37.5641    0.0000 </r>
       <r>   37.5641    0.0000 </r>
       <r>   37.6212    0.0000 </r>
       <r>   38.2185    0.0000 </r>
       <r>   38.2185    0.0000 </r>
       <r>   38.3012    0.0000 </r>
       <r>   38.6612    0.0000 </r>
       <r>   39.7570    0.0000 </r>
       <r>   39.7570    0.0000 </r>
       <r>   39.9534    0.0000 </r>
       <r>   40.4386    0.0000 </r>
       <r>   40.5387    0.0000 </r>
       <r>   40.5387    0.0000 </r>
       <r>   40.7038    0.0000 </r>
       <r>   40.9470    0.0000 </r>
       <r>   41.2994    0.0000 </r>
       <r>   41.8495    0.0000 </r>
       <r>   42.0787    0.0000 </r>
       <r>   42.3716    0.0000 </r>
       <r>   42.3716    0.0000 </r>
       <r>   42.8232    0.0000 </r>
       <r>   43.3442    0.0000 </r>
       <r>   43.3446    0.0000 </r>
       <r>   43.3446    0.0000 </r>
       <r>   44.1051    0.0000 </r>
       <r>   44.1294    0.0000 </r>
       <r>   44.4976    0.0000 </r>
       <r>   44.6956    0.0000 </r>
       <r>   44.6956    0.0000 </r>
       <r>   44.8789    0.0000 </r>
       <r>   45.0480    0.0000 </r>
       <r>   45.0480    0.0000 </r>
       <r>   45.2405    0.0000 </r>
       <r>   45.3619    0.0000 </r>
       <r>   45.6225    0.0000 </r>
       <r>   45.6225    0.0000 </r>
       <r>   45.9927    0.0000 </r>
       <r>   45.9929    0.0000 </r>
      </set>
      <set comment="kpoint 3">
       <r>   -6.1641    1.0000 </r>
       <r>   -5.5231    1.0000 </r>
       <r>   -3.0852    1.0000 </r>
       <r>   -2.7384    1.0000 </r>
       <r>   -2.7384    1.0000 </r>
       <r>   -0.5791    1.0000 </r>
       <r>    0.7917    1.0000 </r>
       <r>    0.9867    1.0000 </r>
       <r>    1.1711    1.0000 </r>
       <r>    1.1711    1.0000 </r>
       <r>    2.7906    1.0000 </r>
       <r>    2.7906    1.0000 </r>
       <r>    2.9080    1.0000 </r>
       <r>    3.4603    1.0000 </r>
       <r>    4.7878    0.0440 </r>
       <r>    4.7878    0.0440 </r>
       <r>    6.1488    0.0000 </r>
       <r>    6.4078    0.0000 </r>
       <r>    8.1977    0.0000 </r>
       <r>    8.7610    0.0000 </r>
       <r>    9.1531    0.0000 </r>
       <r>    9.1978    0.0000 </r>
       <r>    9.1978    0.0000 </r>
       <r>    9.5420    0.0000 </r>
       <r>    9.8446    0.0000 </r>
       <r>    9.8446    0.0000 </r>
       <r>   10.5043    0.0000 </r>
       <r>   10.7193    0.0000 </r>
       <r>   11.0172    0.0000 </r>
       <r>   11.0172    0.0000 </r>
       <r>   12.8047    0.0000 </r>
       <r>   12.8047    0.0000 </r>
       <r>   13.6252    0.0000 </r>
       <r>   13.6761    0.0000 </r>
       <r>   14.8640    0.0000 </r>
       <r>   14.9496    0.0000 </r>
       <r>   15.1452    0.0000 </r>
       <r>   15.9989    0.0000 </r>
       <r>   15.9989    0.0000 </r>
       <r>   16.2691    0.0000 </r>
       <r>   16.5671    0.0000 </r>
       <r>   17.5567    0.0000 </r>
       <r>   17.5961    0.0000 </r>
       <r>   17.5961    0.0000 </r>
       <r>   18.1677    0.0000 </r>
       <r>   18.3963    0.0000 </r>
       <r>   18.4981    0.0000 </r>
       <r>   18.4981    0.0000 </r>
       <r>   19.1958    0.0000 </r>
       <r>   19.3604    0.0000 </r>
       <r>   19.3604    0.0000 </r>
       <r>   20.3593    0.0000 </r>
       <r>   21.3319    0.0000 </r>
       <r>   21.3473    0.0000 </r>
       <r>   21.3473    0.0000 </r>
       <r>   21.6197    0.0000 </r>
       <r>   22.5837    0.0000 </r>
       <r>   22.5837    0.0000 </r>
       <r>   22.6752    0.0000 </r>
       <r>   22.6752    0.0000 </r>
       <r>   23.1223    0.0000 </r>
       <r>   23.1261    0.0000 </r>
       <r>   23.4641    0.0000 </r>
       <r>   23.4915    0.0000 </r>
       <r>   23.4915    0.0000 </r>
       <r>   23.9713    0.0000 </r>
       <r>   24.1453    0.0000 </r>
       <r>   24.2583    0.0000 </r>
       <r>   24.8172    0.0000 </r>
       <r>   25.7397    0.0000 </r>
       <r>   26.0604    0.0000 </r>
       <r>   26.0604    0.0000 </r>
       <r>   26.4400    0.0000 </r>
       <r>   26.6359    0.0000 </r>
       <r>   26.6359    0.0000 </r>
       <r>   26.8883    0.0000 </r>
       <r>   26.9729    0.0000 </r>
       <r>   27.6798    0.0000 </r>
       <r>   28.7619    0.0000 </r>
       <r>   29.5790    0.0000 </r>
       <r>   29.7244    0.0000 </r>
       <r>   29.7244    0.0000 </r>
       <r>   29.9885    0.0000 </r>
       <r>   31.3665    0.0000 </r>
       <r>   31.7671    0.0000 </r>
       <r>   31.7671    0.0000 </r>
       <r>   31.8784    0.0000 </r>
       <r>   32.0202    0.0000 </r>
       <r>   32.0914    0.0000 </r>
       <r>   32.3346    0.0000 </r>
       <r>   32.3346    0.0000 </r>
       <r>   32.3870    0.0000 </r>
       <r>   32.4996    0.0000 </r>
       <r>   32.4996    0.0000 </r>
       <r>   33.5643    0.0000 </r>
       <r>   33.8504    0.0000 </r>
       <r>   33.8504    0.0000 </r>
       <r>   34.0820    0.0000 </r>
       <r>   34.3313    0.0000 </r>
       <r>   34.5028    0.0000 </r>
       <r>   34.8025    0.0000 </r>
       <r>   34.8470    0.0000 </r>
       <r>   34.8470    0.0000 </r>
       <r>   35.2919    0.0000 </r>
       <r>   35.2919    0.0000 </r>
       <r>   35.8287    0.0000 </r>
       <r>   35.9077    0.0000 </r>
       <r>   35.9077    0.0000 </r>
       <r>   36.5374    0.0000 </r>
       <r>   37.8625    0.0000 </r>
       <r>   38.3666    0.0000 </r>
       <r>   38.6527    0.0000 </r>
       <r>   38.6527    0.0000 </r>
       <r>   39.7906    0.0000 </r>
       <r>   39.8295    0.0000 </r>
       <r>   40.0735    0.0000 </r>
       <r>   40.4059    0.0000 </r>
       <r>   40.4059    0.0000 </r>
       <r>   40.4388    0.0000 </r>
       <r>   41.3866    0.0000 </r>
       <r>   41.6255    0.0000 </r>
       <r>   41.6255    0.0000 </r>
       <r>   41.6474    0.0000 </r>
       <r>   41.9349    0.0000 </r>
       <r>   41.9349    0.0000 </r>
       <r>   42.4201    0.0000 </r>
       <r>   42.4358    0.0000 </r>
       <r>   42.4358    0.0000 </r>
       <r>   42.4902    0.0000 </r>
       <r>   42.6804    0.0000 </r>
       <r>   43.1619    0.0000 </r>
       <r>   43.1619    0.0000 </r>
       <r>   44.3909    0.0000 </r>
       <r>   44.8423    0.0000 </r>
       <r>   44.8423    0.0000 </r>
       <r>   45.0096    0.0000 </r>
       <r>   45.2795    0.0000 </r>
       <r>   45.3736    0.0000 </r>
       <r>   45.3839    0.0000 </r>
       <r>   45.3840    0.0000 </r>
       <r>   45.5731    0.0000 </r>
       <r>   45.9832    0.0000 </r>
       <r>   46.4228    0.0000 </r>
       <r>   46.5606    0.0000 </r>
      </set>
      <set comment="kpoint 4">
       <r>   -6.4244    1.0000 </r>
       <r>   -4.6373    1.0000 </r>
       <r>   -4.1538    1.0000 </r>
       <r>   -2.9055    1.0000 </r>
       <r>   -1.9858    1.0000 </r>
       <r>   -1.1248    1.0000 </r>
       <r>    0.5182    1.0000 </r>
       <r>    1.3127    1.0000 </r>
       <r>    1.4634    1.0000 </r>
       <r>    1.8756    1.0000 </r>
       <r>    1.8819    1.0000 </r>
       <r>    2.8316    1.0000 </r>
       <r>    2.9655    1.0000 </r>
       <r>    3.9177    1.0000 </r>
       <r>    4.7051    0.7361 </r>
       <r>    5.7597    0.0000 </r>
       <r>    6.2009    0.0000 </r>
       <r>    6.7924    0.0000 </r>
       <r>    7.2042    0.0000 </r>
       <r>    7.4739    0.0000 </r>
       <r>    7.6211    0.0000 </r>
       <r>    9.0258    0.0000 </r>
       <r>    9.0757    0.0000 </r>
       <r>    9.2852    0.0000 </r>
       <r>    9.4260    0.0000 </r>
       <r>   10.3487    0.0000 </r>
       <r>   11.4800    0.0000 </r>
       <r>   11.5277    0.0000 </r>
       <r>   11.9433    0.0000 </r>
       <r>   12.4240    0.0000 </r>
       <r>   12.6581    0.0000 </r>
       <r>   13.2137    0.0000 </r>
       <r>   13.3282    0.0000 </r>
       <r>   13.9729    0.0000 </r>
       <r>   14.1254    0.0000 </r>
       <r>   14.7581    0.0000 </r>
       <r>   15.0324    0.0000 </r>
       <r>   15.5853    0.0000 </r>
       <r>   15.7754    0.0000 </r>
       <r>   16.0844    0.0000 </r>
       <r>   16.3386    0.0000 </r>
       <r>   16.7038    0.0000 </r>
       <r>   17.4629    0.0000 </r>
       <r>   18.1572    0.0000 </r>
       <r>   18.5863    0.0000 </r>
       <r>   18.6062    0.0000 </r>
       <r>   18.9966    0.0000 </r>
       <r>   19.2269    0.0000 </r>
       <r>   19.4980    0.0000 </r>
       <r>   19.5706    0.0000 </r>
       <r>   19.6969    0.0000 </r>
       <r>   19.9206    0.0000 </r>
       <r>   20.3808    0.0000 </r>
       <r>   20.6454    0.0000 </r>
       <r>   21.1122    0.0000 </r>
       <r>   21.2480    0.0000 </r>
       <r>   21.3809    0.0000 </r>
       <r>   22.2752    0.0000 </r>
       <r>   22.3486    0.0000 </r>
       <r>   22.6424    0.0000 </r>
       <r>   22.9584    0.0000 </r>
       <r>   23.0474    0.0000 </r>
       <r>   23.2438    0.0000 </r>
       <r>   23.8300    0.0000 </r>
       <r>   24.4455    0.0000 </r>
       <r>   24.6811    0.0000 </r>
       <r>   24.8722    0.0000 </r>
       <r>   25.0690    0.0000 </r>
       <r>   25.9754    0.0000 </r>
       <r>   26.0810    0.0000 </r>
       <r>   26.2503    0.0000 </r>
       <r>   26.3268    0.0000 </r>
       <r>   26.4210    0.0000 </r>
       <r>   26.9688    0.0000 </r>
       <r>   27.0184    0.0000 </r>
       <r>   27.1907    0.0000 </r>
       <r>   27.3865    0.0000 </r>
       <r>   27.7740    0.0000 </r>
       <r>   28.2980    0.0000 </r>
       <r>   28.5511    0.0000 </r>
       <r>   28.6460    0.0000 </r>
       <r>   29.0399    0.0000 </r>
       <r>   29.2984    0.0000 </r>
       <r>   29.9217    0.0000 </r>
       <r>   30.2766    0.0000 </r>
       <r>   30.4929    0.0000 </r>
       <r>   30.8665    0.0000 </r>
       <r>   31.0544    0.0000 </r>
       <r>   31.9306    0.0000 </r>
       <r>   32.1754    0.0000 </r>
       <r>   32.5531    0.0000 </r>
       <r>   32.7279    0.0000 </r>
       <r>   32.9876    0.0000 </r>
       <r>   33.2888    0.0000 </r>
       <r>   33.3422    0.0000 </r>
       <r>   33.5774    0.0000 </r>
       <r>   34.2104    0.0000 </r>
       <r>   34.5586    0.0000 </r>
       <r>   34.6851    0.0000 </r>
       <r>   35.0604    0.0000 </r>
       <r>   35.5416    0.0000 </r>
       <r>   35.5988    0.0000 </r>
       <r>   36.0861    0.0000 </r>
       <r>   36.3011    0.0000 </r>
       <r>   36.9430    0.0000 </r>
       <r>   37.1069    0.0000 </r>
       <r>   37.3271    0.0000 </r>
       <r>   37.6069    0.0000 </r>
       <r>   37.7306    0.0000 </r>
       <r>   37.7589    0.0000 </r>
       <r>   37.9041    0.0000 </r>
       <r>   38.3260    0.0000 </r>
       <r>   38.5205    0.0000 </r>
       <r>   38.7805    0.0000 </r>
       <r>   38.8933    0.0000 </r>
       <r>   39.2077    0.0000 </r>
       <r>   39.4610    0.0000 </r>
       <r>   39.5456    0.0000 </r>
       <r>   40.0641    0.0000 </r>
       <r>   40.1266    0.0000 </r>
       <r>   40.4413    0.0000 </r>
       <r>   40.8926    0.0000 </r>
       <r>   41.4792    0.0000 </r>
       <r>   41.9726    0.0000 </r>
       <r>   42.0372    0.0000 </r>
       <r>   42.2774    0.0000 </r>
       <r>   42.4220    0.0000 </r>
       <r>   42.9965    0.0000 </r>
       <r>   43.0413    0.0000 </r>
       <r>   43.2973    0.0000 </r>
       <r>   43.3728    0.0000 </r>
       <r>   43.4427    0.0000 </r>
       <r>   44.1263    0.0000 </r>
       <r>   44.3098    0.0000 </r>
       <r>   44.5955    0.0000 </r>
       <r>   44.7594    0.0000 </r>
       <r>   44.8301    0.0000 </r>
       <r>   44.9545    0.0000 </r>
       <r>   45.3148    0.0000 </r>
       <r>   45.7495    0.0000 </r>
       <r>   45.8027    0.0000 </r>
       <r>   46.1051    0.0000 </r>
       <r>   46.2845    0.0000 </r>
       <r>   46.5007    0.0000 </r>
      </set>
      <set comment="kpoint 5">
       <r>   -5.9214    1.0000 </r>
       <r>   -5.3771    1.0000 </r>
       <r>   -4.1564    1.0000 </r>
       <r>   -3.0605    1.0000 </r>
       <r>   -1.7105    1.0000 </r>
       <r>   -0.6683    1.0000 </r>
       <r>    0.4061    1.0000 </r>
       <r>    0.6116    1.0000 </r>
       <r>    1.4165    1.0000 </r>
       <r>    1.8053    1.0000 </r>
       <r>    2.4276    1.0000 </r>
       <r>    2.6102    1.0000 </r>
       <r>    3.0099    1.0000 </r>
       <r>    3.3942    1.0000 </r>
       <r>    4.8956    0.0000 </r>
       <r>    4.9062    0.0000 </r>
       <r>    7.3860    0.0000 </r>
       <r>    7.6135    0.0000 </r>
       <r>    7.7662    0.0000 </r>
       <r>    7.8914    0.0000 </r>
       <r>    8.9935    0.0000 </r>
       <r>    9.3565    0.0000 </r>
       <r>    9.3886    0.0000 </r>
       <r>    9.7589    0.0000 </r>
       <r>    9.8278    0.0000 </r>
       <r>    9.9019    0.0000 </r>
       <r>   10.3070    0.0000 </r>
       <r>   10.6358    0.0000 </r>
       <r>   11.3920    0.0000 </r>
       <r>   12.0012    0.0000 </r>
       <r>   12.3589    0.0000 </r>
       <r>   12.4746    0.0000 </r>
       <r>   12.8662    0.0000 </r>
       <r>   12.9835    0.0000 </r>
       <r>   13.6358    0.0000 </r>
       <r>   14.1575    0.0000 </r>
       <r>   14.9801    0.0000 </r>
       <r>   15.2815    0.0000 </r>
       <r>   16.0180    0.0000 </r>
       <r>   16.2416    0.0000 </r>
       <r>   16.7843    0.0000 </r>
       <r>   16.8279    0.0000 </r>
       <r>   17.0798    0.0000 </r>
       <r>   17.5793    0.0000 </r>
       <r>   18.7043    0.0000 </r>
       <r>   18.9788    0.0000 </r>
       <r>   19.0365    0.0000 </r>
       <r>   19.2524    0.0000 </r>
       <r>   19.6272    0.0000 </r>
       <r>   19.6505    0.0000 </r>
       <r>   19.7754    0.0000 </r>
       <r>   20.2070    0.0000 </r>
       <r>   20.2778    0.0000 </r>
       <r>   20.3172    0.0000 </r>
       <r>   21.0290    0.0000 </r>
       <r>   21.3416    0.0000 </r>
       <r>   21.9463    0.0000 </r>
       <r>   21.9853    0.0000 </r>
       <r>   22.2037    0.0000 </r>
       <r>   22.9376    0.0000 </r>
       <r>   23.1799    0.0000 </r>
       <r>   23.7433    0.0000 </r>
       <r>   23.8524    0.0000 </r>
       <r>   23.9788    0.0000 </r>
       <r>   24.4594    0.0000 </r>
       <r>   24.4700    0.0000 </r>
       <r>   25.3149    0.0000 </r>
       <r>   25.4208    0.0000 </r>
       <r>   25.5409    0.0000 </r>
       <r>   25.9610    0.0000 </r>
       <r>   26.2196    0.0000 </r>
       <r>   26.4856    0.0000 </r>
       <r>   26.9410    0.0000 </r>
       <r>   27.1895    0.0000 </r>
       <r>   27.3648    0.0000 </r>
       <r>   27.3860    0.0000 </r>
       <r>   27.8443    0.0000 </r>
       <r>   28.2508    0.0000 </r>
       <r>   28.5039    0.0000 </r>
       <r>   28.9731    0.0000 </r>
       <r>   29.1066    0.0000 </r>
       <r>   29.5515    0.0000 </r>
       <r>   29.5880    0.0000 </r>
       <r>   30.0370    0.0000 </r>
       <r>   30.7652    0.0000 </r>
       <r>   30.8162    0.0000 </r>
       <r>   31.4167    0.0000 </r>
       <r>   31.8038    0.0000 </r>
       <r>   32.0498    0.0000 </r>
       <r>   32.1446    0.0000 </r>
       <r>   32.4327    0.0000 </r>
       <r>   32.6884    0.0000 </r>
       <r>   32.6963    0.0000 </r>
       <r>   33.3372    0.0000 </r>
       <r>   33.3568    0.0000 </r>
       <r>   33.7308    0.0000 </r>
       <r>   33.8339    0.0000 </r>
       <r>   34.1526    0.0000 </r>
       <r>   34.4882    0.0000 </r>
       <r>   34.6779    0.0000 </r>
       <r>   35.0194    0.0000 </r>
       <r>   35.0621    0.0000 </r>
       <r>   35.5846    0.0000 </r>
       <r>   36.1779    0.0000 </r>
       <r>   36.1821    0.0000 </r>
       <r>   36.1966    0.0000 </r>
       <r>   36.4472    0.0000 </r>
       <r>   36.9505    0.0000 </r>
       <r>   37.1743    0.0000 </r>
       <r>   37.2909    0.0000 </r>
       <r>   37.3815    0.0000 </r>
       <r>   38.0937    0.0000 </r>
       <r>   38.1226    0.0000 </r>
       <r>   38.3175    0.0000 </r>
       <r>   38.7149    0.0000 </r>
       <r>   38.9777    0.0000 </r>
       <r>   39.2567    0.0000 </r>
       <r>   39.4577    0.0000 </r>
       <r>   40.2454    0.0000 </r>
       <r>   40.4324    0.0000 </r>
       <r>   40.6491    0.0000 </r>
       <r>   40.7899    0.0000 </r>
       <r>   41.2282    0.0000 </r>
       <r>   41.4606    0.0000 </r>
       <r>   41.7809    0.0000 </r>
       <r>   41.9766    0.0000 </r>
       <r>   42.1698    0.0000 </r>
       <r>   42.4237    0.0000 </r>
       <r>   42.6194    0.0000 </r>
       <r>   42.9217    0.0000 </r>
       <r>   43.2149    0.0000 </r>
       <r>   43.5908    0.0000 </r>
       <r>   43.8979    0.0000 </r>
       <r>   44.1213    0.0000 </r>
       <r>   44.2626    0.0000 </r>
       <r>   44.6855    0.0000 </r>
       <r>   44.9482    0.0000 </r>
       <r>   45.2095    0.0000 </r>
       <r>   45.3429    0.0000 </r>
       <r>   45.3892    0.0000 </r>
       <r>   45.7822    0.0000 </r>
       <r>   45.9311    0.0000 </r>
       <r>   46.2299    0.0000 </r>
       <r>   46.6510    0.0000 </r>
      </set>
      <set comment="kpoint 6">
       <r>   -5.2501    1.0000 </r>
       <r>   -5.1877    1.0000 </r>
       <r>   -5.1877    1.0000 </r>
       <r>   -3.4312    1.0000 </r>
       <r>   -0.6176    1.0000 </r>
       <r>   -0.6176    1.0000 </r>
       <r>   -0.5181    1.0000 </r>
       <r>    0.7507    1.0000 </r>
       <r>    1.2271    1.0000 </r>
       <r>    1.2271    1.0000 </r>
       <r>    2.5935    1.0000 </r>
       <r>    2.9766    1.0000 </r>
       <r>    3.3002    1.0000 </r>
       <r>    3.3246    1.0000 </r>
       <r>    5.3848    0.0000 </r>
       <r>    5.3848    0.0000 </r>
       <r>    7.0326    0.0000 </r>
       <r>    7.0326    0.0000 </r>
       <r>    8.4149    0.0000 </r>
       <r>    8.4262    0.0000 </r>
       <r>    9.3694    0.0000 </r>
       <r>    9.5137    0.0000 </r>
       <r>    9.8250    0.0000 </r>
       <r>    9.8250    0.0000 </r>
       <r>   10.0198    0.0000 </r>
       <r>   10.2310    0.0000 </r>
       <r>   10.2310    0.0000 </r>
       <r>   10.6333    0.0000 </r>
       <r>   11.0276    0.0000 </r>
       <r>   11.8217    0.0000 </r>
       <r>   11.8217    0.0000 </r>
       <r>   12.4962    0.0000 </r>
       <r>   12.6255    0.0000 </r>
       <r>   12.6255    0.0000 </r>
       <r>   12.6781    0.0000 </r>
       <r>   12.9477    0.0000 </r>
       <r>   14.5509    0.0000 </r>
       <r>   15.4463    0.0000 </r>
       <r>   15.4463    0.0000 </r>
       <r>   15.6313    0.0000 </r>
       <r>   17.4449    0.0000 </r>
       <r>   17.5288    0.0000 </r>
       <r>   17.5288    0.0000 </r>
       <r>   18.1876    0.0000 </r>
       <r>   18.1876    0.0000 </r>
       <r>   18.2342    0.0000 </r>
       <r>   18.4495    0.0000 </r>
       <r>   18.8283    0.0000 </r>
       <r>   19.0807    0.0000 </r>
       <r>   19.0807    0.0000 </r>
       <r>   19.0845    0.0000 </r>
       <r>   20.5055    0.0000 </r>
       <r>   21.3438    0.0000 </r>
       <r>   21.7333    0.0000 </r>
       <r>   21.7333    0.0000 </r>
       <r>   21.8151    0.0000 </r>
       <r>   21.8484    0.0000 </r>
       <r>   21.8484    0.0000 </r>
       <r>   21.9249    0.0000 </r>
       <r>   22.5011    0.0000 </r>
       <r>   23.0413    0.0000 </r>
       <r>   23.3165    0.0000 </r>
       <r>   23.5815    0.0000 </r>
       <r>   23.5815    0.0000 </r>
       <r>   24.3856    0.0000 </r>
       <r>   25.2087    0.0000 </r>
       <r>   26.3329    0.0000 </r>
       <r>   26.3329    0.0000 </r>
       <r>   26.5376    0.0000 </r>
       <r>   26.5376    0.0000 </r>
       <r>   26.7677    0.0000 </r>
       <r>   26.8365    0.0000 </r>
       <r>   26.8365    0.0000 </r>
       <r>   27.4697    0.0000 </r>
       <r>   27.5869    0.0000 </r>
       <r>   27.6712    0.0000 </r>
       <r>   28.8150    0.0000 </r>
       <r>   28.9313    0.0000 </r>
       <r>   28.9313    0.0000 </r>
       <r>   29.4984    0.0000 </r>
       <r>   29.6791    0.0000 </r>
       <r>   29.7537    0.0000 </r>
       <r>   29.7537    0.0000 </r>
       <r>   31.0526    0.0000 </r>
       <r>   31.1424    0.0000 </r>
       <r>   31.2292    0.0000 </r>
       <r>   31.2762    0.0000 </r>
       <r>   31.2762    0.0000 </r>
       <r>   31.3160    0.0000 </r>
       <r>   31.6303    0.0000 </r>
       <r>   31.9802    0.0000 </r>
       <r>   31.9802    0.0000 </r>
       <r>   32.6722    0.0000 </r>
       <r>   32.6722    0.0000 </r>
       <r>   32.8058    0.0000 </r>
       <r>   32.8058    0.0000 </r>
       <r>   32.8190    0.0000 </r>
       <r>   33.3979    0.0000 </r>
       <r>   33.7853    0.0000 </r>
       <r>   34.0970    0.0000 </r>
       <r>   34.1344    0.0000 </r>
       <r>   34.5247    0.0000 </r>
       <r>   35.4126    0.0000 </r>
       <r>   35.5380    0.0000 </r>
       <r>   35.5380    0.0000 </r>
       <r>   36.2246    0.0000 </r>
       <r>   36.6036    0.0000 </r>
       <r>   36.6036    0.0000 </r>
       <r>   37.1358    0.0000 </r>
       <r>   37.1358    0.0000 </r>
       <r>   37.6366    0.0000 </r>
       <r>   38.3598    0.0000 </r>
       <r>   39.0092    0.0000 </r>
       <r>   39.0092    0.0000 </r>
       <r>   39.0620    0.0000 </r>
       <r>   39.8156    0.0000 </r>
       <r>   40.3479    0.0000 </r>
       <r>   40.7467    0.0000 </r>
       <r>   40.8680    0.0000 </r>
       <r>   40.8680    0.0000 </r>
       <r>   40.9123    0.0000 </r>
       <r>   41.4933    0.0000 </r>
       <r>   41.8080    0.0000 </r>
       <r>   41.8923    0.0000 </r>
       <r>   41.8923    0.0000 </r>
       <r>   42.2291    0.0000 </r>
       <r>   42.5083    0.0000 </r>
       <r>   42.6839    0.0000 </r>
       <r>   42.7414    0.0000 </r>
       <r>   42.7414    0.0000 </r>
       <r>   42.7849    0.0000 </r>
       <r>   42.7849    0.0000 </r>
       <r>   42.9142    0.0000 </r>
       <r>   43.0306    0.0000 </r>
       <r>   43.0306    0.0000 </r>
       <r>   43.3737    0.0000 </r>
       <r>   43.6244    0.0000 </r>
       <r>   43.8436    0.0000 </r>
       <r>   43.8436    0.0000 </r>
       <r>   44.2780    0.0000 </r>
       <r>   44.2780    0.0000 </r>
       <r>   44.5438    0.0000 </r>
       <r>   44.8486    0.0000 </r>
       <r>   45.1333    0.0000 </r>
      </set>
      <set comment="kpoint 7">
       <r>   -6.1916    1.0000 </r>
       <r>   -4.5328    1.0000 </r>
       <r>   -4.5328    1.0000 </r>
       <r>   -3.2268    1.0000 </r>
       <r>   -1.4709    1.0000 </r>
       <r>   -1.4709    1.0000 </r>
       <r>    0.1324    1.0000 </r>
       <r>    1.2000    1.0000 </r>
       <r>    1.2000    1.0000 </r>
       <r>    2.2000    1.0000 </r>
       <r>    2.3479    1.0000 </r>
       <r>    3.1272    1.0000 </r>
       <r>    3.1272    1.0000 </r>
       <r>    3.5427    1.0000 </r>
       <r>    5.5007    0.0000 </r>
       <r>    5.5007    0.0000 </r>
       <r>    6.4319    0.0000 </r>
       <r>    6.4567    0.0000 </r>
       <r>    6.4567    0.0000 </r>
       <r>    8.5234    0.0000 </r>
       <r>    8.7324    0.0000 </r>
       <r>    8.7324    0.0000 </r>
       <r>    9.7054    0.0000 </r>
       <r>    9.7054    0.0000 </r>
       <r>    9.9804    0.0000 </r>
       <r>   10.3585    0.0000 </r>
       <r>   10.3585    0.0000 </r>
       <r>   10.4511    0.0000 </r>
       <r>   11.7735    0.0000 </r>
       <r>   11.7735    0.0000 </r>
       <r>   12.4612    0.0000 </r>
       <r>   12.9205    0.0000 </r>
       <r>   12.9205    0.0000 </r>
       <r>   13.9203    0.0000 </r>
       <r>   14.0335    0.0000 </r>
       <r>   15.2494    0.0000 </r>
       <r>   15.3421    0.0000 </r>
       <r>   15.3421    0.0000 </r>
       <r>   15.7884    0.0000 </r>
       <r>   16.0107    0.0000 </r>
       <r>   16.0107    0.0000 </r>
       <r>   16.9348    0.0000 </r>
       <r>   17.3137    0.0000 </r>
       <r>   17.4946    0.0000 </r>
       <r>   17.4946    0.0000 </r>
       <r>   17.7788    0.0000 </r>
       <r>   18.4824    0.0000 </r>
       <r>   18.4824    0.0000 </r>
       <r>   19.4290    0.0000 </r>
       <r>   19.4290    0.0000 </r>
       <r>   19.4533    0.0000 </r>
       <r>   20.2059    0.0000 </r>
       <r>   20.2059    0.0000 </r>
       <r>   22.0312    0.0000 </r>
       <r>   22.0312    0.0000 </r>
       <r>   22.2919    0.0000 </r>
       <r>   22.3555    0.0000 </r>
       <r>   22.8430    0.0000 </r>
       <r>   22.8430    0.0000 </r>
       <r>   23.1760    0.0000 </r>
       <r>   23.1864    0.0000 </r>
       <r>   23.1864    0.0000 </r>
       <r>   24.0173    0.0000 </r>
       <r>   24.0173    0.0000 </r>
       <r>   24.0441    0.0000 </r>
       <r>   24.3957    0.0000 </r>
       <r>   24.6294    0.0000 </r>
       <r>   24.6294    0.0000 </r>
       <r>   24.7829    0.0000 </r>
       <r>   25.8606    0.0000 </r>
       <r>   25.8606    0.0000 </r>
       <r>   26.2907    0.0000 </r>
       <r>   26.5765    0.0000 </r>
       <r>   26.6653    0.0000 </r>
       <r>   26.6653    0.0000 </r>
       <r>   27.7510    0.0000 </r>
       <r>   27.7510    0.0000 </r>
       <r>   28.7919    0.0000 </r>
       <r>   28.9413    0.0000 </r>
       <r>   28.9413    0.0000 </r>
       <r>   29.6663    0.0000 </r>
       <r>   29.8528    0.0000 </r>
       <r>   29.8528    0.0000 </r>
       <r>   29.9840    0.0000 </r>
       <r>   30.3827    0.0000 </r>
       <r>   30.3827    0.0000 </r>
       <r>   31.3269    0.0000 </r>
       <r>   32.2694    0.0000 </r>
       <r>   32.2694    0.0000 </r>
       <r>   32.5191    0.0000 </r>
       <r>   32.9543    0.0000 </r>
       <r>   32.9543    0.0000 </r>
       <r>   33.3495    0.0000 </r>
       <r>   33.5813    0.0000 </r>
       <r>   33.5813    0.0000 </r>
       <r>   33.6223    0.0000 </r>
       <r>   34.1350    0.0000 </r>
       <r>   34.1686    0.0000 </r>
       <r>   34.1686    0.0000 </r>
       <r>   34.6184    0.0000 </r>
       <r>   34.9064    0.0000 </r>
       <r>   34.9064    0.0000 </r>
       <r>   35.6308    0.0000 </r>
       <r>   35.8341    0.0000 </r>
       <r>   35.8341    0.0000 </r>
       <r>   36.1495    0.0000 </r>
       <r>   36.4217    0.0000 </r>
       <r>   36.4217    0.0000 </r>
       <r>   37.0274    0.0000 </r>
       <r>   37.3902    0.0000 </r>
       <r>   37.3902    0.0000 </r>
       <r>   37.7940    0.0000 </r>
       <r>   37.7940    0.0000 </r>
       <r>   38.9110    0.0000 </r>
       <r>   39.2337    0.0000 </r>
       <r>   39.2337    0.0000 </r>
       <r>   39.2915    0.0000 </r>
       <r>   39.8349    0.0000 </r>
       <r>   39.8349    0.0000 </r>
       <r>   40.5274    0.0000 </r>
       <r>   40.5274    0.0000 </r>
       <r>   41.0861    0.0000 </r>
       <r>   41.1203    0.0000 </r>
       <r>   41.1203    0.0000 </r>
       <r>   41.6403    0.0000 </r>
       <r>   41.8995    0.0000 </r>
       <r>   41.8995    0.0000 </r>
       <r>   42.0753    0.0000 </r>
       <r>   42.8227    0.0000 </r>
       <r>   42.8227    0.0000 </r>
       <r>   42.9095    0.0000 </r>
       <r>   43.3126    0.0000 </r>
       <r>   43.3126    0.0000 </r>
       <r>   43.3198    0.0000 </r>
       <r>   43.7688    0.0000 </r>
       <r>   44.6885    0.0000 </r>
       <r>   44.7829    0.0000 </r>
       <r>   44.7829    0.0000 </r>
       <r>   45.2779    0.0000 </r>
       <r>   45.6501    0.0000 </r>
       <r>   45.6501    0.0000 </r>
       <r>   46.7227    0.0000 </r>
       <r>   46.7232    0.0000 </r>
       <r>   46.8269    0.0000 </r>
      </set>
      <set comment="kpoint 8">
       <r>   -5.7001    1.0000 </r>
       <r>   -5.2449    1.0000 </r>
       <r>   -4.4110    1.0000 </r>
       <r>   -3.2163    1.0000 </r>
       <r>   -1.8116    1.0000 </r>
       <r>   -1.1909    1.0000 </r>
       <r>   -0.3943    1.0000 </r>
       <r>    1.2142    1.0000 </r>
       <r>    1.7509    1.0000 </r>
       <r>    2.1361    1.0000 </r>
       <r>    2.5387    1.0000 </r>
       <r>    2.6666    1.0000 </r>
       <r>    3.0711    1.0000 </r>
       <r>    4.3794    1.0000 </r>
       <r>    4.8996    0.0000 </r>
       <r>    5.2841    0.0000 </r>
       <r>    7.0089    0.0000 </r>
       <r>    7.6059    0.0000 </r>
       <r>    7.9056    0.0000 </r>
       <r>    7.9773    0.0000 </r>
       <r>    7.9839    0.0000 </r>
       <r>    8.5120    0.0000 </r>
       <r>    9.5626    0.0000 </r>
       <r>    9.5753    0.0000 </r>
       <r>   10.0257    0.0000 </r>
       <r>   10.1910    0.0000 </r>
       <r>   10.2329    0.0000 </r>
       <r>   10.7937    0.0000 </r>
       <r>   11.6459    0.0000 </r>
       <r>   11.9176    0.0000 </r>
       <r>   12.4139    0.0000 </r>
       <r>   12.7791    0.0000 </r>
       <r>   12.8067    0.0000 </r>
       <r>   13.1827    0.0000 </r>
       <r>   14.2957    0.0000 </r>
       <r>   14.6003    0.0000 </r>
       <r>   14.8583    0.0000 </r>
       <r>   15.0395    0.0000 </r>
       <r>   15.4670    0.0000 </r>
       <r>   15.4734    0.0000 </r>
       <r>   16.0093    0.0000 </r>
       <r>   16.5331    0.0000 </r>
       <r>   16.8846    0.0000 </r>
       <r>   16.8882    0.0000 </r>
       <r>   18.0538    0.0000 </r>
       <r>   18.5865    0.0000 </r>
       <r>   18.7507    0.0000 </r>
       <r>   18.7908    0.0000 </r>
       <r>   18.8736    0.0000 </r>
       <r>   19.0933    0.0000 </r>
       <r>   20.2116    0.0000 </r>
       <r>   20.5579    0.0000 </r>
       <r>   20.6161    0.0000 </r>
       <r>   21.0827    0.0000 </r>
       <r>   21.2362    0.0000 </r>
       <r>   21.9532    0.0000 </r>
       <r>   22.2126    0.0000 </r>
       <r>   22.4193    0.0000 </r>
       <r>   23.0157    0.0000 </r>
       <r>   23.1270    0.0000 </r>
       <r>   23.2573    0.0000 </r>
       <r>   23.5962    0.0000 </r>
       <r>   23.9895    0.0000 </r>
       <r>   24.1040    0.0000 </r>
       <r>   24.1041    0.0000 </r>
       <r>   24.7052    0.0000 </r>
       <r>   24.9112    0.0000 </r>
       <r>   25.6538    0.0000 </r>
       <r>   25.7219    0.0000 </r>
       <r>   26.2914    0.0000 </r>
       <r>   26.4692    0.0000 </r>
       <r>   26.6733    0.0000 </r>
       <r>   27.0373    0.0000 </r>
       <r>   27.4975    0.0000 </r>
       <r>   28.0055    0.0000 </r>
       <r>   28.0975    0.0000 </r>
       <r>   28.2758    0.0000 </r>
       <r>   28.7980    0.0000 </r>
       <r>   29.2940    0.0000 </r>
       <r>   29.3113    0.0000 </r>
       <r>   29.5207    0.0000 </r>
       <r>   30.0138    0.0000 </r>
       <r>   30.0705    0.0000 </r>
       <r>   30.2260    0.0000 </r>
       <r>   30.4499    0.0000 </r>
       <r>   30.8665    0.0000 </r>
       <r>   30.9670    0.0000 </r>
       <r>   31.1829    0.0000 </r>
       <r>   31.7829    0.0000 </r>
       <r>   31.8580    0.0000 </r>
       <r>   32.1152    0.0000 </r>
       <r>   32.2916    0.0000 </r>
       <r>   32.7304    0.0000 </r>
       <r>   33.4145    0.0000 </r>
       <r>   33.9751    0.0000 </r>
       <r>   34.1715    0.0000 </r>
       <r>   34.4307    0.0000 </r>
       <r>   34.4373    0.0000 </r>
       <r>   34.8033    0.0000 </r>
       <r>   34.8228    0.0000 </r>
       <r>   35.1185    0.0000 </r>
       <r>   35.2931    0.0000 </r>
       <r>   35.5970    0.0000 </r>
       <r>   35.7798    0.0000 </r>
       <r>   35.7834    0.0000 </r>
       <r>   36.1446    0.0000 </r>
       <r>   36.2188    0.0000 </r>
       <r>   36.5956    0.0000 </r>
       <r>   36.7111    0.0000 </r>
       <r>   37.0355    0.0000 </r>
       <r>   37.0901    0.0000 </r>
       <r>   37.1735    0.0000 </r>
       <r>   37.3665    0.0000 </r>
       <r>   37.6823    0.0000 </r>
       <r>   37.9014    0.0000 </r>
       <r>   38.2428    0.0000 </r>
       <r>   38.7759    0.0000 </r>
       <r>   39.3490    0.0000 </r>
       <r>   39.6423    0.0000 </r>
       <r>   39.7375    0.0000 </r>
       <r>   39.8910    0.0000 </r>
       <r>   40.4923    0.0000 </r>
       <r>   40.8927    0.0000 </r>
       <r>   41.1285    0.0000 </r>
       <r>   41.2428    0.0000 </r>
       <r>   41.6591    0.0000 </r>
       <r>   41.6673    0.0000 </r>
       <r>   42.2109    0.0000 </r>
       <r>   42.5587    0.0000 </r>
       <r>   42.6274    0.0000 </r>
       <r>   43.1768    0.0000 </r>
       <r>   43.2986    0.0000 </r>
       <r>   43.4980    0.0000 </r>
       <r>   43.6059    0.0000 </r>
       <r>   44.1495    0.0000 </r>
       <r>   44.1791    0.0000 </r>
       <r>   44.7865    0.0000 </r>
       <r>   45.0417    0.0000 </r>
       <r>   45.2225    0.0000 </r>
       <r>   45.4381    0.0000 </r>
       <r>   45.8907    0.0000 </r>
       <r>   46.2878    0.0000 </r>
       <r>   47.0646    0.0000 </r>
       <r>   47.1125    0.0000 </r>
      </set>
      <set comment="kpoint 9">
       <r>   -5.1178    1.0000 </r>
       <r>   -5.0797    1.0000 </r>
       <r>   -5.0797    1.0000 </r>
       <r>   -3.4026    1.0000 </r>
       <r>   -1.4480    1.0000 </r>
       <r>   -1.4082    1.0000 </r>
       <r>   -1.4082    1.0000 </r>
       <r>    1.2060    1.0000 </r>
       <r>    2.2217    1.0000 </r>
       <r>    2.3431    1.0000 </r>
       <r>    2.3431    1.0000 </r>
       <r>    3.3151    1.0000 </r>
       <r>    3.4146    1.0000 </r>
       <r>    4.6953    0.8183 </r>
       <r>    5.5386    0.0000 </r>
       <r>    5.5386    0.0000 </r>
       <r>    6.9719    0.0000 </r>
       <r>    6.9719    0.0000 </r>
       <r>    7.6090    0.0000 </r>
       <r>    8.2906    0.0000 </r>
       <r>    8.2906    0.0000 </r>
       <r>    8.4238    0.0000 </r>
       <r>    8.5366    0.0000 </r>
       <r>    9.0184    0.0000 </r>
       <r>    9.2338    0.0000 </r>
       <r>   10.2759    0.0000 </r>
       <r>   10.2759    0.0000 </r>
       <r>   10.7533    0.0000 </r>
       <r>   12.5363    0.0000 </r>
       <r>   12.6668    0.0000 </r>
       <r>   12.6817    0.0000 </r>
       <r>   12.6817    0.0000 </r>
       <r>   13.8068    0.0000 </r>
       <r>   13.8068    0.0000 </r>
       <r>   13.8904    0.0000 </r>
       <r>   13.9564    0.0000 </r>
       <r>   14.1944    0.0000 </r>
       <r>   14.8755    0.0000 </r>
       <r>   14.8755    0.0000 </r>
       <r>   15.3136    0.0000 </r>
       <r>   16.2052    0.0000 </r>
       <r>   16.2052    0.0000 </r>
       <r>   16.2481    0.0000 </r>
       <r>   16.8700    0.0000 </r>
       <r>   18.0864    0.0000 </r>
       <r>   18.0864    0.0000 </r>
       <r>   18.2111    0.0000 </r>
       <r>   18.8236    0.0000 </r>
       <r>   19.0311    0.0000 </r>
       <r>   19.2744    0.0000 </r>
       <r>   19.2744    0.0000 </r>
       <r>   19.4859    0.0000 </r>
       <r>   20.0349    0.0000 </r>
       <r>   21.5333    0.0000 </r>
       <r>   21.5333    0.0000 </r>
       <r>   21.9801    0.0000 </r>
       <r>   22.3331    0.0000 </r>
       <r>   22.5554    0.0000 </r>
       <r>   22.6391    0.0000 </r>
       <r>   22.6391    0.0000 </r>
       <r>   23.6792    0.0000 </r>
       <r>   23.6792    0.0000 </r>
       <r>   23.7486    0.0000 </r>
       <r>   25.0096    0.0000 </r>
       <r>   25.2574    0.0000 </r>
       <r>   25.9307    0.0000 </r>
       <r>   25.9307    0.0000 </r>
       <r>   26.1166    0.0000 </r>
       <r>   26.9866    0.0000 </r>
       <r>   26.9866    0.0000 </r>
       <r>   27.1772    0.0000 </r>
       <r>   27.1919    0.0000 </r>
       <r>   27.3327    0.0000 </r>
       <r>   27.4912    0.0000 </r>
       <r>   27.4912    0.0000 </r>
       <r>   28.5240    0.0000 </r>
       <r>   28.7749    0.0000 </r>
       <r>   28.7749    0.0000 </r>
       <r>   29.2512    0.0000 </r>
       <r>   29.2603    0.0000 </r>
       <r>   29.4722    0.0000 </r>
       <r>   30.3684    0.0000 </r>
       <r>   30.3684    0.0000 </r>
       <r>   30.4017    0.0000 </r>
       <r>   30.4702    0.0000 </r>
       <r>   30.7031    0.0000 </r>
       <r>   30.7031    0.0000 </r>
       <r>   31.5377    0.0000 </r>
       <r>   31.9915    0.0000 </r>
       <r>   31.9915    0.0000 </r>
       <r>   32.0972    0.0000 </r>
       <r>   32.4072    0.0000 </r>
       <r>   32.6827    0.0000 </r>
       <r>   33.0092    0.0000 </r>
       <r>   33.0092    0.0000 </r>
       <r>   33.6041    0.0000 </r>
       <r>   33.6041    0.0000 </r>
       <r>   33.7236    0.0000 </r>
       <r>   33.7661    0.0000 </r>
       <r>   34.1465    0.0000 </r>
       <r>   34.9835    0.0000 </r>
       <r>   35.2015    0.0000 </r>
       <r>   35.2015    0.0000 </r>
       <r>   35.3168    0.0000 </r>
       <r>   35.6612    0.0000 </r>
       <r>   36.1396    0.0000 </r>
       <r>   36.2581    0.0000 </r>
       <r>   36.2581    0.0000 </r>
       <r>   36.8892    0.0000 </r>
       <r>   37.5070    0.0000 </r>
       <r>   37.5070    0.0000 </r>
       <r>   37.5109    0.0000 </r>
       <r>   37.9212    0.0000 </r>
       <r>   38.1395    0.0000 </r>
       <r>   38.1395    0.0000 </r>
       <r>   38.2281    0.0000 </r>
       <r>   39.0482    0.0000 </r>
       <r>   39.2193    0.0000 </r>
       <r>   39.2193    0.0000 </r>
       <r>   39.2231    0.0000 </r>
       <r>   39.6247    0.0000 </r>
       <r>   39.8295    0.0000 </r>
       <r>   39.8295    0.0000 </r>
       <r>   40.7978    0.0000 </r>
       <r>   41.0528    0.0000 </r>
       <r>   41.7671    0.0000 </r>
       <r>   41.7671    0.0000 </r>
       <r>   41.8144    0.0000 </r>
       <r>   42.1588    0.0000 </r>
       <r>   42.8046    0.0000 </r>
       <r>   42.8904    0.0000 </r>
       <r>   43.0025    0.0000 </r>
       <r>   43.0025    0.0000 </r>
       <r>   43.5187    0.0000 </r>
       <r>   44.1456    0.0000 </r>
       <r>   44.1456    0.0000 </r>
       <r>   44.3343    0.0000 </r>
       <r>   44.9993    0.0000 </r>
       <r>   44.9993    0.0000 </r>
       <r>   45.5278    0.0000 </r>
       <r>   45.5675    0.0000 </r>
       <r>   45.7428    0.0000 </r>
       <r>   45.7429    0.0000 </r>
       <r>   46.1798    0.0000 </r>
      </set>
      <set comment="kpoint 10">
       <r>   -4.9538    1.0000 </r>
       <r>   -4.9538    1.0000 </r>
       <r>   -4.9538    1.0000 </r>
       <r>   -3.4170    1.0000 </r>
       <r>   -1.9407    1.0000 </r>
       <r>   -1.9407    1.0000 </r>
       <r>   -1.9407    1.0000 </r>
       <r>    0.6439    1.0000 </r>
       <r>    3.3460    1.0000 </r>
       <r>    3.3460    1.0000 </r>
       <r>    3.3460    1.0000 </r>
       <r>    3.4958    1.0000 </r>
       <r>    3.4958    1.0000 </r>
       <r>    5.9041    0.0000 </r>
       <r>    5.9041    0.0000 </r>
       <r>    5.9041    0.0000 </r>
       <r>    6.2860    0.0000 </r>
       <r>    6.2860    0.0000 </r>
       <r>    6.2860    0.0000 </r>
       <r>    7.8889    0.0000 </r>
       <r>    7.8889    0.0000 </r>
       <r>    7.8889    0.0000 </r>
       <r>    8.6387    0.0000 </r>
       <r>    8.6387    0.0000 </r>
       <r>    9.6786    0.0000 </r>
       <r>    9.7125    0.0000 </r>
       <r>    9.7125    0.0000 </r>
       <r>    9.7125    0.0000 </r>
       <r>   12.6040    0.0000 </r>
       <r>   12.8144    0.0000 </r>
       <r>   12.8144    0.0000 </r>
       <r>   12.8144    0.0000 </r>
       <r>   15.2462    0.0000 </r>
       <r>   15.2462    0.0000 </r>
       <r>   15.2462    0.0000 </r>
       <r>   15.3601    0.0000 </r>
       <r>   15.3601    0.0000 </r>
       <r>   15.6862    0.0000 </r>
       <r>   15.6862    0.0000 </r>
       <r>   15.6862    0.0000 </r>
       <r>   16.1347    0.0000 </r>
       <r>   16.1347    0.0000 </r>
       <r>   16.1347    0.0000 </r>
       <r>   16.6926    0.0000 </r>
       <r>   16.8158    0.0000 </r>
       <r>   16.8158    0.0000 </r>
       <r>   16.8158    0.0000 </r>
       <r>   17.4248    0.0000 </r>
       <r>   17.4248    0.0000 </r>
       <r>   17.4248    0.0000 </r>
       <r>   17.6788    0.0000 </r>
       <r>   17.6788    0.0000 </r>
       <r>   18.9074    0.0000 </r>
       <r>   21.1704    0.0000 </r>
       <r>   21.1704    0.0000 </r>
       <r>   21.1704    0.0000 </r>
       <r>   24.6228    0.0000 </r>
       <r>   24.6228    0.0000 </r>
       <r>   24.6228    0.0000 </r>
       <r>   24.6339    0.0000 </r>
       <r>   25.1081    0.0000 </r>
       <r>   25.1081    0.0000 </r>
       <r>   25.1081    0.0000 </r>
       <r>   25.6797    0.0000 </r>
       <r>   26.2135    0.0000 </r>
       <r>   26.2135    0.0000 </r>
       <r>   26.2135    0.0000 </r>
       <r>   26.4186    0.0000 </r>
       <r>   26.4186    0.0000 </r>
       <r>   26.4186    0.0000 </r>
       <r>   26.4428    0.0000 </r>
       <r>   26.4428    0.0000 </r>
       <r>   26.7243    0.0000 </r>
       <r>   26.7243    0.0000 </r>
       <r>   26.7243    0.0000 </r>
       <r>   28.3533    0.0000 </r>
       <r>   28.3533    0.0000 </r>
       <r>   28.3533    0.0000 </r>
       <r>   29.5517    0.0000 </r>
       <r>   29.5517    0.0000 </r>
       <r>   30.3327    0.0000 </r>
       <r>   31.1856    0.0000 </r>
       <r>   31.1856    0.0000 </r>
       <r>   31.1856    0.0000 </r>
       <r>   31.3160    0.0000 </r>
       <r>   31.3160    0.0000 </r>
       <r>   31.3160    0.0000 </r>
       <r>   31.8794    0.0000 </r>
       <r>   31.8794    0.0000 </r>
       <r>   32.0109    0.0000 </r>
       <r>   32.0109    0.0000 </r>
       <r>   32.0109    0.0000 </r>
       <r>   32.4338    0.0000 </r>
       <r>   32.4338    0.0000 </r>
       <r>   32.4338    0.0000 </r>
       <r>   32.9193    0.0000 </r>
       <r>   32.9193    0.0000 </r>
       <r>   32.9193    0.0000 </r>
       <r>   33.8595    0.0000 </r>
       <r>   33.8825    0.0000 </r>
       <r>   33.8825    0.0000 </r>
       <r>   35.5711    0.0000 </r>
       <r>   36.2459    0.0000 </r>
       <r>   36.2459    0.0000 </r>
       <r>   36.2459    0.0000 </r>
       <r>   36.3839    0.0000 </r>
       <r>   36.3839    0.0000 </r>
       <r>   36.3839    0.0000 </r>
       <r>   36.9589    0.0000 </r>
       <r>   36.9589    0.0000 </r>
       <r>   36.9589    0.0000 </r>
       <r>   37.5201    0.0000 </r>
       <r>   37.5201    0.0000 </r>
       <r>   37.9435    0.0000 </r>
       <r>   37.9435    0.0000 </r>
       <r>   37.9435    0.0000 </r>
       <r>   38.1839    0.0000 </r>
       <r>   38.3001    0.0000 </r>
       <r>   38.3001    0.0000 </r>
       <r>   38.3001    0.0000 </r>
       <r>   39.8036    0.0000 </r>
       <r>   39.8036    0.0000 </r>
       <r>   39.8036    0.0000 </r>
       <r>   40.6467    0.0000 </r>
       <r>   40.6467    0.0000 </r>
       <r>   40.8724    0.0000 </r>
       <r>   41.4988    0.0000 </r>
       <r>   41.7376    0.0000 </r>
       <r>   41.7376    0.0000 </r>
       <r>   41.7376    0.0000 </r>
       <r>   41.8530    0.0000 </r>
       <r>   41.8530    0.0000 </r>
       <r>   41.8530    0.0000 </r>
       <r>   42.4976    0.0000 </r>
       <r>   42.4976    0.0000 </r>
       <r>   42.4976    0.0000 </r>
       <r>   45.4910    0.0000 </r>
       <r>   45.4910    0.0000 </r>
       <r>   45.7134    0.0000 </r>
       <r>   45.7134    0.0000 </r>
       <r>   45.7134    0.0000 </r>
       <r>   47.1549    0.0000 </r>
       <r>   47.1551    0.0000 </r>
       <r>   47.1553    0.0000 </r>
      </set>
     </set>
     <set comment="spin 2">
      <set comment="kpoint 1">
       <r>   -6.9108    1.0000 </r>
       <r>   -3.2364    1.0000 </r>
       <r>   -3.2364    1.0000 </r>
       <r>   -2.8787    1.0000 </r>
       <r>   -2.8787    1.0000 </r>
       <r>   -2.8787    1.0000 </r>
       <r>    1.1837    1.0000 </r>
       <r>    1.7046    1.0000 </r>
       <r>    1.7046    1.0000 </r>
       <r>    1.7046    1.0000 </r>
       <r>    2.9572    1.0000 </r>
       <r>    2.9572    1.0000 </r>
       <r>    2.9572    1.0000 </r>
       <r>    5.5599    0.0000 </r>
       <r>    5.5599    0.0000 </r>
       <r>    5.5801    0.0000 </r>
       <r>    5.5801    0.0000 </r>
       <r>    5.5801    0.0000 </r>
       <r>    6.1698    0.0000 </r>
       <r>    6.1698    0.0000 </r>
       <r>    6.1698    0.0000 </r>
       <r>    6.3243    0.0000 </r>
       <r>    8.5014    0.0000 </r>
       <r>    8.5014    0.0000 </r>
       <r>    8.5014    0.0000 </r>
       <r>   10.1086    0.0000 </r>
[...]
        <r>  0.0000  0.0070  0.0036  0.0020  0.0000  0.0000  0.0000  0.0000  0.0000 </r>
       </set>
       <set comment="band 117">
        <r>  0.0170  0.0002  0.0002  0.0002  0.0000  0.0000  0.0000  0.0000  0.0000 </r>
        <r>  0.0000  0.0000  0.0000  0.0000  0.0000  0.0000  0.0000  0.0000  0.0000 </r>
        <r>  0.0170  0.0002  0.0002  0.0002  0.0000  0.0000  0.0000  0.0000  0.0000 </r>
        <r>  0.0000  0.0000  0.0000  0.0000  0.0000  0.0000  0.0000  0.0000  0.0000 </r>
        <r>  0.0170  0.0002  0.0002  0.0002  0.0000  0.0000  0.0000  0.0000  0.0000 </r>
        <r>  0.0000  0.0000  0.0000  0.0000  0.0000  0.0000  0.0000  0.0000  0.0000 </r>
        <r>  0.0170  0.0002  0.0002  0.0002  0.0000  0.0000  0.0000  0.0000  0.0000 </r>
       </set>
       <set comment="band 118">
        <r>  0.0003  0.0002  0.0001  0.0000  0.0000  0.0000  0.0000  0.0000  0.0000 </r>
        <r>  0.0035  0.0002  0.0000  0.0013  0.0000  0.0000  0.0000  0.0000  0.0000 </r>
        <r>  0.0017  0.0002  0.0001  0.0000  0.0000  0.0000  0.0000  0.0000  0.0000 </r>
        <r>  0.0164  0.0000  0.0002  0.0003  0.0000  0.0000  0.0000  0.0000  0.0000 </r>
        <r>  0.0041  0.0002  0.0000  0.0000  0.0000  0.0000  0.0000  0.0000  0.0000 </r>
        <r>  0.0024  0.0003  0.0013  0.0000  0.0000  0.0000  0.0000  0.0000  0.0000 </r>
        <r>  0.0026  0.0002  0.0000  0.0000  0.0000  0.0000  0.0000  0.0000  0.0000 </r>
       </set>
       <set comment="band 119">
        <r>  0.0028  0.0000  0.0000  0.0002  0.0000  0.0000  0.0000  0.0000  0.0000 </r>
        <r>  0.0016  0.0015  0.0000  0.0001  0.0000  0.0000  0.0000  0.0000  0.0000 </r>
        <r>  0.0012  0.0000  0.0000  0.0003  0.0000  0.0000  0.0000  0.0000  0.0000 </r>
        <r>  0.0013  0.0000  0.0015  0.0001  0.0000  0.0000  0.0000  0.0000  0.0000 </r>
        <r>  0.0019  0.0000  0.0000  0.0003  0.0000  0.0000  0.0000  0.0000  0.0000 </r>
        <r>  0.0194  0.0001  0.0001  0.0000  0.0000  0.0000  0.0000  0.0000  0.0000 </r>
        <r>  0.0028  0.0000  0.0000  0.0002  0.0000  0.0000  0.0000  0.0000  0.0000 </r>
       </set>
       <set comment="band 120">
        <r>  0.0034  0.0000  0.0002  0.0000  0.0000  0.0000  0.0000  0.0000  0.0000 </r>
        <r>  0.0172  0.0000  0.0000  0.0004  0.0000  0.0000  0.0000  0.0000  0.0000 </r>
        <r>  0.0036  0.0000  0.0002  0.0000  0.0000  0.0000  0.0000  0.0000  0.0000 </r>
        <r>  0.0046  0.0000  0.0000  0.0013  0.0000  0.0000  0.0000  0.0000  0.0000 </r>
        <r>  0.0005  0.0001  0.0002  0.0000  0.0000  0.0000  0.0000  0.0000  0.0000 </r>
        <r>  0.0005  0.0013  0.0004  0.0000  0.0000  0.0000  0.0000  0.0000  0.0000 </r>
        <r>  0.0011  0.0001  0.0002  0.0000  0.0000  0.0000  0.0000  0.0000  0.0000 </r>
       </set>
       <set comment="band 121">
        <r>  0.0181  0.0036  0.0032  0.0039  0.0000  0.0000  0.0000  0.0000  0.0000 </r>
        <r>  0.0026  0.0005  0.0000  0.0039  0.0000  0.0000  0.0000  0.0000  0.0000 </r>
        <r>  0.0196  0.0039  0.0035  0.0042  0.0000  0.0000  0.0000  0.0000  0.0000 </r>
        <r>  0.0007  0.0000  0.0005  0.0139  0.0000  0.0000  0.0000  0.0000  0.0000 </r>
        <r>  0.0020  0.0006  0.0002  0.0005  0.0000  0.0000  0.0000  0.0000  0.0000 </r>
        <r>  0.0001  0.0139  0.0039  0.0000  0.0000  0.0000  0.0000  0.0000  0.0000 </r>
        <r>  0.0047  0.0011  0.0007  0.0010  0.0000  0.0000  0.0000  0.0000  0.0000 </r>
       </set>
       <set comment="band 122">
        <r>  0.0142  0.0030  0.0031  0.0024  0.0000  0.0000  0.0000  0.0000  0.0000 </r>
        <r>  0.0002  0.0162  0.0000  0.0008  0.0000  0.0000  0.0000  0.0000  0.0000 </r>
        <r>  0.0067  0.0016  0.0014  0.0010  0.0000  0.0000  0.0000  0.0000  0.0000 </r>
        <r>  0.0001  0.0000  0.0162  0.0013  0.0000  0.0000  0.0000  0.0000  0.0000 </r>
        <r>  0.0085  0.0019  0.0018  0.0014  0.0000  0.0000  0.0000  0.0000  0.0000 </r>
        <r>  0.0031  0.0013  0.0008  0.0000  0.0000  0.0000  0.0000  0.0000  0.0000 </r>
        <r>  0.0150  0.0031  0.0032  0.0026  0.0000  0.0000  0.0000  0.0000  0.0000 </r>
       </set>
       <set comment="band 123">
        <r>  0.0010  0.0001  0.0003  0.0003  0.0000  0.0000  0.0000  0.0000  0.0000 </r>
        <r>  0.0006  0.0016  0.0000  0.0136  0.0000  0.0000  0.0000  0.0000  0.0000 </r>
        <r>  0.0070  0.0012  0.0017  0.0014  0.0000  0.0000  0.0000  0.0000  0.0000 </r>
        <r>  0.0026  0.0000  0.0016  0.0031  0.0000  0.0000  0.0000  0.0000  0.0000 </r>
        <r>  0.0228  0.0041  0.0046  0.0048  0.0000  0.0000  0.0000  0.0000  0.0000 </r>
        <r>  0.0003  0.0031  0.0136  0.0000  0.0000  0.0000  0.0000  0.0000  0.0000 </r>
        <r>  0.0136  0.0024  0.0027  0.0031  0.0000  0.0000  0.0000  0.0000  0.0000 </r>
       </set>
       <set comment="band 124">
        <r>  0.0000  0.0040  0.0064  0.0020  0.0000  0.0000  0.0000  0.0000  0.0000 </r>
        <r>  0.0000  0.0000  0.0068  0.0000  0.0000  0.0000  0.0000  0.0000  0.0000 </r>
        <r>  0.0000  0.0040  0.0064  0.0020  0.0000  0.0000  0.0000  0.0000  0.0000 </r>
        <r>  0.0000  0.0043  0.0000  0.0000  0.0000  0.0000  0.0000  0.0000  0.0000 </r>
        <r>  0.0000  0.0040  0.0064  0.0020  0.0000  0.0000  0.0000  0.0000  0.0000 </r>
        <r>  0.0000  0.0000  0.0000  0.0021  0.0000  0.0000  0.0000  0.0000  0.0000 </r>
        <r>  0.0000  0.0040  0.0064  0.0020  0.0000  0.0000  0.0000  0.0000  0.0000 </r>
       </set>
       <set comment="band 125">
        <r>  0.0000  0.0043  0.0019  0.0063  0.0000  0.0000  0.0000  0.0000  0.0000 </r>
        <r>  0.0000  0.0000  0.0020  0.0000  0.0000  0.0000  0.0000  0.0000  0.0000 </r>
        <r>  0.0000  0.0043  0.0019  0.0063  0.0000  0.0000  0.0000  0.0000  0.0000 </r>
        <r>  0.0000  0.0045  0.0000  0.0000  0.0000  0.0000  0.0000  0.0000  0.0000 </r>
        <r>  0.0000  0.0043  0.0019  0.0063  0.0000  0.0000  0.0000  0.0000  0.0000 </r>
        <r>  0.0000  0.0000  0.0000  0.0067  0.0000  0.0000  0.0000  0.0000  0.0000 </r>
        <r>  0.0000  0.0043  0.0019  0.0063  0.0000  0.0000  0.0000  0.0000  0.0000 </r>
       </set>
       <set comment="band 126">
        <r>  0.0000  0.0000  0.0000  0.0000  0.0000  0.0000  0.0000  0.0000  0.0000 </r>
        <r>  0.0000  0.0000  0.0000  0.0000  0.0000  0.0000  0.0000  0.0000  0.0000 </r>
        <r>  0.0000  0.0000  0.0000  0.0000  0.0000  0.0000  0.0000  0.0000  0.0000 </r>
        <r>  0.0000  0.0000  0.0000  0.0000  0.0000  0.0000  0.0000  0.0000  0.0000 </r>
        <r>  0.0000  0.0000  0.0000  0.0000  0.0000  0.0000  0.0000  0.0000  0.0000 </r>
        <r>  0.0000  0.0000  0.0000  0.0000  0.0000  0.0000  0.0000  0.0000  0.0000 </r>
        <r>  0.0000  0.0000  0.0000  0.0000  0.0000  0.0000  0.0000  0.0000  0.0000 </r>
       </set>
       <set comment="band 127">
        <r>  0.0054  0.0026  0.0026  0.0026  0.0000  0.0000  0.0000  0.0000  0.0000 </r>
        <r>  0.0000  0.0000  0.0049  0.0000  0.0000  0.0000  0.0000  0.0000  0.0000 </r>
        <r>  0.0054  0.0026  0.0026  0.0026  0.0000  0.0000  0.0000  0.0000  0.0000 </r>
        <r>  0.0000  0.0049  0.0000  0.0000  0.0000  0.0000  0.0000  0.0000  0.0000 </r>
        <r>  0.0054  0.0026  0.0026  0.0026  0.0000  0.0000  0.0000  0.0000  0.0000 </r>
        <r>  0.0000  0.0000  0.0000  0.0049  0.0000  0.0000  0.0000  0.0000  0.0000 </r>
        <r>  0.0054  0.0026  0.0026  0.0026  0.0000  0.0000  0.0000  0.0000  0.0000 </r>
       </set>
       <set comment="band 128">
        <r>  0.0000  0.0045  0.0015  0.0006  0.0000  0.0000  0.0000  0.0000  0.0000 </r>
        <r>  0.0103  0.0001  0.0000  0.0010  0.0000  0.0000  0.0000  0.0000  0.0000 </r>
        <r>  0.0001  0.0039  0.0018  0.0002  0.0000  0.0000  0.0000  0.0000  0.0000 </r>
        <r>  0.0376  0.0000  0.0001  0.0003  0.0000  0.0000  0.0000  0.0000  0.0000 </r>
        <r>  0.0005  0.0028  0.0005  0.0002  0.0000  0.0000  0.0000  0.0000  0.0000 </r>
        <r>  0.0041  0.0003  0.0010  0.0000  0.0000  0.0000  0.0000  0.0000  0.0000 </r>
        <r>  0.0003  0.0034  0.0006  0.0010  0.0000  0.0000  0.0000  0.0000  0.0000 </r>
       </set>
       <set comment="band 129">
        <r>  0.0003  0.0001  0.0005  0.0043  0.0000  0.0000  0.0000  0.0000  0.0000 </r>
        <r>  0.0025  0.0013  0.0000  0.0001  0.0000  0.0000  0.0000  0.0000  0.0000 </r>
        <r>  0.0001  0.0007  0.0003  0.0048  0.0000  0.0000  0.0000  0.0000  0.0000 </r>
        <r>  0.0023  0.0000  0.0013  0.0001  0.0000  0.0000  0.0000  0.0000  0.0000 </r>
        <r>  0.0001  0.0006  0.0003  0.0049  0.0000  0.0000  0.0000  0.0000  0.0000 </r>
        <r>  0.0472  0.0001  0.0001  0.0000  0.0000  0.0000  0.0000  0.0000  0.0000 </r>
        <r>  0.0003  0.0000  0.0003  0.0043  0.0000  0.0000  0.0000  0.0000  0.0000 </r>
       </set>
       <set comment="band 130">
        <r>  0.0004  0.0006  0.0033  0.0003  0.0000  0.0000  0.0000  0.0000  0.0000 </r>
        <r>  0.0392  0.0000  0.0000  0.0003  0.0000  0.0000  0.0000  0.0000  0.0000 </r>
        <r>  0.0004  0.0007  0.0032  0.0002  0.0000  0.0000  0.0000  0.0000  0.0000 </r>
        <r>  0.0121  0.0000  0.0000  0.0011  0.0000  0.0000  0.0000  0.0000  0.0000 </r>
        <r>  0.0000  0.0019  0.0045  0.0002  0.0000  0.0000  0.0000  0.0000  0.0000 </r>
        <r>  0.0007  0.0011  0.0003  0.0000  0.0000  0.0000  0.0000  0.0000  0.0000 </r>
        <r>  0.0001  0.0019  0.0044  0.0000  0.0000  0.0000  0.0000  0.0000  0.0000 </r>
       </set>
       <set comment="band 131">
        <r>  0.0000  0.0001  0.0004  0.0009  0.0000  0.0000  0.0000  0.0000  0.0000 </r>
        <r>  0.0000  0.0000  0.0000  0.0000  0.0000  0.0000  0.0000  0.0000  0.0000 </r>
        <r>  0.0000  0.0006  0.0001  0.0009  0.0000  0.0000  0.0000  0.0000  0.0000 </r>
        <r>  0.0000  0.0000  0.0000  0.0000  0.0000  0.0000  0.0000  0.0000  0.0000 </r>
        <r>  0.0000  0.0001  0.0001  0.0001  0.0000  0.0000  0.0000  0.0000  0.0000 </r>
        <r>  0.0000  0.0000  0.0000  0.0000  0.0000  0.0000  0.0000  0.0000  0.0000 </r>
        <r>  0.0000  0.0006  0.0004  0.0001  0.0000  0.0000  0.0000  0.0000  0.0000 </r>
       </set>
       <set comment="band 132">
        <r>  0.0000  0.0009  0.0006  0.0000  0.0000  0.0000  0.0000  0.0000  0.0000 </r>
        <r>  0.0000  0.0000  0.0000  0.0000  0.0000  0.0000  0.0000  0.0000  0.0000 </r>
        <r>  0.0000  0.0001  0.0002  0.0000  0.0000  0.0000  0.0000  0.0000  0.0000 </r>
        <r>  0.0000  0.0000  0.0000  0.0000  0.0000  0.0000  0.0000  0.0000  0.0000 </r>
        <r>  0.0000  0.0009  0.0002  0.0003  0.0000  0.0000  0.0000  0.0000  0.0000 </r>
        <r>  0.0000  0.0000  0.0000  0.0000  0.0000  0.0000  0.0000  0.0000  0.0000 </r>
        <r>  0.0000  0.0001  0.0006  0.0003  0.0000  0.0000  0.0000  0.0000  0.0000 </r>
       </set>
       <set comment="band 133">
        <r>  0.0000  0.0000  0.0001  0.0002  0.0000  0.0000  0.0000  0.0000  0.0000 </r>
        <r>  0.0000  0.0000  0.0000  0.0000  0.0000  0.0000  0.0000  0.0000  0.0000 </r>
        <r>  0.0000  0.0004  0.0008  0.0002  0.0000  0.0000  0.0000  0.0000  0.0000 </r>
        <r>  0.0000  0.0000  0.0000  0.0000  0.0000  0.0000  0.0000  0.0000  0.0000 </r>
        <r>  0.0000  0.0000  0.0008  0.0007  0.0000  0.0000  0.0000  0.0000  0.0000 </r>
        <r>  0.0000  0.0000  0.0000  0.0000  0.0000  0.0000  0.0000  0.0000  0.0000 </r>
        <r>  0.0000  0.0004  0.0001  0.0007  0.0000  0.0000  0.0000  0.0000  0.0000 </r>
       </set>
       <set comment="band 134">
        <r>  0.0012  0.0000  0.0000  0.0000  0.0000  0.0000  0.0000  0.0000  0.0000 </r>
        <r>  0.0009  0.0000  0.0000  0.0001  0.0000  0.0000  0.0000  0.0000  0.0000 </r>
        <r>  0.0089  0.0001  0.0001  0.0001  0.0000  0.0000  0.0000  0.0000  0.0000 </r>
        <r>  0.0032  0.0000  0.0000  0.0000  0.0000  0.0000  0.0000  0.0000  0.0000 </r>
        <r>  0.0357  0.0003  0.0004  0.0004  0.0000  0.0000  0.0000  0.0000  0.0000 </r>
        <r>  0.0003  0.0000  0.0001  0.0000  0.0000  0.0000  0.0000  0.0000  0.0000 </r>
        <r>  0.0223  0.0002  0.0002  0.0003  0.0000  0.0000  0.0000  0.0000  0.0000 </r>
       </set>
       <set comment="band 135">
        <r>  0.0190  0.0002  0.0002  0.0001  0.0000  0.0000  0.0000  0.0000  0.0000 </r>
        <r>  0.0002  0.0001  0.0000  0.0000  0.0000  0.0000  0.0000  0.0000  0.0000 </r>
        <r>  0.0130  0.0002  0.0002  0.0001  0.0000  0.0000  0.0000  0.0000  0.0000 </r>
        <r>  0.0002  0.0000  0.0001  0.0000  0.0000  0.0000  0.0000  0.0000  0.0000 </r>
        <r>  0.0118  0.0002  0.0001  0.0001  0.0000  0.0000  0.0000  0.0000  0.0000 </r>
        <r>  0.0041  0.0000  0.0000  0.0000  0.0000  0.0000  0.0000  0.0000  0.0000 </r>
        <r>  0.0244  0.0003  0.0003  0.0002  0.0000  0.0000  0.0000  0.0000  0.0000 </r>
       </set>
       <set comment="band 136">
        <r>  0.0308  0.0003  0.0003  0.0004  0.0000  0.0000  0.0000  0.0000  0.0000 </r>
        <r>  0.0034  0.0000  0.0000  0.0000  0.0000  0.0000  0.0000  0.0000  0.0000 </r>
        <r>  0.0292  0.0003  0.0003  0.0004  0.0000  0.0000  0.0000  0.0000  0.0000 </r>
        <r>  0.0010  0.0000  0.0000  0.0001  0.0000  0.0000  0.0000  0.0000  0.0000 </r>
        <r>  0.0036  0.0001  0.0000  0.0000  0.0000  0.0000  0.0000  0.0000  0.0000 </r>
        <r>  0.0000  0.0001  0.0000  0.0000  0.0000  0.0000  0.0000  0.0000  0.0000 </r>
        <r>  0.0044  0.0001  0.0000  0.0001  0.0000  0.0000  0.0000  0.0000  0.0000 </r>
       </set>
       <set comment="band 137">
        <r>  0.0000  0.0004  0.0004  0.0003  0.0000  0.0000  0.0000  0.0000  0.0000 </r>
        <r>  0.0000  0.0000  0.0002  0.0000  0.0000  0.0000  0.0000  0.0000  0.0000 </r>
        <r>  0.0000  0.0004  0.0004  0.0003  0.0000  0.0000  0.0000  0.0000  0.0000 </r>
        <r>  0.0000  0.0002  0.0000  0.0000  0.0000  0.0000  0.0000  0.0000  0.0000 </r>
        <r>  0.0000  0.0004  0.0004  0.0003  0.0000  0.0000  0.0000  0.0000  0.0000 </r>
        <r>  0.0000  0.0000  0.0000  0.0002  0.0000  0.0000  0.0000  0.0000  0.0000 </r>
        <r>  0.0000  0.0004  0.0004  0.0003  0.0000  0.0000  0.0000  0.0000  0.0000 </r>
       </set>
       <set comment="band 138">
        <r>  0.0000  0.0003  0.0004  0.0004  0.0000  0.0000  0.0000  0.0000  0.0000 </r>
        <r>  0.0000  0.0000  0.0002  0.0000  0.0000  0.0000  0.0000  0.0000  0.0000 </r>
        <r>  0.0000  0.0003  0.0004  0.0004  0.0000  0.0000  0.0000  0.0000  0.0000 </r>
        <r>  0.0000  0.0002  0.0000  0.0000  0.0000  0.0000  0.0000  0.0000  0.0000 </r>
        <r>  0.0000  0.0003  0.0004  0.0004  0.0000  0.0000  0.0000  0.0000  0.0000 </r>
        <r>  0.0000  0.0000  0.0000  0.0002  0.0000  0.0000  0.0000  0.0000  0.0000 </r>
        <r>  0.0000  0.0003  0.0004  0.0004  0.0000  0.0000  0.0000  0.0000  0.0000 </r>
       </set>
       <set comment="band 139">
        <r>  0.0000  0.0001  0.0000  0.0000  0.0000  0.0000  0.0000  0.0000  0.0000 </r>
        <r>  0.0000  0.0001  0.0000  0.0001  0.0000  0.0000  0.0000  0.0000  0.0000 </r>
        <r>  0.0000  0.0000  0.0002  0.0000  0.0000  0.0000  0.0000  0.0000  0.0000 </r>
        <r>  0.0000  0.0000  0.0001  0.0000  0.0000  0.0000  0.0000  0.0000  0.0000 </r>
        <r>  0.0000  0.0001  0.0002  0.0001  0.0000  0.0000  0.0000  0.0000  0.0000 </r>
        <r>  0.0000  0.0000  0.0001  0.0000  0.0000  0.0000  0.0000  0.0000  0.0000 </r>
        <r>  0.0000  0.0000  0.0000  0.0001  0.0000  0.0000  0.0000  0.0000  0.0000 </r>
       </set>
       <set comment="band 140">
        <r>  0.0000  0.0001  0.0002  0.0001  0.0000  0.0000  0.0000  0.0000  0.0000 </r>
        <r>  0.0000  0.0001  0.0000  0.0001  0.0000  0.0000  0.0000  0.0000  0.0000 </r>
        <r>  0.0000  0.0000  0.0000  0.0001  0.0000  0.0000  0.0000  0.0000  0.0000 </r>
        <r>  0.0000  0.0000  0.0001  0.0000  0.0000  0.0000  0.0000  0.0000  0.0000 </r>
        <r>  0.0000  0.0001  0.0000  0.0001  0.0000  0.0000  0.0000  0.0000  0.0000 </r>
        <r>  0.0000  0.0000  0.0001  0.0000  0.0000  0.0000  0.0000  0.0000  0.0000 </r>
        <r>  0.0000  0.0000  0.0002  0.0001  0.0000  0.0000  0.0000  0.0000  0.0000 </r>
       </set>
       <set comment="band 141">
        <r>  0.0000  0.0001  0.0000  0.0001  0.0000  0.0000  0.0000  0.0000  0.0000 </r>
        <r>  0.0000  0.0000  0.0000  0.0000  0.0000  0.0000  0.0000  0.0000  0.0000 </r>
        <r>  0.0000  0.0002  0.0000  0.0001  0.0000  0.0000  0.0000  0.0000  0.0000 </r>
        <r>  0.0000  0.0000  0.0000  0.0002  0.0000  0.0000  0.0000  0.0000  0.0000 </r>
        <r>  0.0000  0.0001  0.0000  0.0001  0.0000  0.0000  0.0000  0.0000  0.0000 </r>
        <r>  0.0000  0.0002  0.0000  0.0000  0.0000  0.0000  0.0000  0.0000  0.0000 </r>
        <r>  0.0000  0.0002  0.0000  0.0001  0.0000  0.0000  0.0000  0.0000  0.0000 </r>
       </set>
       <set comment="band 142">
        <r>  0.0007  0.0003  0.0001  0.0001  0.0000  0.0000  0.0000  0.0000  0.0000 </r>
        <r>  0.0001  0.0000  0.0000  0.0000  0.0000  0.0000  0.0000  0.0000  0.0000 </r>
        <r>  0.0048  0.0003  0.0001  0.0000  0.0000  0.0000  0.0000  0.0000  0.0000 </r>
        <r>  0.0003  0.0000  0.0000  0.0000  0.0000  0.0000  0.0000  0.0000  0.0000 </r>
        <r>  0.0130  0.0001  0.0000  0.0001  0.0000  0.0000  0.0000  0.0000  0.0000 </r>
        <r>  0.0001  0.0000  0.0000  0.0000  0.0000  0.0000  0.0000  0.0000  0.0000 </r>
        <r>  0.0090  0.0002  0.0000  0.0001  0.0000  0.0000  0.0000  0.0000  0.0000 </r>
       </set>
       <set comment="band 143">
        <r>  0.0086  0.0000  0.0001  0.0002  0.0000  0.0000  0.0000  0.0000  0.0000 </r>
        <r>  0.0000  0.0000  0.0000  0.0000  0.0000  0.0000  0.0000  0.0000  0.0000 </r>
        <r>  0.0035  0.0001  0.0001  0.0003  0.0000  0.0000  0.0000  0.0000  0.0000 </r>
        <r>  0.0000  0.0000  0.0000  0.0000  0.0000  0.0000  0.0000  0.0000  0.0000 </r>
        <r>  0.0064  0.0001  0.0000  0.0003  0.0000  0.0000  0.0000  0.0000  0.0000 </r>
        <r>  0.0003  0.0000  0.0000  0.0000  0.0000  0.0000  0.0000  0.0000  0.0000 </r>
        <r>  0.0090  0.0000  0.0001  0.0003  0.0000  0.0000  0.0000  0.0000  0.0000 </r>
       </set>
       <set comment="band 144">
        <r>  0.0112  0.0000  0.0002  0.0001  0.0000  0.0000  0.0000  0.0000  0.0000 </r>
        <r>  0.0003  0.0000  0.0000  0.0000  0.0000  0.0000  0.0000  0.0000  0.0000 </r>
        <r>  0.0123  0.0000  0.0002  0.0000  0.0000  0.0000  0.0000  0.0000  0.0000 </r>
        <r>  0.0001  0.0000  0.0000  0.0000  0.0000  0.0000  0.0000  0.0000  0.0000 </r>
        <r>  0.0012  0.0002  0.0003  0.0000  0.0000  0.0000  0.0000  0.0000  0.0000 </r>
        <r>  0.0000  0.0000  0.0000  0.0000  0.0000  0.0000  0.0000  0.0000  0.0000 </r>
        <r>  0.0026  0.0002  0.0003  0.0000  0.0000  0.0000  0.0000  0.0000  0.0000 </r>
       </set>
      </set>
     </set>
    </set>
   </array>
  </projected>
 </calculation>
 <structure name="finalpos" >
  <crystal>
   <varray name="basis" >
    <v>       5.43784835       0.00000000       0.00000000 </v>
    <v>       0.00000000       5.43784835       0.00000000 </v>
    <v>       0.00000000       0.00000000       5.43784835 </v>
   </varray>
   <i name="volume">    160.79823434 </i>
   <varray name="rec_basis" >
    <v>       0.18389626       0.00000000       0.00000000 </v>
    <v>       0.00000000       0.18389626       0.00000000 </v>
    <v>       0.00000000       0.00000000       0.18389626 </v>
   </varray>
  </crystal>
  <varray name="positions" >
   <v>       0.25537591       0.74462409       0.25537591 </v>
   <v>       0.00000000       0.00000000       0.50000000 </v>
   <v>       0.25537591       0.25537591       0.74462409 </v>
   <v>       0.00000000       0.50000000       0.00000000 </v>
   <v>       0.74462409       0.74462409       0.74462409 </v>
   <v>       0.50000000       0.00000000       0.00000000 </v>
   <v>       0.74462409       0.25537591       0.25537591 </v>
  </varray>
 </structure>
</modeling>
