<?xml version="1.0" encoding="ISO-8859-1"?>
<modeling>
 <generator>
  <i name="program" type="string">vasp </i>
  <i name="version" type="string">6.2.1  </i>
  <i name="subversion" type="string">16May21 (build Oct 27 2021 18:14:32) complex                          parallel </i>
  <i name="platform" type="string">LinuxIFC </i>
  <i name="date" type="string">2021 11 20 </i>
  <i name="time" type="string">11:17:02 </i>
 </generator>
 <incar>
  <i type="string" name="PREC">Accurate</i>
  <i type="string" name="ALGO">Normal</i>
  <i type="int" name="ISPIN">     2</i>
  <i type="int" name="NELM">   200</i>
  <i type="int" name="IBRION">     2</i>
  <i name="EDIFF">      0.00001000</i>
  <i name="EDIFFG">     -0.02000000</i>
  <i type="int" name="NSW">     1</i>
  <i type="int" name="ISIF">     3</i>
  <i name="ENCUT">    680.00000000</i>
  <i name="ENAUG">   1360.00000000</i>
  <v name="MAGMOM">      0.60000000      0.60000000      0.60000000      0.60000000</v>
  <i type="string" name="LREAL">Auto</i>
  <i type="int" name="ISMEAR">    -5</i>
  <i name="SIGMA">      0.05000000</i>
  <i name="KSPACING">      0.50000000</i>
  <i type="logical" name="LWAVE"> F  </i>
  <i type="logical" name="LCHARG"> T  </i>
  <i type="logical" name="LVTOT"> T  </i>
  <i type="int" name="LORBIT">    11</i>
  <i type="logical" name="LELF"> T  </i>
  <i type="logical" name="LASPH"> T  </i>
  <i type="logical" name="LAECHG"> T  </i>
  <i type="logical" name="LMIXTAU"> T  </i>
 </incar>
 <primitive_cell>
  <structure name="primitive_cell" >
   <crystal>
    <varray name="basis" >
     <v>       3.34889800       0.00000000       1.93348700 </v>
     <v>       1.11629900       3.15737200       1.93348700 </v>
     <v>       0.00000000       0.00000000       3.86697450 </v>
    </varray>
    <i name="volume">     40.88829314 </i>
    <varray name="rec_basis" >
     <v>       0.29860569      -0.10557300       0.00000000 </v>
     <v>       0.00000000       0.31671909       0.00000000 </v>
     <v>      -0.14930283      -0.10557303       0.25860010 </v>
    </varray>
   </crystal>
   <varray name="positions" >
    <v>       0.25000000       0.25000000       0.25000000 </v>
    <v>       0.00000000       0.00000000       0.00000000 </v>
   </varray>
  </structure>
  <varray name="primitive_index" >
   <v type="int" >        1 </v>
   <v type="int" >        3 </v>
  </varray>
 </primitive_cell>
 <kpoints>
  <generation param="Gamma">
   <v type="int" name="divisions">       4        4        2 </v>
   <v name="usershift">      0.00000000       0.00000000       0.00000000 </v>
   <v name="genvec1">      0.25000000      -0.00000000       0.00000000 </v>
   <v name="genvec2">      0.00000000       0.25000000       0.00000000 </v>
   <v name="genvec3">     -0.00000000      -0.00000000       0.50000000 </v>
   <v name="shift">      0.00000000       0.00000000       0.00000000 </v>
  </generation>
  <varray name="kpointlist" >
   <v>       0.00000000       0.00000000       0.00000000 </v>
   <v>       0.25000000       0.00000000       0.00000000 </v>
   <v>       0.50000000       0.00000000       0.00000000 </v>
   <v>       0.25000000       0.25000000       0.00000000 </v>
   <v>       0.50000000       0.25000000       0.00000000 </v>
   <v>      -0.25000000       0.25000000       0.00000000 </v>
   <v>      -0.00000000       0.00000000       0.50000000 </v>
   <v>       0.50000000      -0.00000000       0.50000000 </v>
  </varray>
  <varray name="weights" >
   <v>       0.03125000 </v>
   <v>       0.18750000 </v>
   <v>       0.09375000 </v>
   <v>       0.18750000 </v>
   <v>       0.18750000 </v>
   <v>       0.18750000 </v>
   <v>       0.03125000 </v>
   <v>       0.09375000 </v>
  </varray>
  <varray name="tetrahedronlist"  type="int" >
   <v type="int" >       12        1        2        2        4 </v>
   <v type="int" >       12        1        2        4        7 </v>
   <v type="int" >       12        2        4        5        6 </v>
   <v type="int" >       12        2        3        5        6 </v>
   <v type="int" >       12        2        3        6        8 </v>
   <v type="int" >       12        2        2        4        6 </v>
   <v type="int" >       12        2        4        6        8 </v>
   <v type="int" >       12        3        5        5        6 </v>
   <v type="int" >       12        2        3        4        5 </v>
   <v type="int" >       12        3        5        6        8 </v>
   <v type="int" >       12        3        4        5        8 </v>
   <v type="int" >       12        2        4        4        5 </v>
   <v type="int" >       12        2        4        4        7 </v>
   <v type="int" >       12        4        5        6        8 </v>
   <v type="int" >       12        5        5        6        6 </v>
   <v type="int" >       12        5        6        6        8 </v>
  </varray>
  <i name="volumeweight">      0.00520833 </i>
 </kpoints>
 <parameters>
  <separator name="general" >
   <i type="string" name="SYSTEM">unknown system</i>
   <i type="logical" name="LCOMPAT"> F  </i>
  </separator>
  <separator name="electronic" >
   <i type="string" name="PREC">accura</i>
   <i name="ENMAX">    680.00000000</i>
   <i name="ENAUG">   1360.00000000</i>
   <i name="EDIFF">      0.00001000</i>
   <i type="int" name="IALGO">    38</i>
   <i type="int" name="IWAVPR">    11</i>
   <i type="int" name="NBANDS">    13</i>
   <i type="int" name="NBANDSLOW">    -1</i>
   <i type="int" name="NBANDSHIGH">    -1</i>
   <i name="NELECT">     16.00000000</i>
   <i type="int" name="TURBO">     0</i>
   <i type="int" name="IRESTART">     0</i>
   <i type="int" name="NREBOOT">     0</i>
   <i type="int" name="NMIN">     0</i>
   <i name="EREF">      0.00000000</i>
   <separator name="electronic smearing" >
    <i type="int" name="ISMEAR">    -5</i>
    <i name="SIGMA">      0.05000000</i>
    <i name="KSPACING">      0.50000000</i>
    <i type="logical" name="KGAMMA"> T  </i>
    <i type="logical" name="KBLOWUP"> T  </i>
   </separator>
   <separator name="electronic projectors" >
    <i type="logical" name="LREAL"> T  </i>
    <v name="ROPT">     -0.00025000</v>
    <i type="int" name="LMAXPAW">  -100</i>
    <i type="int" name="LMAXMIX">     2</i>
    <i type="logical" name="NLSPLINE"> F  </i>
   </separator>
   <separator name="electronic startup" >
    <i type="int" name="ISTART">     0</i>
    <i type="int" name="ICHARG">     2</i>
    <i type="int" name="INIWAV">     1</i>
   </separator>
   <separator name="electronic spin" >
    <i type="int" name="ISPIN">     2</i>
    <i type="logical" name="LNONCOLLINEAR"> F  </i>
    <v name="MAGMOM">      0.60000000      0.60000000      0.60000000      0.60000000</v>
    <i name="NUPDOWN">     -1.00000000</i>
    <i type="logical" name="LSORBIT"> F  </i>
    <v name="SAXIS">      0.00000000      0.00000000      1.00000000</v>
    <i type="logical" name="LSPIRAL"> F  </i>
    <v name="QSPIRAL">      0.00000000      0.00000000      0.00000000</v>
    <i type="logical" name="LZEROZ"> F  </i>
   </separator>
   <separator name="electronic exchange-correlation" >
    <i type="logical" name="LASPH"> T  </i>
    <i type="logical" name="LMETAGGA"> F  </i>
   </separator>
   <separator name="electronic convergence" >
    <i type="int" name="NELM">   200</i>
    <i type="int" name="NELMDL">    -5</i>
    <i type="int" name="NELMIN">     2</i>
    <i name="ENINI">    680.00000000</i>
    <separator name="electronic convergence detail" >
     <i type="logical" name="LDIAG"> T  </i>
     <i type="logical" name="LSUBROT"> F  </i>
     <i name="WEIMIN">      0.00100000</i>
     <i name="EBREAK">      0.00000019</i>
     <i name="DEPER">      0.30000000</i>
     <i type="int" name="NRMM">     4</i>
     <i name="TIME">      0.40000000</i>
    </separator>
   </separator>
   <separator name="electronic mixer" >
    <i name="AMIX">      0.40000000</i>
    <i name="BMIX">      1.00000000</i>
    <i name="AMIN">      0.10000000</i>
    <i name="AMIX_MAG">      1.60000000</i>
    <i name="BMIX_MAG">      1.00000000</i>
    <separator name="electronic mixer details" >
     <i type="int" name="IMIX">     4</i>
     <i type="logical" name="MIXFIRST"> F  </i>
     <i type="int" name="MAXMIX">   -45</i>
     <i name="WC">    100.00000000</i>
     <i type="int" name="INIMIX">     1</i>
     <i type="int" name="MIXPRE">     1</i>
     <i type="int" name="MREMOVE">     5</i>
    </separator>
   </separator>
   <separator name="electronic dipolcorrection" >
    <i type="logical" name="LDIPOL"> F  </i>
    <i type="logical" name="LMONO"> F  </i>
    <i type="int" name="IDIPOL">     0</i>
    <i name="EPSILON">      1.00000000</i>
    <v name="DIPOL">   -100.00000000   -100.00000000   -100.00000000</v>
    <i name="EFIELD">      0.00000000</i>
   </separator>
  </separator>
  <separator name="grids" >
   <i type="int" name="NGX">    36</i>
   <i type="int" name="NGY">    36</i>
   <i type="int" name="NGZ">    70</i>
   <i type="int" name="NGXF">    72</i>
   <i type="int" name="NGYF">    72</i>
   <i type="int" name="NGZF">   140</i>
   <i type="logical" name="ADDGRID"> F  </i>
  </separator>
  <separator name="ionic" >
   <i type="int" name="NSW">     1</i>
   <i type="int" name="IBRION">     2</i>
   <i type="int" name="MDALGO">     0</i>
   <i type="int" name="ISIF">     3</i>
   <i name="PSTRESS">      0.00000000</i>
   <i name="EDIFFG">     -0.02000000</i>
   <i type="int" name="NFREE">     1</i>
   <i name="POTIM">      0.50000000</i>
   <i name="SMASS">     -3.00000000</i>
   <i name="SCALEE">      1.00000000</i>
  </separator>
  <separator name="ionic md" >
   <i name="TEBEG">      0.00010000</i>
   <i name="TEEND">      0.00010000</i>
   <i type="int" name="NBLOCK">     1</i>
   <i type="int" name="KBLOCK">     1</i>
   <i type="int" name="NPACO">   256</i>
   <i name="APACO">     16.00000000</i>
  </separator>
  <separator name="symmetry" >
   <i type="int" name="ISYM">     2</i>
   <i name="SYMPREC">      0.00001000</i>
  </separator>
  <separator name="dos" >
   <i type="int" name="LORBIT">    11</i>
   <v name="RWIGS">     -1.00000000</v>
   <i type="int" name="NEDOS">   301</i>
   <i name="EMIN">     10.00000000</i>
   <i name="EMAX">    -10.00000000</i>
   <i name="EFERMI">      0.00000000</i>
  </separator>
  <separator name="writing" >
   <i type="int" name="NWRITE">     2</i>
   <i type="logical" name="LWAVE"> F  </i>
   <i type="logical" name="LDOWNSAMPLE"> F  </i>
   <i type="logical" name="LCHARG"> T  </i>
   <i type="logical" name="LPARD"> F  </i>
   <i type="logical" name="LVTOT"> T  </i>
   <i type="logical" name="LVHAR"> F  </i>
   <i type="logical" name="LELF"> T  </i>
   <i type="logical" name="LOPTICS"> F  </i>
   <v name="STM">      0.00000000      0.00000000      0.00000000      0.00000000      0.00000000      0.00000000      0.00000000</v>
  </separator>
  <separator name="performance" >
   <i type="int" name="NPAR">     1</i>
   <i type="int" name="NSIM">     4</i>
   <i type="int" name="NBLK">    -1</i>
   <i type="logical" name="LPLANE"> T  </i>
   <i type="logical" name="LSCALAPACK"> F  </i>
   <i type="logical" name="LSCAAWARE"> F  </i>
   <i type="logical" name="LSCALU"> F  </i>
   <i type="logical" name="LASYNC"> F  </i>
   <i type="logical" name="LORBITALREAL"> F  </i>
  </separator>
  <separator name="miscellaneous" >
   <i type="int" name="IDIOT">     3</i>
   <i type="int" name="PHON_NSTRUCT">    -1</i>
   <i type="logical" name="LMUSIC"> F  </i>
   <v name="POMASS">     28.08500000</v>
   <v name="DARWINR">      0.00000000</v>
   <v name="DARWINV">      1.00000000</v>
   <i type="logical" name="LCORR"> T  </i>
  </separator>
  <i type="logical" name="GGA_COMPAT"> T  </i>
  <i type="logical" name="LBERRY"> F  </i>
  <i type="int" name="ICORELEVEL">     0</i>
  <i type="logical" name="LDAU"> F  </i>
  <i type="int" name="I_CONSTRAINED_M">     0</i>
  <separator name="electronic exchange-correlation" >
   <i type="string" name="GGA">--</i>
   <i type="int" name="VOSKOWN">     0</i>
   <i type="logical" name="LHFCALC"> F  </i>
   <i type="string" name="PRECFOCK"></i>
   <i type="logical" name="LSYMGRAD"> F  </i>
   <i type="logical" name="LHFONE"> F  </i>
   <i type="logical" name="LRHFCALC"> F  </i>
   <i type="logical" name="LTHOMAS"> F  </i>
   <i type="logical" name="LMODELHF"> F  </i>
   <i type="logical" name="LFOCKACE"> F  </i>
   <i name="ENCUT4O">     -1.00000000</i>
   <i type="int" name="EXXOEP">     0</i>
   <i type="int" name="FOURORBIT">     0</i>
   <i name="AEXX">      0.00000000</i>
   <i name="HFALPHA">      0.00000000</i>
   <i name="MCALPHA">      0.00000000</i>
   <i name="ALDAX">      1.00000000</i>
   <i name="AGGAX">      1.00000000</i>
   <i name="ALDAC">      1.00000000</i>
   <i name="AGGAC">      1.00000000</i>
   <i type="int" name="NKREDX">     1</i>
   <i type="int" name="NKREDY">     1</i>
   <i type="int" name="NKREDZ">     1</i>
   <i type="logical" name="SHIFTRED"> F  </i>
   <i type="logical" name="ODDONLY"> F  </i>
   <i type="logical" name="EVENONLY"> F  </i>
   <i type="int" name="LMAXFOCK">     0</i>
   <i type="int" name="NMAXFOCKAE">     0</i>
   <i type="logical" name="LFOCKAEDFT"> F  </i>
   <i name="HFSCREEN">      0.00000000</i>
   <i name="HFSCREENC">      0.00000000</i>
   <i type="int" name="NBANDSGWLOW">     0</i>
  </separator>
  <separator name="vdW DFT" >
   <i type="logical" name="LUSE_VDW"> F  </i>
   <i name="Zab_VDW">     -0.84910000</i>
   <i name="PARAM1">      0.12340000</i>
   <i name="PARAM2">      1.00000000</i>
   <i name="PARAM3">      0.00000000</i>
  </separator>
  <separator name="model GW" >
   <i type="int" name="MODEL_GW">     0</i>
   <i name="MODEL_EPS0">     12.26648794</i>
   <i name="MODEL_ALPHA">      1.00000000</i>
  </separator>
  <separator name="linear response parameters" >
   <i type="logical" name="LEPSILON"> F  </i>
   <i type="logical" name="LRPA"> F  </i>
   <i type="logical" name="LNABLA"> F  </i>
   <i type="logical" name="LVEL"> F  </i>
   <i type="int" name="KINTER">     0</i>
   <i name="CSHIFT">      0.10000000</i>
   <i name="OMEGAMAX">     -1.00000000</i>
   <i name="DEG_THRESHOLD">      0.00200000</i>
   <i name="RTIME">     -0.10000000</i>
   <i name="WPLASMAI">      0.00000000</i>
   <v name="DFIELD">      0.00000000      0.00000000      0.00000000</v>
   <v name="WPLASMA">      0.00000000      0.00000000      0.00000000      0.00000000      0.00000000      0.00000000      0.00000000      0.00000000      0.00000000</v>
  </separator>
  <separator name="orbital magnetization" >
   <i type="logical" name="NUCIND"> F  </i>
   <v name="MAGPOS">      0.00000000      0.00000000      0.00000000</v>
   <i type="logical" name="LNICSALL"> T  </i>
   <i type="logical" name="ORBITALMAG"> F  </i>
   <i type="logical" name="LMAGBLOCH"> F  </i>
   <i type="logical" name="LCHIMAG"> F  </i>
   <i type="logical" name="LGAUGE"> T  </i>
   <i type="int" name="MAGATOM">     0</i>
   <v name="MAGDIPOL">      0.00000000      0.00000000      0.00000000</v>
   <v name="AVECCONST">      0.00000000      0.00000000      0.00000000</v>
  </separator>
  <separator name="response functions" >
   <i type="logical" name="LFINITE_TEMPERATURE"> F  </i>
   <i type="logical" name="LADDER"> F  </i>
   <i type="logical" name="LRPAFORCE"> F  </i>
   <i type="logical" name="LFXC"> F  </i>
   <i type="logical" name="LHARTREE"> T  </i>
   <i type="int" name="IBSE">     0</i>
   <v type="int" name="KPOINT">    -1     0     0     0</v>
   <i type="logical" name="LTCTC"> F  </i>
   <i type="logical" name="LTCTE"> F  </i>
   <i type="logical" name="LTETE"> F  </i>
   <i type="logical" name="LTRIPLET"> F  </i>
   <i type="logical" name="LFXCEPS"> F  </i>
   <i type="logical" name="LFXHEG"> F  </i>
   <i type="int" name="NATURALO">     2</i>
   <i type="logical" name="LHOLEGF"> F  </i>
   <i type="logical" name="L2ORDER"> F  </i>
   <i type="logical" name="LDMP1"> F  </i>
   <i type="logical" name="LMP2LT"> F  </i>
   <i type="logical" name="LSMP2LT"> F  </i>
   <i type="logical" name="LGWLF"> F  </i>
   <i name="ENCUTGW">     -2.00000000</i>
   <i name="ENCUTGWSOFT">     -2.00000000</i>
   <i name="ENCUTLF">     -1.00000000</i>
   <i type="logical" name="LESF_SPLINES"> F  </i>
   <i type="int" name="LMAXMP2">    -1</i>
   <i name="SCISSOR">      0.00000000</i>
   <i type="int" name="NOMEGA">     0</i>
   <i type="int" name="NOMEGAR">     0</i>
   <i type="int" name="NBANDSGW">    -1</i>
   <i type="int" name="NBANDSO">    -1</i>
   <i type="int" name="NBANDSV">    -1</i>
   <i type="int" name="NELM">   200</i>
   <i type="int" name="NELMHF">     1</i>
   <i type="int" name="DIM">     3</i>
   <i type="int" name="IESPILON">     4</i>
   <i type="int" name="ANTIRES">     0</i>
   <i name="OMEGAMAX">    -30.00000000</i>
   <i name="OMEGAMIN">    -30.00000000</i>
   <i name="OMEGATL">   -200.00000000</i>
   <i type="int" name="OMEGAGRID">     0</i>
   <i name="CSHIFT">     -0.10000000</i>
   <i type="logical" name="LSELFENERGY"> F  </i>
   <i type="logical" name="LSPECTRAL"> F  </i>
   <i type="logical" name="LSPECTRALGW"> F  </i>
   <i type="logical" name="LSINGLES"> F  </i>
   <i type="logical" name="LFERMIGW"> F  </i>
   <i type="logical" name="ODDONLYGW"> F  </i>
   <i type="logical" name="EVENONLYGW"> F  </i>
   <i type="int" name="NKREDLFX">     1</i>
   <i type="int" name="NKREDLFY">     1</i>
   <i type="int" name="NKREDLFZ">     1</i>
   <i type="int" name="MAXMEM">  2800</i>
   <i type="int" name="TELESCOPE">     0</i>
   <i type="int" name="NTAUPAR">    -1</i>
   <i type="int" name="NOMEGAPAR">    -1</i>
   <i name="DAMP_NEWTON">      0.80000001</i>
   <i name="LAMBDA">      1.00000000</i>
  </separator>
  <separator name="External order field" >
   <i name="OFIELD_KAPPA">      0.00000000</i>
   <v name="OFIELD_K">      0.00000000      0.00000000      0.00000000</v>
   <i name="OFIELD_Q6_NEAR">      0.00000000</i>
   <i name="OFIELD_Q6_FAR">      0.00000000</i>
   <i name="OFIELD_A">      0.00000000</i>
  </separator>
 </parameters>
 <atominfo>
  <atoms>       4 </atoms>
  <types>       1 </types>
  <array name="atoms" >
   <dimension dim="1">ion</dimension>
   <field type="string">element</field>
   <field type="int">atomtype</field>
   <set>
    <rc><c>Si</c><c>   1</c></rc>
    <rc><c>Si</c><c>   1</c></rc>
    <rc><c>Si</c><c>   1</c></rc>
    <rc><c>Si</c><c>   1</c></rc>
   </set>
  </array>
  <array name="atomtypes" >
   <dimension dim="1">type</dimension>
   <field type="int">atomspertype</field>
   <field type="string">element</field>
   <field>mass</field>
   <field>valence</field>
   <field type="string">pseudopotential</field>
   <set>
    <rc><c>   4</c><c>Si</c><c>     28.08500000</c><c>      4.00000000</c><c>  PAW_PBE Si 05Jan2001                  </c></rc>
   </set>
  </array>
 </atominfo>
 <structure name="initialpos" >
  <crystal>
   <varray name="basis" >
    <v>       3.34889800       0.00000000       1.93348700 </v>
    <v>       1.11629900       3.15737200       1.93348700 </v>
    <v>       0.00000000       0.00000000       7.73394900 </v>
   </varray>
   <i name="volume">     81.77658629 </i>
   <varray name="rec_basis" >
    <v>       0.29860569      -0.10557300       0.00000000 </v>
    <v>       0.00000000       0.31671909       0.00000000 </v>
    <v>      -0.07465141      -0.05278652       0.12930005 </v>
   </varray>
  </crystal>
  <varray name="positions" >
   <v>       0.25000000       0.25000000       0.12500000 </v>
   <v>       0.25000000       0.25000000       0.62500000 </v>
   <v>       0.00000000       0.00000000       0.00000000 </v>
   <v>       0.00000000       0.00000000       0.50000000 </v>
  </varray>
 </structure>
 <calculation>
  <scstep>
   <time name="dav">    0.73    0.74</time>
   <time name="total">    1.16    1.18</time>
   <energy>
    <i name="alphaZ">      6.58636068 </i>
    <i name="ewald">   -453.88980676 </i>
    <i name="hartreedc">    -22.64677839 </i>
    <i name="XCdc">    -37.21139797 </i>
    <i name="pawpsdc">    352.36727582 </i>
    <i name="pawaedc">   -281.98505411 </i>
    <i name="eentropy">      0.00000000 </i>
    <i name="bandstr">     60.86784101 </i>
    <i name="atom">    412.26644372 </i>
    <i name="e_fr_energy">     36.35488401 </i>
    <i name="e_wo_entrp">     36.35488401 </i>
    <i name="e_0_energy">     36.35488401 </i>
   </energy>
  </scstep>
  <scstep>
   <time name="dav">    1.12    1.12</time>
   <time name="total">    1.12    1.12</time>
   <energy>
    <i name="e_fr_energy">    -19.00271469 </i>
    <i name="e_wo_entrp">    -19.00271469 </i>
    <i name="e_0_energy">    -19.00271469 </i>
   </energy>
  </scstep>
  <scstep>
   <time name="dav">    0.99    0.99</time>
   <time name="total">    0.99    0.99</time>
   <energy>
    <i name="e_fr_energy">    -21.30292749 </i>
    <i name="e_wo_entrp">    -21.30292749 </i>
    <i name="e_0_energy">    -21.30292749 </i>
   </energy>
  </scstep>
  <scstep>
   <time name="dav">    0.84    0.84</time>
   <time name="total">    0.84    0.84</time>
   <energy>
    <i name="e_fr_energy">    -21.33851658 </i>
    <i name="e_wo_entrp">    -21.33851658 </i>
    <i name="e_0_energy">    -21.33851658 </i>
   </energy>
  </scstep>
  <scstep>
   <time name="dav">    0.84    0.84</time>
   <time name="total">    0.91    0.92</time>
   <energy>
    <i name="e_fr_energy">    -21.33926425 </i>
    <i name="e_wo_entrp">    -21.33926425 </i>
    <i name="e_0_energy">    -21.33926425 </i>
   </energy>
  </scstep>
  <scstep>
   <time name="dav">    0.79    0.79</time>
   <time name="total">    1.21    1.21</time>
   <energy>
    <i name="e_fr_energy">    -21.40766079 </i>
    <i name="e_wo_entrp">    -21.40766079 </i>
    <i name="e_0_energy">    -21.40766079 </i>
   </energy>
  </scstep>
  <scstep>
   <time name="dav">    0.81    0.83</time>
   <time name="total">    1.24    1.26</time>
   <energy>
    <i name="e_fr_energy">    -21.32848688 </i>
    <i name="e_wo_entrp">    -21.32848688 </i>
    <i name="e_0_energy">    -21.32848688 </i>
   </energy>
  </scstep>
  <scstep>
   <time name="dav">    1.13    1.19</time>
   <time name="total">    1.60    1.66</time>
   <energy>
    <i name="e_fr_energy">    -21.32087680 </i>
    <i name="e_wo_entrp">    -21.32087680 </i>
    <i name="e_0_energy">    -21.32087680 </i>
   </energy>
  </scstep>
  <scstep>
   <time name="dav">    1.07    1.09</time>
   <time name="total">    1.55    1.60</time>
   <energy>
    <i name="e_fr_energy">    -21.33055924 </i>
    <i name="e_wo_entrp">    -21.33055924 </i>
    <i name="e_0_energy">    -21.33055924 </i>
   </energy>
  </scstep>
  <scstep>
   <time name="dav">    1.28    1.31</time>
   <time name="total">    1.88    1.93</time>
   <energy>
    <i name="e_fr_energy">    -21.33178385 </i>
    <i name="e_wo_entrp">    -21.33178385 </i>
    <i name="e_0_energy">    -21.33178385 </i>
   </energy>
  </scstep>
  <scstep>
   <time name="dav">    1.22    1.24</time>
   <time name="total">    1.92    1.96</time>
   <energy>
    <i name="e_fr_energy">    -21.33214294 </i>
    <i name="e_wo_entrp">    -21.33214294 </i>
    <i name="e_0_energy">    -21.33214294 </i>
   </energy>
  </scstep>
  <scstep>
   <time name="dav">    1.58    1.61</time>
   <time name="total">    2.05    2.09</time>
   <energy>
    <i name="e_fr_energy">    -21.33230061 </i>
    <i name="e_wo_entrp">    -21.33230061 </i>
    <i name="e_0_energy">    -21.33230061 </i>
   </energy>
  </scstep>
  <scstep>
   <time name="dav">    0.95    0.96</time>
   <time name="total">    1.54    1.55</time>
   <energy>
    <i name="e_fr_energy">    -21.33231504 </i>
    <i name="e_wo_entrp">    -21.33231504 </i>
    <i name="e_0_energy">    -21.33231504 </i>
   </energy>
  </scstep>
  <scstep>
   <time name="dav">    1.03    1.06</time>
   <time name="total">    1.44    1.46</time>
   <energy>
    <i name="alphaZ">      6.58636068 </i>
    <i name="ewald">   -453.88980676 </i>
    <i name="hartreedc">    -30.99176425 </i>
    <i name="XCdc">    -36.04360960 </i>
    <i name="pawpsdc">   1684.12386356 </i>
    <i name="pawaedc">  -1614.17776286 </i>
    <i name="eentropy">      0.00000000 </i>
    <i name="bandstr">     10.79395803 </i>
    <i name="atom">    412.26644372 </i>
    <i name="e_fr_energy">    -21.33231747 </i>
    <i name="e_wo_entrp">    -21.33231747 </i>
    <i name="e_0_energy">    -21.33231747 </i>
   </energy>
  </scstep>
  <structure>
   <crystal>
    <varray name="basis" >
     <v>       3.34889800       0.00000000       1.93348700 </v>
     <v>       1.11629900       3.15737200       1.93348700 </v>
     <v>       0.00000000       0.00000000       7.73394900 </v>
    </varray>
    <i name="volume">     81.77658629 </i>
    <varray name="rec_basis" >
     <v>       0.29860569      -0.10557300       0.00000000 </v>
     <v>       0.00000000       0.31671909       0.00000000 </v>
     <v>      -0.07465141      -0.05278652       0.12930005 </v>
    </varray>
   </crystal>
   <varray name="positions" >
    <v>       0.25000000       0.25000000       0.12500000 </v>
    <v>       0.25000000       0.25000000       0.62500000 </v>
    <v>       0.00000000       0.00000000       0.00000000 </v>
    <v>       0.00000000       0.00000000       0.50000000 </v>
   </varray>
  </structure>
  <varray name="forces" >
   <v>       0.00061313       0.00043355      -0.00106198 </v>
   <v>       0.00061313       0.00043355      -0.00106198 </v>
   <v>      -0.00061313      -0.00043355       0.00106198 </v>
   <v>      -0.00061313      -0.00043355       0.00106198 </v>
  </varray>
  <varray name="stress" >
   <v>       5.79406232      -0.00508581       0.01245570 </v>
   <v>      -0.00508581       5.79766062       0.00880752 </v>
   <v>       0.01245570       0.00880752       5.77967974 </v>
  </varray>
  <energy>
   <i name="e_fr_energy">    -21.33231747 </i>
   <i name="e_wo_entrp">    -21.33231747 </i>
   <i name="e_0_energy">    -21.33231747 </i>
  </energy>
  <time name="totalsc">   24.14   24.66</time>
  <eigenvalues>
   <array>
    <dimension dim="1">band</dimension>
    <dimension dim="2">kpoint</dimension>
    <dimension dim="3">spin</dimension>
    <field>eigene</field>
    <field>occ</field>
    <set>
     <set comment="spin 1">
      <set comment="kpoint 1">
       <r>   -6.1635    1.0000 </r>
       <r>   -3.8819    1.0000 </r>
       <r>   -1.2190    1.0000 </r>
       <r>    4.4769    1.0000 </r>
       <r>    4.4769    1.0000 </r>
       <r>    5.6596    1.0000 </r>
       <r>    5.6596    1.0000 </r>
       <r>    5.6596    1.0000 </r>
       <r>    7.1193    0.0000 </r>
       <r>    8.1985    0.0000 </r>
       <r>    8.1985    0.0000 </r>
       <r>    8.1985    0.0000 </r>
       <r>    8.7961    0.0000 </r>
      </set>
      <set comment="kpoint 2">
       <r>   -5.3780    1.0000 </r>
       <r>   -3.4970    1.0000 </r>
       <r>   -0.6695    1.0000 </r>
       <r>    1.7670    1.0000 </r>
       <r>    2.1863    1.0000 </r>
       <r>    3.4919    1.0000 </r>
       <r>    4.9110    1.0000 </r>
       <r>    4.9110    1.0000 </r>
       <r>    7.1850    0.0000 </r>
       <r>    7.6107    0.0000 </r>
       <r>    9.1331    0.0000 </r>
       <r>    9.1331    0.0000 </r>
       <r>   10.0790    0.0000 </r>
      </set>
      <set comment="kpoint 3">
       <r>   -3.8819    1.0000 </r>
       <r>   -2.0918    1.0000 </r>
       <r>   -2.0918    1.0000 </r>
       <r>   -1.2190    1.0000 </r>
       <r>    2.8560    1.0000 </r>
       <r>    2.8560    1.0000 </r>
       <r>    4.4769    1.0000 </r>
       <r>    4.4770    1.0000 </r>
       <r>    6.3942    0.0000 </r>
       <r>    6.3942    0.0000 </r>
       <r>    7.1193    0.0000 </r>
       <r>    8.9886    0.0000 </r>
       <r>    8.9886    0.0000 </r>
      </set>
      <set comment="kpoint 4">
       <r>   -5.1002    1.0000 </r>
       <r>   -4.1577    1.0000 </r>
       <r>    0.2158    1.0000 </r>
       <r>    1.9783    1.0000 </r>
       <r>    2.1400    1.0000 </r>
       <r>    3.8031    1.0000 </r>
       <r>    3.8032    1.0000 </r>
       <r>    4.3521    1.0000 </r>
       <r>    6.7953    0.0000 </r>
       <r>    8.0819    0.0000 </r>
       <r>    8.7780    0.0000 </r>
       <r>   10.3916    0.0000 </r>
       <r>   10.7398    0.0000 </r>
      </set>
      <set comment="kpoint 5">
       <r>   -3.4970    1.0000 </r>
       <r>   -3.4970    1.0000 </r>
       <r>   -0.6695    1.0000 </r>
       <r>   -0.6695    1.0000 </r>
       <r>    2.1863    1.0000 </r>
       <r>    2.1863    1.0000 </r>
       <r>    3.4919    1.0000 </r>
       <r>    3.4919    1.0000 </r>
       <r>    7.1850    0.0000 </r>
       <r>    7.1850    0.0000 </r>
       <r>   10.0790    0.0000 </r>
       <r>   10.0790    0.0000 </r>
       <r>   11.2990    0.0000 </r>
      </set>
      <set comment="kpoint 6">
       <r>   -4.1577    1.0000 </r>
       <r>   -1.9363    1.0000 </r>
       <r>   -1.9363    1.0000 </r>
       <r>    0.2158    1.0000 </r>
       <r>    1.8855    1.0000 </r>
       <r>    1.8855    1.0000 </r>
       <r>    1.9783    1.0000 </r>
       <r>    4.3521    1.0000 </r>
       <r>    8.0818    0.0000 </r>
       <r>    9.9192    0.0000 </r>
       <r>    9.9192    0.0000 </r>
       <r>   10.3917    0.0000 </r>
       <r>   10.5775    0.0000 </r>
      </set>
      <set comment="kpoint 7">
       <r>   -5.3780    1.0000 </r>
       <r>   -5.3780    1.0000 </r>
       <r>    1.7670    1.0000 </r>
       <r>    1.7670    1.0000 </r>
       <r>    4.9110    1.0000 </r>
       <r>    4.9110    1.0000 </r>
       <r>    4.9110    1.0000 </r>
       <r>    4.9110    1.0000 </r>
       <r>    7.6107    0.0000 </r>
       <r>    7.6107    0.0000 </r>
       <r>    9.1331    0.0000 </r>
       <r>    9.1331    0.0000 </r>
       <r>    9.1331    0.0000 </r>
      </set>
      <set comment="kpoint 8">
       <r>   -3.4970    1.0000 </r>
       <r>   -3.4970    1.0000 </r>
       <r>   -0.6695    1.0000 </r>
       <r>   -0.6695    1.0000 </r>
       <r>    2.1863    1.0000 </r>
       <r>    2.1863    1.0000 </r>
       <r>    3.4919    1.0000 </r>
       <r>    3.4919    1.0000 </r>
       <r>    7.1850    0.0000 </r>
       <r>    7.1850    0.0000 </r>
       <r>   10.0790    0.0000 </r>
       <r>   10.0790    0.0000 </r>
       <r>   11.2991    0.0000 </r>
      </set>
     </set>
     <set comment="spin 2">
      <set comment="kpoint 1">
       <r>   -6.1636    1.0000 </r>
       <r>   -3.8820    1.0000 </r>
       <r>   -1.2191    1.0000 </r>
       <r>    4.4769    1.0000 </r>
       <r>    4.4769    1.0000 </r>
       <r>    5.6595    1.0000 </r>
       <r>    5.6595    1.0000 </r>
       <r>    5.6595    1.0000 </r>
       <r>    7.1192    0.0000 </r>
       <r>    8.1985    0.0000 </r>
       <r>    8.1985    0.0000 </r>
       <r>    8.1985    0.0000 </r>
       <r>    8.7962    0.0000 </r>
      </set>
      <set comment="kpoint 2">
       <r>   -5.3781    1.0000 </r>
       <r>   -3.4970    1.0000 </r>
       <r>   -0.6695    1.0000 </r>
       <r>    1.7669    1.0000 </r>
       <r>    2.1862    1.0000 </r>
       <r>    3.4918    1.0000 </r>
       <r>    4.9109    1.0000 </r>
       <r>    4.9110    1.0000 </r>
       <r>    7.1849    0.0000 </r>
       <r>    7.6107    0.0000 </r>
       <r>    9.1331    0.0000 </r>
       <r>    9.1331    0.0000 </r>
       <r>   10.0789    0.0000 </r>
      </set>
      <set comment="kpoint 3">
       <r>   -3.8819    1.0000 </r>
       <r>   -2.0918    1.0000 </r>
       <r>   -2.0918    1.0000 </r>
       <r>   -1.2191    1.0000 </r>
       <r>    2.8560    1.0000 </r>
       <r>    2.8560    1.0000 </r>
       <r>    4.4769    1.0000 </r>
       <r>    4.4769    1.0000 </r>
       <r>    6.3940    0.0000 </r>
       <r>    6.3940    0.0000 </r>
       <r>    7.1192    0.0000 </r>
       <r>    8.9886    0.0000 </r>
       <r>    8.9886    0.0000 </r>
      </set>
      <set comment="kpoint 4">
       <r>   -5.1003    1.0000 </r>
       <r>   -4.1577    1.0000 </r>
       <r>    0.2158    1.0000 </r>
       <r>    1.9782    1.0000 </r>
       <r>    2.1400    1.0000 </r>
       <r>    3.8031    1.0000 </r>
       <r>    3.8031    1.0000 </r>
       <r>    4.3520    1.0000 </r>
       <r>    6.7952    0.0000 </r>
       <r>    8.0818    0.0000 </r>
       <r>    8.7778    0.0000 </r>
       <r>   10.3916    0.0000 </r>
       <r>   10.7397    0.0000 </r>
      </set>
      <set comment="kpoint 5">
       <r>   -3.4970    1.0000 </r>
       <r>   -3.4970    1.0000 </r>
       <r>   -0.6695    1.0000 </r>
       <r>   -0.6695    1.0000 </r>
       <r>    2.1862    1.0000 </r>
       <r>    2.1862    1.0000 </r>
       <r>    3.4918    1.0000 </r>
       <r>    3.4918    1.0000 </r>
       <r>    7.1849    0.0000 </r>
       <r>    7.1849    0.0000 </r>
       <r>   10.0789    0.0000 </r>
       <r>   10.0789    0.0000 </r>
       <r>   11.2990    0.0000 </r>
      </set>
      <set comment="kpoint 6">
       <r>   -4.1577    1.0000 </r>
       <r>   -1.9363    1.0000 </r>
       <r>   -1.9363    1.0000 </r>
       <r>    0.2158    1.0000 </r>
       <r>    1.8854    1.0000 </r>
       <r>    1.8854    1.0000 </r>
       <r>    1.9782    1.0000 </r>
       <r>    4.3520    1.0000 </r>
       <r>    8.0818    0.0000 </r>
       <r>    9.9190    0.0000 </r>
       <r>    9.9190    0.0000 </r>
       <r>   10.3916    0.0000 </r>
       <r>   10.5772    0.0000 </r>
      </set>
      <set comment="kpoint 7">
       <r>   -5.3781    1.0000 </r>
       <r>   -5.3781    1.0000 </r>
       <r>    1.7669    1.0000 </r>
       <r>    1.7669    1.0000 </r>
       <r>    4.9109    1.0000 </r>
       <r>    4.9109    1.0000 </r>
       <r>    4.9109    1.0000 </r>
       <r>    4.9109    1.0000 </r>
       <r>    7.6107    0.0000 </r>
       <r>    7.6107    0.0000 </r>
       <r>    9.1331    0.0000 </r>
       <r>    9.1331    0.0000 </r>
       <r>    9.1331    0.0000 </r>
      </set>
      <set comment="kpoint 8">
       <r>   -3.4970    1.0000 </r>
       <r>   -3.4970    1.0000 </r>
       <r>   -0.6695    1.0000 </r>
       <r>   -0.6695    1.0000 </r>
       <r>    2.1862    1.0000 </r>
       <r>    2.1862    1.0000 </r>
       <r>    3.4918    1.0000 </r>
       <r>    3.4918    1.0000 </r>
       <r>    7.1849    0.0000 </r>
       <r>    7.1849    0.0000 </r>
       <r>   10.0789    0.0000 </r>
       <r>   10.0789    0.0000 </r>
       <r>   11.2990    0.0000 </r>
      </set>
     </set>
    </set>
   </array>
  </eigenvalues>
  <separator name="orbital magnetization" >
   <v name="MAGDIPOLOUT">      0.00000000      0.00000000      0.00000000</v>
  </separator>
  <dos>
   <i name="efermi">      6.39381463 </i>
   <total>
    <array>
     <dimension dim="1">gridpoints</dimension>
     <dimension dim="2">spin</dimension>
     <field>energy</field>
     <field>total</field>
     <field>integrated</field>
     <set>
      <set comment="spin 1">
       <r>    -7.0367     0.0000     0.0000 </r>
       <r>    -6.9727     0.0000     0.0000 </r>
       <r>    -6.9087     0.0000     0.0000 </r>
       <r>    -6.8446     0.0000     0.0000 </r>
       <r>    -6.7806     0.0000     0.0000 </r>
       <r>    -6.7166     0.0000     0.0000 </r>
       <r>    -6.6525     0.0000     0.0000 </r>
       <r>    -6.5885     0.0000     0.0000 </r>
       <r>    -6.5245     0.0000     0.0000 </r>
       <r>    -6.4604     0.0000     0.0000 </r>
       <r>    -6.3964     0.0000     0.0000 </r>
       <r>    -6.3324     0.0000     0.0000 </r>
       <r>    -6.2684     0.0000     0.0000 </r>
       <r>    -6.2043     0.0000     0.0000 </r>
       <r>    -6.1403     0.0003     0.0000 </r>
       <r>    -6.0763     0.0044     0.0001 </r>
       <r>    -6.0122     0.0131     0.0007 </r>
       <r>    -5.9482     0.0265     0.0019 </r>
       <r>    -5.8842     0.0446     0.0042 </r>
       <r>    -5.8202     0.0674     0.0077 </r>
       <r>    -5.7561     0.0949     0.0129 </r>
       <r>    -5.6921     0.1270     0.0200 </r>
       <r>    -5.6281     0.1639     0.0293 </r>
       <r>    -5.5640     0.2054     0.0411 </r>
       <r>    -5.5000     0.2517     0.0557 </r>
       <r>    -5.4360     0.3026     0.0734 </r>
       <r>    -5.3719     0.3731     0.0946 </r>
       <r>    -5.3079     0.5290     0.1240 </r>
       <r>    -5.2439     0.5781     0.1600 </r>
       <r>    -5.1799     0.5205     0.1958 </r>
       <r>    -5.1158     0.3562     0.2244 </r>
       <r>    -5.0518     0.3106     0.2443 </r>
       <r>    -4.9878     0.3255     0.2647 </r>
       <r>    -4.9237     0.3415     0.2860 </r>
       <r>    -4.8597     0.3585     0.3084 </r>
       <r>    -4.7957     0.3766     0.3319 </r>
       <r>    -4.7316     0.3958     0.3567 </r>
       <r>    -4.6676     0.4160     0.3826 </r>
       <r>    -4.6036     0.4372     0.4100 </r>
       <r>    -4.5396     0.4596     0.4387 </r>
       <r>    -4.4755     0.4830     0.4688 </r>
       <r>    -4.4115     0.5074     0.5005 </r>
       <r>    -4.3475     0.5329     0.5338 </r>
       <r>    -4.2834     0.5595     0.5688 </r>
       <r>    -4.2194     0.5872     0.6055 </r>
       <r>    -4.1554     0.6207     0.6440 </r>
       <r>    -4.0914     0.7835     0.6890 </r>
       <r>    -4.0273     0.9432     0.7443 </r>
       <r>    -3.9633     1.0999     0.8097 </r>
       <r>    -3.8993     1.2535     0.8851 </r>
       <r>    -3.8352     1.3801     0.9698 </r>
       <r>    -3.7712     1.4167     1.0598 </r>
       <r>    -3.7072     1.3602     1.1492 </r>
       <r>    -3.6431     1.2104     1.2320 </r>
       <r>    -3.5791     0.9673     1.3022 </r>
       <r>    -3.5151     0.6311     1.3539 </r>
       <r>    -3.4511     0.5321     1.3885 </r>
       <r>    -3.3870     0.5470     1.4230 </r>
       <r>    -3.3230     0.5585     1.4585 </r>
       <r>    -3.2590     0.5664     1.4945 </r>
       <r>    -3.1949     0.5709     1.5309 </r>
       <r>    -3.1309     0.5718     1.5675 </r>
       <r>    -3.0669     0.5691     1.6041 </r>
       <r>    -3.0028     0.5630     1.6403 </r>
       <r>    -2.9388     0.5533     1.6761 </r>
       <r>    -2.8748     0.5402     1.7111 </r>
       <r>    -2.8108     0.5235     1.7452 </r>
       <r>    -2.7467     0.5033     1.7781 </r>
       <r>    -2.6827     0.4795     1.8096 </r>
       <r>    -2.6187     0.4523     1.8394 </r>
       <r>    -2.5546     0.4215     1.8674 </r>
       <r>    -2.4906     0.3872     1.8933 </r>
       <r>    -2.4266     0.3494     1.9169 </r>
       <r>    -2.3626     0.3080     1.9380 </r>
       <r>    -2.2985     0.2632     1.9563 </r>
       <r>    -2.2345     0.2148     1.9716 </r>
       <r>    -2.1705     0.1629     1.9837 </r>
       <r>    -2.1064     0.1075     1.9924 </r>
       <r>    -2.0424     0.0603     1.9976 </r>
       <r>    -1.9784     0.0481     2.0009 </r>
       <r>    -1.9143     0.0863     2.0047 </r>
       <r>    -1.8503     0.1605     2.0126 </r>
       <r>    -1.7863     0.2291     2.0251 </r>
       <r>    -1.7223     0.2919     2.0418 </r>
       <r>    -1.6582     0.3491     2.0624 </r>
       <r>    -1.5942     0.4006     2.0864 </r>
       <r>    -1.5302     0.4464     2.1136 </r>
       <r>    -1.4661     0.4866     2.1435 </r>
       <r>    -1.4021     0.5210     2.1758 </r>
       <r>    -1.3381     0.5498     2.2101 </r>
       <r>    -1.2740     0.5729     2.2461 </r>
       <r>    -1.2100     0.5905     2.2833 </r>
       <r>    -1.1460     0.6115     2.3218 </r>
       <r>    -1.0820     0.6413     2.3618 </r>
       <r>    -1.0179     0.6800     2.4041 </r>
       <r>    -0.9539     0.7274     2.4491 </r>
       <r>    -0.8899     0.7837     2.4974 </r>
       <r>    -0.8258     0.8487     2.5496 </r>
       <r>    -0.7618     0.9226     2.6063 </r>
       <r>    -0.6978     1.0053     2.6680 </r>
       <r>    -0.6337     1.0371     2.7342 </r>
       <r>    -0.5697     1.0194     2.8000 </r>
       <r>    -0.5057     0.9963     2.8646 </r>
       <r>    -0.4417     0.9678     2.9275 </r>
       <r>    -0.3776     0.9339     2.9884 </r>
       <r>    -0.3136     0.8945     3.0470 </r>
       <r>    -0.2496     0.8498     3.1028 </r>
       <r>    -0.1855     0.7996     3.1557 </r>
       <r>    -0.1215     0.7441     3.2051 </r>
       <r>    -0.0575     0.6831     3.2509 </r>
       <r>     0.0065     0.6168     3.2925 </r>
       <r>     0.0706     0.5450     3.3297 </r>
       <r>     0.1346     0.4678     3.3622 </r>
       <r>     0.1986     0.3852     3.3895 </r>
       <r>     0.2627     0.3533     3.4127 </r>
       <r>     0.3267     0.3415     3.4349 </r>
       <r>     0.3907     0.3302     3.4564 </r>
       <r>     0.4548     0.3193     3.4772 </r>
       <r>     0.5188     0.3089     3.4973 </r>
       <r>     0.5828     0.2989     3.5168 </r>
       <r>     0.6468     0.2894     3.5356 </r>
       <r>     0.7109     0.2803     3.5539 </r>
       <r>     0.7749     0.2716     3.5715 </r>
       <r>     0.8389     0.2634     3.5887 </r>
       <r>     0.9030     0.2557     3.6053 </r>
       <r>     0.9670     0.2483     3.6214 </r>
       <r>     1.0310     0.2415     3.6371 </r>
       <r>     1.0951     0.2350     3.6523 </r>
       <r>     1.1591     0.2290     3.6672 </r>
       <r>     1.2231     0.2235     3.6817 </r>
       <r>     1.2871     0.2184     3.6958 </r>
       <r>     1.3512     0.2137     3.7097 </r>
       <r>     1.4152     0.2095     3.7232 </r>
       <r>     1.4792     0.2057     3.7365 </r>
       <r>     1.5433     0.2024     3.7496 </r>
       <r>     1.6073     0.1995     3.7624 </r>
       <r>     1.6713     0.1971     3.7751 </r>
       <r>     1.7353     0.1951     3.7877 </r>
       <r>     1.7994     0.4269     3.8041 </r>
       <r>     1.8634     0.6280     3.8397 </r>
       <r>     1.9274     1.1678     3.8916 </r>
       <r>     1.9915     1.8042     3.9856 </r>
       <r>     2.0555     2.7494     4.1317 </r>
       <r>     2.1195     3.6339     4.3364 </r>
       <r>     2.1836     2.8986     4.6294 </r>
       <r>     2.2476     1.9884     4.7651 </r>
       <r>     2.3116     1.7736     4.8854 </r>
       <r>     2.3756     1.5821     4.9927 </r>
       <r>     2.4397     1.4139     5.0885 </r>
       <r>     2.5037     1.2690     5.1743 </r>
       <r>     2.5677     1.1475     5.2515 </r>
       <r>     2.6318     1.0493     5.3217 </r>
       <r>     2.6958     0.9744     5.3864 </r>
       <r>     2.7598     0.9229     5.4470 </r>
       <r>     2.8239     0.8946     5.5051 </r>
       <r>     2.8879     0.8868     5.5621 </r>
       <r>     2.9519     0.8818     5.6187 </r>
       <r>     3.0159     0.8765     5.6750 </r>
       <r>     3.0800     0.8711     5.7309 </r>
       <r>     3.1440     0.8655     5.7865 </r>
       <r>     3.2080     0.8596     5.8418 </r>
       <r>     3.2721     0.8536     5.8966 </r>
       <r>     3.3361     0.8474     5.9511 </r>
       <r>     3.4001     0.8410     6.0051 </r>
       <r>     3.4641     0.8344     6.0588 </r>
       <r>     3.5282     0.9313     6.1139 </r>
       <r>     3.5922     1.0983     6.1789 </r>
       <r>     3.6562     1.2539     6.2543 </r>
       <r>     3.7203     1.3981     6.3392 </r>
       <r>     3.7843     1.5308     6.4331 </r>
       <r>     3.8483     1.5996     6.5338 </r>
       <r>     3.9124     1.6293     6.6373 </r>
       <r>     3.9764     1.6406     6.7421 </r>
       <r>     4.0404     1.6337     6.8470 </r>
       <r>     4.1044     1.6085     6.9509 </r>
       <r>     4.1685     1.5651     7.0526 </r>
       <r>     4.2325     1.5033     7.1510 </r>
       <r>     4.2965     1.4233     7.2447 </r>
       <r>     4.3606     1.3382     7.3329 </r>
       <r>     4.4246     1.3013     7.4177 </r>
       <r>     4.4886     1.2130     7.4984 </r>
       <r>     4.5527     1.1078     7.5727 </r>
       <r>     4.6167     1.0034     7.6403 </r>
       <r>     4.6807     0.9000     7.7012 </r>
       <r>     4.7447     0.7975     7.7556 </r>
       <r>     4.8088     0.6960     7.8034 </r>
       <r>     4.8728     0.5953     7.8447 </r>
       <r>     4.9368     0.4994     7.8797 </r>
       <r>     5.0009     0.4148     7.9089 </r>
       <r>     5.0649     0.3381     7.9330 </r>
       <r>     5.1289     0.2692     7.9524 </r>
       <r>     5.1930     0.2082     7.9676 </r>
       <r>     5.2570     0.1549     7.9792 </r>
       <r>     5.3210     0.1096     7.9876 </r>
       <r>     5.3850     0.0721     7.9934 </r>
       <r>     5.4491     0.0424     7.9970 </r>
       <r>     5.5131     0.0205     7.9990 </r>
       <r>     5.5771     0.0065     7.9998 </r>
       <r>     5.6412     0.0003     8.0000 </r>
       <r>     5.7052     0.0000     8.0000 </r>
       <r>     5.7692     0.0000     8.0000 </r>
       <r>     5.8332     0.0000     8.0000 </r>
       <r>     5.8973     0.0000     8.0000 </r>
       <r>     5.9613     0.0000     8.0000 </r>
       <r>     6.0253     0.0000     8.0000 </r>
       <r>     6.0894     0.0000     8.0000 </r>
       <r>     6.1534     0.0000     8.0000 </r>
       <r>     6.2174     0.0000     8.0000 </r>
       <r>     6.2815     0.0000     8.0000 </r>
       <r>     6.3455     0.0000     8.0000 </r>
       <r>     6.4095     0.0007     8.0000 </r>
       <r>     6.4735     0.0175     8.0005 </r>
       <r>     6.5376     0.0571     8.0027 </r>
       <r>     6.6016     0.1195     8.0083 </r>
       <r>     6.6656     0.2048     8.0185 </r>
       <r>     6.7297     0.3127     8.0350 </r>
       <r>     6.7937     0.4435     8.0591 </r>
       <r>     6.8577     0.8043     8.0989 </r>
       <r>     6.9218     1.1508     8.1616 </r>
       <r>     6.9858     1.4769     8.2459 </r>
       <r>     7.0498     1.7827     8.3503 </r>
       <r>     7.1138     2.0682     8.4737 </r>
       <r>     7.1779     1.8126     8.6046 </r>
       <r>     7.2419     1.5670     8.7102 </r>
       <r>     7.3059     1.4276     8.8060 </r>
       <r>     7.3700     1.3060     8.8934 </r>
       <r>     7.4340     1.2023     8.9736 </r>
       <r>     7.4980     1.1164     9.0477 </r>
       <r>     7.5620     1.0483     9.1169 </r>
       <r>     7.6261     1.0681     9.1829 </r>
       <r>     7.6901     1.2624     9.2580 </r>
       <r>     7.7541     1.3706     9.3427 </r>
       <r>     7.8182     1.3928     9.4317 </r>
       <r>     7.8822     1.3288     9.5192 </r>
       <r>     7.9462     1.1787     9.6000 </r>
       <r>     8.0103     0.9425     9.6683 </r>
       <r>     8.0743     0.6202     9.7188 </r>
       <r>     8.1383     0.4734     9.7527 </r>
       <r>     8.2023     0.4294     9.7812 </r>
       <r>     8.2664     0.4244     9.8085 </r>
       <r>     8.3304     0.4281     9.8357 </r>
       <r>     8.3944     0.4406     9.8635 </r>
       <r>     8.4585     0.4617     9.8923 </r>
       <r>     8.5225     0.4917     9.9228 </r>
       <r>     8.5865     0.5303     9.9555 </r>
       <r>     8.6506     0.5777     9.9909 </r>
       <r>     8.7146     0.6339    10.0297 </r>
       <r>     8.7786     0.7011    10.0723 </r>
       <r>     8.8426     0.9627    10.1261 </r>
       <r>     8.9067     1.1274    10.1935 </r>
       <r>     8.9707     1.1952    10.2684 </r>
       <r>     9.0347     1.1727    10.3446 </r>
       <r>     9.0988     1.0776    10.4170 </r>
       <r>     9.1628     1.0288    10.4828 </r>
       <r>     9.2268     1.0944    10.5508 </r>
       <r>     9.2908     1.1560    10.6228 </r>
       <r>     9.3549     1.2139    10.6987 </r>
       <r>     9.4189     1.2678    10.7782 </r>
       <r>     9.4829     1.3179    10.8610 </r>
       <r>     9.5470     1.3640    10.9469 </r>
       <r>     9.6110     1.4064    11.0356 </r>
       <r>     9.6750     1.4448    11.1269 </r>
       <r>     9.7391     1.4793    11.2205 </r>
       <r>     9.8031     1.5100    11.3163 </r>
       <r>     9.8671     1.5368    11.4138 </r>
       <r>     9.9311     1.8838    11.5150 </r>
       <r>     9.9952     2.7090    11.6704 </r>
       <r>    10.0592     1.9547    11.8282 </r>
       <r>    10.1232     1.7682    11.9323 </r>
       <r>    10.1873     2.0287    12.0556 </r>
       <r>    10.2513     1.9693    12.1853 </r>
       <r>    10.3153     1.5898    12.3009 </r>
       <r>    10.3794     0.8904    12.3820 </r>
       <r>    10.4434     0.7392    12.4297 </r>
       <r>    10.5074     0.7539    12.4776 </r>
       <r>    10.5714     0.7574    12.5260 </r>
       <r>    10.6355     0.8287    12.5766 </r>
       <r>    10.6995     0.8866    12.6317 </r>
       <r>    10.7635     0.9066    12.6895 </r>
       <r>    10.8276     0.8781    12.7468 </r>
       <r>    10.8916     0.8279    12.8015 </r>
       <r>    10.9556     0.7560    12.8523 </r>
       <r>    11.0197     0.6624    12.8978 </r>
       <r>    11.0837     0.5471    12.9367 </r>
       <r>    11.1477     0.4101    12.9674 </r>
       <r>    11.2117     0.2514    12.9887 </r>
       <r>    11.2758     0.0710    12.9992 </r>
       <r>    11.3398     0.0000    13.0000 </r>
       <r>    11.4038     0.0000    13.0000 </r>
       <r>    11.4679     0.0000    13.0000 </r>
       <r>    11.5319     0.0000    13.0000 </r>
       <r>    11.5959     0.0000    13.0000 </r>
       <r>    11.6599     0.0000    13.0000 </r>
       <r>    11.7240     0.0000    13.0000 </r>
       <r>    11.7880     0.0000    13.0000 </r>
       <r>    11.8520     0.0000    13.0000 </r>
       <r>    11.9161     0.0000    13.0000 </r>
       <r>    11.9801     0.0000    13.0000 </r>
       <r>    12.0441     0.0000    13.0000 </r>
       <r>    12.1082     0.0000    13.0000 </r>
       <r>    12.1722     0.0000    13.0000 </r>
      </set>
      <set comment="spin 2">
       <r>    -7.0367     0.0000     0.0000 </r>
       <r>    -6.9727     0.0000     0.0000 </r>
       <r>    -6.9087     0.0000     0.0000 </r>
       <r>    -6.8446     0.0000     0.0000 </r>
       <r>    -6.7806     0.0000     0.0000 </r>
       <r>    -6.7166     0.0000     0.0000 </r>
       <r>    -6.6525     0.0000     0.0000 </r>
       <r>    -6.5885     0.0000     0.0000 </r>
       <r>    -6.5245     0.0000     0.0000 </r>
       <r>    -6.4604     0.0000     0.0000 </r>
       <r>    -6.3964     0.0000     0.0000 </r>
       <r>    -6.3324     0.0000     0.0000 </r>
       <r>    -6.2684     0.0000     0.0000 </r>
       <r>    -6.2043     0.0000     0.0000 </r>
       <r>    -6.1403     0.0003     0.0000 </r>
       <r>    -6.0763     0.0044     0.0001 </r>
       <r>    -6.0122     0.0131     0.0007 </r>
       <r>    -5.9482     0.0265     0.0019 </r>
       <r>    -5.8842     0.0446     0.0042 </r>
       <r>    -5.8202     0.0674     0.0077 </r>
       <r>    -5.7561     0.0949     0.0129 </r>
       <r>    -5.6921     0.1271     0.0200 </r>
       <r>    -5.6281     0.1639     0.0293 </r>
       <r>    -5.5640     0.2055     0.0411 </r>
       <r>    -5.5000     0.2517     0.0557 </r>
       <r>    -5.4360     0.3026     0.0734 </r>
       <r>    -5.3719     0.3732     0.0946 </r>
       <r>    -5.3079     0.5290     0.1240 </r>
       <r>    -5.2439     0.5781     0.1600 </r>
       <r>    -5.1799     0.5204     0.1958 </r>
       <r>    -5.1158     0.3560     0.2244 </r>
       <r>    -5.0518     0.3106     0.2443 </r>
       <r>    -4.9878     0.3255     0.2647 </r>
       <r>    -4.9237     0.3415     0.2860 </r>
       <r>    -4.8597     0.3585     0.3084 </r>
       <r>    -4.7957     0.3766     0.3320 </r>
       <r>    -4.7316     0.3958     0.3567 </r>
       <r>    -4.6676     0.4160     0.3827 </r>
       <r>    -4.6036     0.4372     0.4100 </r>
       <r>    -4.5396     0.4596     0.4387 </r>
       <r>    -4.4755     0.4830     0.4688 </r>
       <r>    -4.4115     0.5074     0.5005 </r>
       <r>    -4.3475     0.5329     0.5339 </r>
       <r>    -4.2834     0.5595     0.5688 </r>
       <r>    -4.2194     0.5872     0.6055 </r>
       <r>    -4.1554     0.6207     0.6440 </r>
       <r>    -4.0914     0.7835     0.6890 </r>
       <r>    -4.0273     0.9433     0.7443 </r>
       <r>    -3.9633     1.0999     0.8097 </r>
       <r>    -3.8993     1.2535     0.8851 </r>
       <r>    -3.8352     1.3801     0.9698 </r>
       <r>    -3.7712     1.4167     1.0599 </r>
       <r>    -3.7072     1.3601     1.1493 </r>
       <r>    -3.6431     1.2103     1.2320 </r>
       <r>    -3.5791     0.9672     1.3023 </r>
       <r>    -3.5151     0.6310     1.3539 </r>
       <r>    -3.4511     0.5321     1.3885 </r>
       <r>    -3.3870     0.5470     1.4231 </r>
       <r>    -3.3230     0.5585     1.4585 </r>
       <r>    -3.2590     0.5664     1.4945 </r>
       <r>    -3.1949     0.5709     1.5309 </r>
       <r>    -3.1309     0.5718     1.5675 </r>
       <r>    -3.0669     0.5691     1.6041 </r>
       <r>    -3.0028     0.5630     1.6403 </r>
       <r>    -2.9388     0.5533     1.6761 </r>
       <r>    -2.8748     0.5402     1.7111 </r>
       <r>    -2.8108     0.5235     1.7452 </r>
       <r>    -2.7467     0.5032     1.7781 </r>
       <r>    -2.6827     0.4795     1.8096 </r>
       <r>    -2.6187     0.4523     1.8394 </r>
       <r>    -2.5546     0.4215     1.8674 </r>
       <r>    -2.4906     0.3872     1.8933 </r>
       <r>    -2.4266     0.3494     1.9169 </r>
       <r>    -2.3626     0.3080     1.9380 </r>
       <r>    -2.2985     0.2632     1.9563 </r>
       <r>    -2.2345     0.2148     1.9716 </r>
       <r>    -2.1705     0.1629     1.9837 </r>
       <r>    -2.1064     0.1075     1.9924 </r>
       <r>    -2.0424     0.0603     1.9976 </r>
       <r>    -1.9784     0.0481     2.0009 </r>
       <r>    -1.9143     0.0863     2.0047 </r>
       <r>    -1.8503     0.1606     2.0126 </r>
       <r>    -1.7863     0.2291     2.0251 </r>
       <r>    -1.7223     0.2920     2.0418 </r>
       <r>    -1.6582     0.3491     2.0624 </r>
       <r>    -1.5942     0.4006     2.0864 </r>
       <r>    -1.5302     0.4465     2.1136 </r>
       <r>    -1.4661     0.4866     2.1435 </r>
       <r>    -1.4021     0.5210     2.1758 </r>
       <r>    -1.3381     0.5498     2.2101 </r>
       <r>    -1.2740     0.5729     2.2461 </r>
       <r>    -1.2100     0.5905     2.2833 </r>
       <r>    -1.1460     0.6115     2.3218 </r>
       <r>    -1.0820     0.6414     2.3618 </r>
       <r>    -1.0179     0.6800     2.4041 </r>
       <r>    -0.9539     0.7275     2.4491 </r>
       <r>    -0.8899     0.7837     2.4974 </r>
       <r>    -0.8258     0.8488     2.5497 </r>
       <r>    -0.7618     0.9227     2.6063 </r>
       <r>    -0.6978     1.0053     2.6680 </r>
       <r>    -0.6337     1.0371     2.7342 </r>
       <r>    -0.5697     1.0194     2.8001 </r>
       <r>    -0.5057     0.9963     2.8646 </r>
       <r>    -0.4417     0.9678     2.9275 </r>
       <r>    -0.3776     0.9338     2.9884 </r>
       <r>    -0.3136     0.8945     3.0470 </r>
       <r>    -0.2496     0.8498     3.1029 </r>
       <r>    -0.1855     0.7996     3.1557 </r>
       <r>    -0.1215     0.7441     3.2052 </r>
       <r>    -0.0575     0.6831     3.2509 </r>
       <r>     0.0065     0.6167     3.2925 </r>
       <r>     0.0706     0.5450     3.3297 </r>
       <r>     0.1346     0.4678     3.3622 </r>
       <r>     0.1986     0.3852     3.3895 </r>
       <r>     0.2627     0.3533     3.4127 </r>
       <r>     0.3267     0.3415     3.4349 </r>
       <r>     0.3907     0.3302     3.4564 </r>
       <r>     0.4548     0.3193     3.4772 </r>
       <r>     0.5188     0.3089     3.4974 </r>
       <r>     0.5828     0.2989     3.5168 </r>
       <r>     0.6468     0.2894     3.5356 </r>
       <r>     0.7109     0.2803     3.5539 </r>
       <r>     0.7749     0.2716     3.5715 </r>
       <r>     0.8389     0.2634     3.5887 </r>
       <r>     0.9030     0.2557     3.6053 </r>
       <r>     0.9670     0.2483     3.6214 </r>
       <r>     1.0310     0.2415     3.6371 </r>
       <r>     1.0951     0.2350     3.6524 </r>
       <r>     1.1591     0.2290     3.6672 </r>
       <r>     1.2231     0.2235     3.6817 </r>
       <r>     1.2871     0.2184     3.6958 </r>
       <r>     1.3512     0.2137     3.7097 </r>
       <r>     1.4152     0.2095     3.7232 </r>
       <r>     1.4792     0.2057     3.7365 </r>
       <r>     1.5433     0.2024     3.7496 </r>
       <r>     1.6073     0.1995     3.7624 </r>
       <r>     1.6713     0.1971     3.7751 </r>
       <r>     1.7353     0.1951     3.7877 </r>
       <r>     1.7994     0.4272     3.8042 </r>
       <r>     1.8634     0.6281     3.8398 </r>
       <r>     1.9274     1.1689     3.8917 </r>
       <r>     1.9915     1.8054     3.9857 </r>
       <r>     2.0555     2.7502     4.1319 </r>
       <r>     2.1195     3.6342     4.3366 </r>
       <r>     2.1836     2.8823     4.6296 </r>
       <r>     2.2476     1.9881     4.7653 </r>
       <r>     2.3116     1.7733     4.8856 </r>
       <r>     2.3756     1.5818     4.9928 </r>
       <r>     2.4397     1.4137     5.0886 </r>
       <r>     2.5037     1.2689     5.1744 </r>
       <r>     2.5677     1.1474     5.2516 </r>
       <r>     2.6318     1.0492     5.3218 </r>
       <r>     2.6958     0.9744     5.3865 </r>
       <r>     2.7598     0.9228     5.4471 </r>
       <r>     2.8239     0.8946     5.5051 </r>
       <r>     2.8879     0.8868     5.5621 </r>
       <r>     2.9519     0.8817     5.6187 </r>
       <r>     3.0159     0.8765     5.6750 </r>
       <r>     3.0800     0.8711     5.7310 </r>
       <r>     3.1440     0.8654     5.7866 </r>
       <r>     3.2080     0.8596     5.8418 </r>
       <r>     3.2721     0.8536     5.8966 </r>
       <r>     3.3361     0.8474     5.9511 </r>
       <r>     3.4001     0.8410     6.0052 </r>
       <r>     3.4641     0.8344     6.0588 </r>
       <r>     3.5282     0.9314     6.1139 </r>
       <r>     3.5922     1.0984     6.1789 </r>
       <r>     3.6562     1.2540     6.2543 </r>
       <r>     3.7203     1.3981     6.3393 </r>
       <r>     3.7843     1.5309     6.4331 </r>
       <r>     3.8483     1.5996     6.5339 </r>
       <r>     3.9124     1.6293     6.6374 </r>
       <r>     3.9764     1.6406     6.7422 </r>
       <r>     4.0404     1.6337     6.8471 </r>
       <r>     4.1044     1.6085     6.9510 </r>
       <r>     4.1685     1.5650     7.0527 </r>
       <r>     4.2325     1.5033     7.1510 </r>
       <r>     4.2965     1.4233     7.2448 </r>
       <r>     4.3606     1.3382     7.3329 </r>
       <r>     4.4246     1.3013     7.4177 </r>
       <r>     4.4886     1.2129     7.4985 </r>
       <r>     4.5527     1.1077     7.5728 </r>
       <r>     4.6167     1.0034     7.6403 </r>
       <r>     4.6807     0.9000     7.7013 </r>
       <r>     4.7447     0.7975     7.7556 </r>
       <r>     4.8088     0.6959     7.8034 </r>
       <r>     4.8728     0.5953     7.8447 </r>
       <r>     4.9368     0.4993     7.8797 </r>
       <r>     5.0009     0.4148     7.9089 </r>
       <r>     5.0649     0.3381     7.9330 </r>
       <r>     5.1289     0.2692     7.9524 </r>
       <r>     5.1930     0.2081     7.9676 </r>
       <r>     5.2570     0.1549     7.9792 </r>
       <r>     5.3210     0.1096     7.9876 </r>
       <r>     5.3850     0.0720     7.9934 </r>
       <r>     5.4491     0.0423     7.9970 </r>
       <r>     5.5131     0.0205     7.9990 </r>
       <r>     5.5771     0.0065     7.9998 </r>
       <r>     5.6412     0.0003     8.0000 </r>
       <r>     5.7052     0.0000     8.0000 </r>
       <r>     5.7692     0.0000     8.0000 </r>
       <r>     5.8332     0.0000     8.0000 </r>
       <r>     5.8973     0.0000     8.0000 </r>
       <r>     5.9613     0.0000     8.0000 </r>
       <r>     6.0253     0.0000     8.0000 </r>
       <r>     6.0894     0.0000     8.0000 </r>
       <r>     6.1534     0.0000     8.0000 </r>
       <r>     6.2174     0.0000     8.0000 </r>
       <r>     6.2815     0.0000     8.0000 </r>
       <r>     6.3455     0.0000     8.0000 </r>
       <r>     6.4095     0.0007     8.0000 </r>
       <r>     6.4735     0.0176     8.0005 </r>
       <r>     6.5376     0.0573     8.0027 </r>
       <r>     6.6016     0.1197     8.0083 </r>
       <r>     6.6656     0.2050     8.0186 </r>
       <r>     6.7297     0.3130     8.0350 </r>
       <r>     6.7937     0.4438     8.0591 </r>
       <r>     6.8577     0.8050     8.0990 </r>
       <r>     6.9218     1.1515     8.1618 </r>
       <r>     6.9858     1.4775     8.2461 </r>
       <r>     7.0498     1.7832     8.3506 </r>
       <r>     7.1138     2.0686     8.4740 </r>
       <r>     7.1779     1.8106     8.6048 </r>
       <r>     7.2419     1.5667     8.7104 </r>
       <r>     7.3059     1.4273     8.8061 </r>
       <r>     7.3700     1.3058     8.8935 </r>
       <r>     7.4340     1.2021     8.9737 </r>
       <r>     7.4980     1.1162     9.0479 </r>
       <r>     7.5620     1.0482     9.1171 </r>
       <r>     7.6261     1.0681     9.1830 </r>
       <r>     7.6901     1.2624     9.2581 </r>
       <r>     7.7541     1.3706     9.3428 </r>
       <r>     7.8182     1.3927     9.4318 </r>
       <r>     7.8822     1.3286     9.5193 </r>
       <r>     7.9462     1.1785     9.6001 </r>
       <r>     8.0103     0.9422     9.6684 </r>
       <r>     8.0743     0.6198     9.7189 </r>
       <r>     8.1383     0.4734     9.7528 </r>
       <r>     8.2023     0.4294     9.7813 </r>
       <r>     8.2664     0.4244     9.8085 </r>
       <r>     8.3304     0.4281     9.8358 </r>
       <r>     8.3944     0.4405     9.8636 </r>
       <r>     8.4585     0.4617     9.8924 </r>
       <r>     8.5225     0.4917     9.9229 </r>
       <r>     8.5865     0.5304     9.9555 </r>
       <r>     8.6506     0.5778     9.9910 </r>
       <r>     8.7146     0.6339    10.0297 </r>
       <r>     8.7786     0.7017    10.0723 </r>
       <r>     8.8426     0.9630    10.1262 </r>
       <r>     8.9067     1.1274    10.1936 </r>
       <r>     8.9707     1.1951    10.2685 </r>
       <r>     9.0347     1.1725    10.3447 </r>
       <r>     9.0988     1.0776    10.4171 </r>
       <r>     9.1628     1.0289    10.4829 </r>
       <r>     9.2268     1.0944    10.5508 </r>
       <r>     9.2908     1.1561    10.6229 </r>
       <r>     9.3549     1.2139    10.6988 </r>
       <r>     9.4189     1.2679    10.7783 </r>
       <r>     9.4829     1.3179    10.8611 </r>
       <r>     9.5470     1.3641    10.9470 </r>
       <r>     9.6110     1.4064    11.0357 </r>
       <r>     9.6750     1.4449    11.1270 </r>
       <r>     9.7391     1.4794    11.2207 </r>
       <r>     9.8031     1.5101    11.3164 </r>
       <r>     9.8671     1.5369    11.4140 </r>
       <r>     9.9311     1.8884    11.5152 </r>
       <r>     9.9952     2.7088    11.6708 </r>
       <r>    10.0592     1.9510    11.8284 </r>
       <r>    10.1232     1.7690    11.9325 </r>
       <r>    10.1873     2.0288    12.0558 </r>
       <r>    10.2513     1.9689    12.1854 </r>
       <r>    10.3153     1.5893    12.3011 </r>
       <r>    10.3794     0.8900    12.3821 </r>
       <r>    10.4434     0.7393    12.4298 </r>
       <r>    10.5074     0.7539    12.4777 </r>
       <r>    10.5714     0.7574    12.5261 </r>
       <r>    10.6355     0.8290    12.5768 </r>
       <r>    10.6995     0.8867    12.6318 </r>
       <r>    10.7635     0.9064    12.6897 </r>
       <r>    10.8276     0.8778    12.7469 </r>
       <r>    10.8916     0.8275    12.8016 </r>
       <r>    10.9556     0.7556    12.8524 </r>
       <r>    11.0197     0.6620    12.8979 </r>
       <r>    11.0837     0.5467    12.9367 </r>
       <r>    11.1477     0.4098    12.9675 </r>
       <r>    11.2117     0.2511    12.9887 </r>
       <r>    11.2758     0.0709    12.9992 </r>
       <r>    11.3398     0.0000    13.0000 </r>
       <r>    11.4038     0.0000    13.0000 </r>
       <r>    11.4679     0.0000    13.0000 </r>
       <r>    11.5319     0.0000    13.0000 </r>
       <r>    11.5959     0.0000    13.0000 </r>
       <r>    11.6599     0.0000    13.0000 </r>
       <r>    11.7240     0.0000    13.0000 </r>
       <r>    11.7880     0.0000    13.0000 </r>
       <r>    11.8520     0.0000    13.0000 </r>
       <r>    11.9161     0.0000    13.0000 </r>
       <r>    11.9801     0.0000    13.0000 </r>
       <r>    12.0441     0.0000    13.0000 </r>
       <r>    12.1082     0.0000    13.0000 </r>
       <r>    12.1722     0.0000    13.0000 </r>
      </set>
     </set>
    </array>
   </total>
   <partial>
    <array>
     <dimension dim="1">gridpoints</dimension>
     <dimension dim="2">spin</dimension>
     <dimension dim="3">ion</dimension>
     <field>energy</field>
     <field>    s</field>
     <field>   py</field>
     <field>   pz</field>
     <field>   px</field>
     <field>  dxy</field>
     <field>  dyz</field>
     <field>  dz2</field>
     <field>  dxz</field>
     <field>x2-y2</field>
     <set>
      <set comment="ion 1">
       <set comment="spin 1">
        <r>    -7.0367     0.0000     0.0000     0.0000     0.0000     0.0000     0.0000     0.0000     0.0000     0.0000 </r>
        <r>    -6.9727     0.0000     0.0000     0.0000     0.0000     0.0000     0.0000     0.0000     0.0000     0.0000 </r>
        <r>    -6.9087     0.0000     0.0000     0.0000     0.0000     0.0000     0.0000     0.0000     0.0000     0.0000 </r>
        <r>    -6.8446     0.0000     0.0000     0.0000     0.0000     0.0000     0.0000     0.0000     0.0000     0.0000 </r>
        <r>    -6.7806     0.0000     0.0000     0.0000     0.0000     0.0000     0.0000     0.0000     0.0000     0.0000 </r>
        <r>    -6.7166     0.0000     0.0000     0.0000     0.0000     0.0000     0.0000     0.0000     0.0000     0.0000 </r>
        <r>    -6.6525     0.0000     0.0000     0.0000     0.0000     0.0000     0.0000     0.0000     0.0000     0.0000 </r>
        <r>    -6.5885     0.0000     0.0000     0.0000     0.0000     0.0000     0.0000     0.0000     0.0000     0.0000 </r>
        <r>    -6.5245     0.0000     0.0000     0.0000     0.0000     0.0000     0.0000     0.0000     0.0000     0.0000 </r>
        <r>    -6.4604     0.0000     0.0000     0.0000     0.0000     0.0000     0.0000     0.0000     0.0000     0.0000 </r>
        <r>    -6.3964     0.0000     0.0000     0.0000     0.0000     0.0000     0.0000     0.0000     0.0000     0.0000 </r>
        <r>    -6.3324     0.0000     0.0000     0.0000     0.0000     0.0000     0.0000     0.0000     0.0000     0.0000 </r>
        <r>    -6.2684     0.0000     0.0000     0.0000     0.0000     0.0000     0.0000     0.0000     0.0000     0.0000 </r>
        <r>    -6.2043     0.0000     0.0000     0.0000     0.0000     0.0000     0.0000     0.0000     0.0000     0.0000 </r>
        <r>    -6.1403     0.0000     0.0000     0.0000     0.0000     0.0000     0.0000     0.0000     0.0000     0.0000 </r>
        <r>    -6.0763     0.0005     0.0000     0.0000     0.0000     0.0000     0.0000     0.0000     0.0000     0.0000 </r>
        <r>    -6.0122     0.0014     0.0000     0.0000     0.0000     0.0000     0.0000     0.0000     0.0000     0.0000 </r>
        <r>    -5.9482     0.0028     0.0000     0.0000     0.0000     0.0000     0.0000     0.0000     0.0000     0.0000 </r>
        <r>    -5.8842     0.0047     0.0001     0.0000     0.0001     0.0000     0.0000     0.0000     0.0000     0.0000 </r>
        <r>    -5.8202     0.0070     0.0001     0.0001     0.0001     0.0000     0.0000     0.0000     0.0000     0.0000 </r>
        <r>    -5.7561     0.0099     0.0001     0.0001     0.0001     0.0000     0.0000     0.0000     0.0000     0.0000 </r>
        <r>    -5.6921     0.0133     0.0002     0.0001     0.0002     0.0000     0.0000     0.0000     0.0000     0.0000 </r>
        <r>    -5.6281     0.0171     0.0002     0.0002     0.0002     0.0000     0.0000     0.0000     0.0000     0.0000 </r>
        <r>    -5.5640     0.0215     0.0003     0.0002     0.0002     0.0000     0.0000     0.0000     0.0000     0.0000 </r>
        <r>    -5.5000     0.0263     0.0003     0.0002     0.0003     0.0000     0.0000     0.0000     0.0000     0.0000 </r>
        <r>    -5.4360     0.0316     0.0004     0.0003     0.0004     0.0000     0.0000     0.0000     0.0000     0.0000 </r>
        <r>    -5.3719     0.0390     0.0005     0.0004     0.0005     0.0000     0.0000     0.0000     0.0000     0.0000 </r>
        <r>    -5.3079     0.0551     0.0009     0.0007     0.0008     0.0000     0.0000     0.0000     0.0000     0.0000 </r>
        <r>    -5.2439     0.0601     0.0010     0.0008     0.0010     0.0000     0.0000     0.0000     0.0000     0.0000 </r>
        <r>    -5.1799     0.0541     0.0010     0.0008     0.0010     0.0000     0.0000     0.0000     0.0000     0.0000 </r>
        <r>    -5.1158     0.0371     0.0008     0.0006     0.0008     0.0000     0.0000     0.0000     0.0000     0.0000 </r>
        <r>    -5.0518     0.0324     0.0008     0.0006     0.0007     0.0000     0.0000     0.0000     0.0000     0.0000 </r>
        <r>    -4.9878     0.0340     0.0008     0.0006     0.0008     0.0000     0.0000     0.0000     0.0000     0.0000 </r>
        <r>    -4.9237     0.0357     0.0009     0.0007     0.0008     0.0000     0.0000     0.0000     0.0000     0.0000 </r>
        <r>    -4.8597     0.0375     0.0009     0.0007     0.0009     0.0000     0.0000     0.0000     0.0000     0.0000 </r>
        <r>    -4.7957     0.0394     0.0010     0.0008     0.0010     0.0000     0.0000     0.0000     0.0000     0.0000 </r>
        <r>    -4.7316     0.0414     0.0011     0.0009     0.0010     0.0000     0.0000     0.0000     0.0000     0.0000 </r>
        <r>    -4.6676     0.0436     0.0011     0.0009     0.0011     0.0000     0.0000     0.0000     0.0000     0.0000 </r>
        <r>    -4.6036     0.0458     0.0012     0.0010     0.0012     0.0000     0.0000     0.0000     0.0000     0.0000 </r>
        <r>    -4.5396     0.0482     0.0013     0.0011     0.0012     0.0000     0.0000     0.0000     0.0000     0.0000 </r>
        <r>    -4.4755     0.0507     0.0013     0.0012     0.0013     0.0000     0.0000     0.0000     0.0000     0.0000 </r>
        <r>    -4.4115     0.0533     0.0014     0.0013     0.0014     0.0000     0.0000     0.0000     0.0000     0.0000 </r>
        <r>    -4.3475     0.0560     0.0015     0.0013     0.0015     0.0000     0.0000     0.0000     0.0000     0.0000 </r>
        <r>    -4.2834     0.0588     0.0016     0.0014     0.0015     0.0000     0.0000     0.0000     0.0000     0.0000 </r>
        <r>    -4.2194     0.0618     0.0016     0.0015     0.0016     0.0000     0.0000     0.0000     0.0000     0.0000 </r>
        <r>    -4.1554     0.0653     0.0017     0.0017     0.0017     0.0000     0.0000     0.0000     0.0000     0.0000 </r>
        <r>    -4.0914     0.0823     0.0024     0.0022     0.0023     0.0000     0.0000     0.0000     0.0000     0.0000 </r>
        <r>    -4.0273     0.0991     0.0030     0.0028     0.0029     0.0000     0.0000     0.0000     0.0000     0.0000 </r>
        <r>    -3.9633     0.1156     0.0036     0.0034     0.0035     0.0000     0.0000     0.0000     0.0000     0.0000 </r>
        <r>    -3.8993     0.1317     0.0042     0.0040     0.0042     0.0000     0.0000     0.0000     0.0000     0.0000 </r>
        <r>    -3.8352     0.1450     0.0047     0.0046     0.0047     0.0000     0.0000     0.0000     0.0000     0.0000 </r>
        <r>    -3.7712     0.1489     0.0049     0.0048     0.0049     0.0000     0.0000     0.0000     0.0000     0.0000 </r>
        <r>    -3.7072     0.1428     0.0048     0.0048     0.0048     0.0000     0.0000     0.0000     0.0000     0.0000 </r>
        <r>    -3.6431     0.1269     0.0043     0.0045     0.0044     0.0000     0.0000     0.0000     0.0000     0.0000 </r>
        <r>    -3.5791     0.1011     0.0036     0.0039     0.0036     0.0000     0.0000     0.0000     0.0000     0.0000 </r>
        <r>    -3.5151     0.0655     0.0024     0.0031     0.0026     0.0000     0.0000     0.0000     0.0000     0.0000 </r>
        <r>    -3.4511     0.0549     0.0022     0.0029     0.0023     0.0000     0.0000     0.0000     0.0000     0.0000 </r>
        <r>    -3.3870     0.0564     0.0023     0.0030     0.0024     0.0000     0.0000     0.0000     0.0000     0.0000 </r>
        <r>    -3.3230     0.0575     0.0024     0.0031     0.0025     0.0000     0.0000     0.0000     0.0000     0.0000 </r>
        <r>    -3.2590     0.0583     0.0025     0.0032     0.0026     0.0000     0.0000     0.0000     0.0000     0.0000 </r>
        <r>    -3.1949     0.0587     0.0025     0.0032     0.0027     0.0000     0.0000     0.0000     0.0000     0.0000 </r>
        <r>    -3.1309     0.0588     0.0026     0.0033     0.0027     0.0000     0.0000     0.0000     0.0000     0.0000 </r>
        <r>    -3.0669     0.0585     0.0026     0.0033     0.0027     0.0000     0.0000     0.0000     0.0000     0.0000 </r>
        <r>    -3.0028     0.0578     0.0026     0.0033     0.0027     0.0000     0.0000     0.0000     0.0000     0.0000 </r>
        <r>    -2.9388     0.0568     0.0026     0.0032     0.0027     0.0000     0.0000     0.0000     0.0000     0.0000 </r>
        <r>    -2.8748     0.0554     0.0025     0.0032     0.0027     0.0000     0.0000     0.0000     0.0000     0.0000 </r>
        <r>    -2.8108     0.0537     0.0025     0.0031     0.0026     0.0000     0.0000     0.0000     0.0000     0.0000 </r>
        <r>    -2.7467     0.0516     0.0024     0.0030     0.0025     0.0000     0.0000     0.0000     0.0000     0.0000 </r>
        <r>    -2.6827     0.0492     0.0023     0.0029     0.0024     0.0000     0.0000     0.0000     0.0000     0.0000 </r>
        <r>    -2.6187     0.0464     0.0022     0.0027     0.0023     0.0000     0.0000     0.0000     0.0000     0.0000 </r>
        <r>    -2.5546     0.0432     0.0020     0.0025     0.0021     0.0000     0.0000     0.0000     0.0000     0.0000 </r>
        <r>    -2.4906     0.0397     0.0019     0.0023     0.0020     0.0000     0.0000     0.0000     0.0000     0.0000 </r>
        <r>    -2.4266     0.0358     0.0017     0.0021     0.0018     0.0000     0.0000     0.0000     0.0000     0.0000 </r>
        <r>    -2.3626     0.0316     0.0015     0.0019     0.0016     0.0000     0.0000     0.0000     0.0000     0.0000 </r>
        <r>    -2.2985     0.0270     0.0013     0.0016     0.0014     0.0000     0.0000     0.0000     0.0000     0.0000 </r>
        <r>    -2.2345     0.0220     0.0011     0.0013     0.0011     0.0000     0.0000     0.0000     0.0000     0.0000 </r>
        <r>    -2.1705     0.0167     0.0008     0.0010     0.0008     0.0000     0.0000     0.0000     0.0000     0.0000 </r>
        <r>    -2.1064     0.0110     0.0005     0.0007     0.0006     0.0000     0.0000     0.0000     0.0000     0.0000 </r>
        <r>    -2.0424     0.0061     0.0003     0.0004     0.0003     0.0000     0.0000     0.0000     0.0000     0.0000 </r>
        <r>    -1.9784     0.0045     0.0004     0.0004     0.0004     0.0000     0.0000     0.0000     0.0000     0.0000 </r>
        <r>    -1.9143     0.0077     0.0008     0.0009     0.0008     0.0000     0.0000     0.0000     0.0000     0.0000 </r>
        <r>    -1.8503     0.0143     0.0014     0.0018     0.0015     0.0000     0.0000     0.0000     0.0000     0.0000 </r>
        <r>    -1.7863     0.0203     0.0020     0.0025     0.0021     0.0000     0.0000     0.0000     0.0000     0.0000 </r>
        <r>    -1.7223     0.0259     0.0026     0.0032     0.0027     0.0000     0.0000     0.0000     0.0000     0.0000 </r>
        <r>    -1.6582     0.0310     0.0031     0.0038     0.0032     0.0000     0.0000     0.0000     0.0000     0.0000 </r>
        <r>    -1.5942     0.0355     0.0035     0.0044     0.0037     0.0000     0.0000     0.0000     0.0000     0.0000 </r>
        <r>    -1.5302     0.0395     0.0040     0.0050     0.0042     0.0000     0.0000     0.0000     0.0000     0.0000 </r>
        <r>    -1.4661     0.0430     0.0043     0.0054     0.0046     0.0000     0.0000     0.0000     0.0000     0.0000 </r>
        <r>    -1.4021     0.0459     0.0047     0.0058     0.0049     0.0000     0.0000     0.0000     0.0000     0.0000 </r>
        <r>    -1.3381     0.0484     0.0049     0.0062     0.0052     0.0000     0.0000     0.0000     0.0000     0.0000 </r>
        <r>    -1.2740     0.0503     0.0052     0.0065     0.0054     0.0000     0.0000     0.0000     0.0000     0.0000 </r>
        <r>    -1.2100     0.0517     0.0054     0.0068     0.0056     0.0000     0.0000     0.0000     0.0000     0.0000 </r>
        <r>    -1.1460     0.0532     0.0057     0.0071     0.0059     0.0000     0.0000     0.0000     0.0000     0.0000 </r>
        <r>    -1.0820     0.0551     0.0061     0.0075     0.0064     0.0000     0.0000     0.0000     0.0000     0.0000 </r>
        <r>    -1.0179     0.0576     0.0067     0.0081     0.0070     0.0000     0.0000     0.0000     0.0000     0.0000 </r>
        <r>    -0.9539     0.0604     0.0075     0.0088     0.0077     0.0000     0.0000     0.0000     0.0000     0.0000 </r>
        <r>    -0.8899     0.0638     0.0084     0.0096     0.0087     0.0000     0.0000     0.0000     0.0000     0.0000 </r>
        <r>    -0.8258     0.0675     0.0095     0.0106     0.0097     0.0000     0.0000     0.0000     0.0000     0.0000 </r>
        <r>    -0.7618     0.0718     0.0108     0.0117     0.0110     0.0000     0.0000     0.0000     0.0000     0.0000 </r>
        <r>    -0.6978     0.0765     0.0122     0.0130     0.0124     0.0000     0.0000     0.0000     0.0000     0.0000 </r>
        <r>    -0.6337     0.0779     0.0129     0.0135     0.0130     0.0000     0.0000     0.0000     0.0000     0.0000 </r>
        <r>    -0.5697     0.0761     0.0130     0.0132     0.0130     0.0000     0.0000     0.0000     0.0000     0.0000 </r>
        <r>    -0.5057     0.0739     0.0129     0.0129     0.0129     0.0000     0.0000     0.0000     0.0000     0.0000 </r>
        <r>    -0.4417     0.0713     0.0128     0.0126     0.0127     0.0000     0.0000     0.0000     0.0000     0.0000 </r>
        <r>    -0.3776     0.0683     0.0126     0.0122     0.0125     0.0000     0.0000     0.0000     0.0000     0.0000 </r>
        <r>    -0.3136     0.0649     0.0122     0.0117     0.0121     0.0000     0.0000     0.0000     0.0000     0.0000 </r>
        <r>    -0.2496     0.0611     0.0118     0.0112     0.0117     0.0000     0.0000     0.0000     0.0000     0.0000 </r>
        <r>    -0.1855     0.0569     0.0113     0.0106     0.0111     0.0000     0.0000     0.0000     0.0000     0.0000 </r>
        <r>    -0.1215     0.0523     0.0106     0.0100     0.0105     0.0000     0.0000     0.0000     0.0000     0.0000 </r>
        <r>    -0.0575     0.0474     0.0099     0.0093     0.0098     0.0000     0.0000     0.0000     0.0000     0.0000 </r>
        <r>     0.0065     0.0420     0.0091     0.0085     0.0090     0.0000     0.0000     0.0000     0.0000     0.0000 </r>
        <r>     0.0706     0.0362     0.0082     0.0077     0.0081     0.0000     0.0000     0.0000     0.0000     0.0000 </r>
        <r>     0.1346     0.0301     0.0072     0.0069     0.0071     0.0000     0.0000     0.0000     0.0000     0.0000 </r>
        <r>     0.1986     0.0235     0.0061     0.0060     0.0061     0.0000     0.0000     0.0000     0.0000     0.0000 </r>
        <r>     0.2627     0.0211     0.0057     0.0056     0.0057     0.0000     0.0000     0.0000     0.0000     0.0000 </r>
        <r>     0.3267     0.0202     0.0056     0.0054     0.0055     0.0000     0.0000     0.0000     0.0000     0.0000 </r>
        <r>     0.3907     0.0193     0.0054     0.0053     0.0054     0.0000     0.0000     0.0000     0.0000     0.0000 </r>
[...]
       </set>
       <set comment="band 6">
        <r>  0.0121  0.0584  0.0131  0.0044  0.0000  0.0000  0.0000  0.0000  0.0000 </r>
        <r>  0.0121  0.0584  0.0131  0.0044  0.0000  0.0000  0.0000  0.0000  0.0000 </r>
        <r>  0.0121  0.0584  0.0131  0.0044  0.0000  0.0000  0.0000  0.0000  0.0000 </r>
        <r>  0.0121  0.0584  0.0131  0.0044  0.0000  0.0000  0.0000  0.0000  0.0000 </r>
       </set>
       <set comment="band 7">
        <r>  0.0000  0.0000  0.0249  0.0746  0.0000  0.0000  0.0000  0.0000  0.0000 </r>
        <r>  0.0000  0.0000  0.0249  0.0746  0.0000  0.0000  0.0000  0.0000  0.0000 </r>
        <r>  0.0000  0.0000  0.0249  0.0746  0.0000  0.0000  0.0000  0.0000  0.0000 </r>
        <r>  0.0000  0.0000  0.0249  0.0746  0.0000  0.0000  0.0000  0.0000  0.0000 </r>
       </set>
       <set comment="band 8">
        <r>  0.0000  0.0000  0.0994  0.0000  0.0000  0.0000  0.0000  0.0000  0.0000 </r>
        <r>  0.0000  0.0000  0.0994  0.0000  0.0000  0.0000  0.0000  0.0000  0.0000 </r>
        <r>  0.0000  0.0000  0.0994  0.0000  0.0000  0.0000  0.0000  0.0000  0.0000 </r>
        <r>  0.0000  0.0000  0.0994  0.0000  0.0000  0.0000  0.0000  0.0000  0.0000 </r>
       </set>
       <set comment="band 9">
        <r>  0.0251  0.0161  0.0000  0.0098  0.0000  0.0000  0.0000  0.0000  0.0000 </r>
        <r>  0.0251  0.0161  0.0000  0.0098  0.0000  0.0000  0.0000  0.0000  0.0000 </r>
        <r>  0.0251  0.0161  0.0000  0.0098  0.0000  0.0000  0.0000  0.0000  0.0000 </r>
        <r>  0.0251  0.0161  0.0000  0.0098  0.0000  0.0000  0.0000  0.0000  0.0000 </r>
       </set>
       <set comment="band 10">
        <r>  0.0251  0.0161  0.0073  0.0024  0.0000  0.0000  0.0000  0.0000  0.0000 </r>
        <r>  0.0251  0.0161  0.0073  0.0024  0.0000  0.0000  0.0000  0.0000  0.0000 </r>
        <r>  0.0251  0.0161  0.0073  0.0024  0.0000  0.0000  0.0000  0.0000  0.0000 </r>
        <r>  0.0251  0.0161  0.0073  0.0024  0.0000  0.0000  0.0000  0.0000  0.0000 </r>
       </set>
       <set comment="band 11">
        <r>  0.0106  0.0245  0.0000  0.0165  0.0000  0.0000  0.0000  0.0000  0.0000 </r>
        <r>  0.0108  0.0242  0.0000  0.0166  0.0000  0.0000  0.0000  0.0000  0.0000 </r>
        <r>  0.0107  0.0242  0.0000  0.0165  0.0000  0.0000  0.0000  0.0000  0.0000 </r>
        <r>  0.0107  0.0245  0.0000  0.0166  0.0000  0.0000  0.0000  0.0000  0.0000 </r>
       </set>
       <set comment="band 12">
        <r>  0.0108  0.0242  0.0124  0.0041  0.0000  0.0000  0.0000  0.0000  0.0000 </r>
        <r>  0.0106  0.0245  0.0124  0.0041  0.0000  0.0000  0.0000  0.0000  0.0000 </r>
        <r>  0.0107  0.0245  0.0124  0.0042  0.0000  0.0000  0.0000  0.0000  0.0000 </r>
        <r>  0.0107  0.0242  0.0124  0.0041  0.0000  0.0000  0.0000  0.0000  0.0000 </r>
       </set>
       <set comment="band 13">
        <r>  0.0335  0.0231  0.0020  0.0001  0.0000  0.0000  0.0000  0.0000  0.0000 </r>
        <r>  0.0296  0.0984  0.0021  0.0020  0.0000  0.0000  0.0000  0.0000  0.0000 </r>
        <r>  0.0126  0.0868  0.0021  0.0013  0.0000  0.0000  0.0000  0.0000  0.0000 </r>
        <r>  0.0505  0.0346  0.0021  0.0008  0.0000  0.0000  0.0000  0.0000  0.0000 </r>
       </set>
      </set>
      <set comment="kpoint 6">
       <set comment="band 1">
        <r>  0.1040  0.0058  0.0000  0.0035  0.0000  0.0000  0.0000  0.0000  0.0000 </r>
        <r>  0.1040  0.0058  0.0000  0.0035  0.0000  0.0000  0.0000  0.0000  0.0000 </r>
        <r>  0.1040  0.0058  0.0000  0.0035  0.0000  0.0000  0.0000  0.0000  0.0000 </r>
        <r>  0.1040  0.0058  0.0000  0.0035  0.0000  0.0000  0.0000  0.0000  0.0000 </r>
       </set>
       <set comment="band 2">
        <r>  0.1097  0.0063  0.0094  0.0031  0.0000  0.0000  0.0000  0.0000  0.0000 </r>
        <r>  0.1097  0.0063  0.0094  0.0031  0.0000  0.0000  0.0000  0.0000  0.0000 </r>
        <r>  0.0943  0.0073  0.0110  0.0037  0.0000  0.0000  0.0000  0.0000  0.0000 </r>
        <r>  0.0943  0.0073  0.0110  0.0037  0.0000  0.0000  0.0000  0.0000  0.0000 </r>
       </set>
       <set comment="band 3">
        <r>  0.0943  0.0073  0.0110  0.0037  0.0000  0.0000  0.0000  0.0000  0.0000 </r>
        <r>  0.0943  0.0073  0.0110  0.0037  0.0000  0.0000  0.0000  0.0000  0.0000 </r>
        <r>  0.1097  0.0063  0.0094  0.0031  0.0000  0.0000  0.0000  0.0000  0.0000 </r>
        <r>  0.1097  0.0063  0.0094  0.0031  0.0000  0.0000  0.0000  0.0000  0.0000 </r>
       </set>
       <set comment="band 4">
        <r>  0.0775  0.0208  0.0000  0.0199  0.0000  0.0000  0.0000  0.0000  0.0000 </r>
        <r>  0.0775  0.0208  0.0000  0.0199  0.0000  0.0000  0.0000  0.0000  0.0000 </r>
        <r>  0.0775  0.0208  0.0000  0.0199  0.0000  0.0000  0.0000  0.0000  0.0000 </r>
        <r>  0.0775  0.0208  0.0000  0.0199  0.0000  0.0000  0.0000  0.0000  0.0000 </r>
       </set>
       <set comment="band 5">
        <r>  0.0000  0.0242  0.0258  0.0312  0.0000  0.0000  0.0000  0.0000  0.0000 </r>
        <r>  0.0000  0.0242  0.0258  0.0312  0.0000  0.0000  0.0000  0.0000  0.0000 </r>
        <r>  0.0000  0.0232  0.0195  0.0355  0.0000  0.0000  0.0000  0.0000  0.0000 </r>
        <r>  0.0000  0.0232  0.0195  0.0355  0.0000  0.0000  0.0000  0.0000  0.0000 </r>
       </set>
       <set comment="band 6">
        <r>  0.0000  0.0290  0.0195  0.0297  0.0000  0.0000  0.0000  0.0000  0.0000 </r>
        <r>  0.0000  0.0290  0.0195  0.0297  0.0000  0.0000  0.0000  0.0000  0.0000 </r>
        <r>  0.0000  0.0300  0.0258  0.0254  0.0000  0.0000  0.0000  0.0000  0.0000 </r>
        <r>  0.0000  0.0300  0.0258  0.0254  0.0000  0.0000  0.0000  0.0000  0.0000 </r>
       </set>
       <set comment="band 7">
        <r>  0.0065  0.0374  0.0000  0.0388  0.0000  0.0000  0.0000  0.0000  0.0000 </r>
        <r>  0.0065  0.0374  0.0000  0.0388  0.0000  0.0000  0.0000  0.0000  0.0000 </r>
        <r>  0.0065  0.0374  0.0000  0.0388  0.0000  0.0000  0.0000  0.0000  0.0000 </r>
        <r>  0.0065  0.0374  0.0000  0.0388  0.0000  0.0000  0.0000  0.0000  0.0000 </r>
       </set>
       <set comment="band 8">
        <r>  0.0000  0.0000  0.1044  0.0000  0.0000  0.0000  0.0000  0.0000  0.0000 </r>
        <r>  0.0000  0.0000  0.1044  0.0000  0.0000  0.0000  0.0000  0.0000  0.0000 </r>
        <r>  0.0000  0.0000  0.1044  0.0000  0.0000  0.0000  0.0000  0.0000  0.0000 </r>
        <r>  0.0000  0.0000  0.1044  0.0000  0.0000  0.0000  0.0000  0.0000  0.0000 </r>
       </set>
       <set comment="band 9">
        <r>  0.0329  0.0112  0.0000  0.0211  0.0000  0.0000  0.0000  0.0000  0.0000 </r>
        <r>  0.0329  0.0112  0.0000  0.0211  0.0000  0.0000  0.0000  0.0000  0.0000 </r>
        <r>  0.0329  0.0112  0.0000  0.0211  0.0000  0.0000  0.0000  0.0000  0.0000 </r>
        <r>  0.0329  0.0112  0.0000  0.0211  0.0000  0.0000  0.0000  0.0000  0.0000 </r>
       </set>
       <set comment="band 10">
        <r>  0.0000  0.0137  0.0000  0.0248  0.0000  0.0000  0.0000  0.0000  0.0000 </r>
        <r>  0.0000  0.0137  0.0000  0.0248  0.0000  0.0000  0.0000  0.0000  0.0000 </r>
        <r>  0.0000  0.0165  0.0000  0.0305  0.0000  0.0000  0.0000  0.0000  0.0000 </r>
        <r>  0.0000  0.0165  0.0000  0.0305  0.0000  0.0000  0.0000  0.0000  0.0000 </r>
       </set>
       <set comment="band 11">
        <r>  0.0000  0.0148  0.0000  0.0322  0.0000  0.0000  0.0000  0.0000  0.0000 </r>
        <r>  0.0000  0.0148  0.0000  0.0322  0.0000  0.0000  0.0000  0.0000  0.0000 </r>
        <r>  0.0000  0.0120  0.0000  0.0265  0.0000  0.0000  0.0000  0.0000  0.0000 </r>
        <r>  0.0000  0.0120  0.0000  0.0265  0.0000  0.0000  0.0000  0.0000  0.0000 </r>
       </set>
       <set comment="band 12">
        <r>  0.0000  0.0000  0.0742  0.0000  0.0000  0.0000  0.0000  0.0000  0.0000 </r>
        <r>  0.0000  0.0000  0.0745  0.0000  0.0000  0.0000  0.0000  0.0000  0.0000 </r>
        <r>  0.0000  0.0000  0.0745  0.0000  0.0000  0.0000  0.0000  0.0000  0.0000 </r>
        <r>  0.0000  0.0000  0.0742  0.0000  0.0000  0.0000  0.0000  0.0000  0.0000 </r>
       </set>
       <set comment="band 13">
        <r>  0.0597  0.0010  0.0015  0.0005  0.0000  0.0000  0.0000  0.0000  0.0000 </r>
        <r>  0.0599  0.0010  0.0015  0.0005  0.0000  0.0000  0.0000  0.0000  0.0000 </r>
        <r>  0.0018  0.0337  0.0510  0.0174  0.0000  0.0000  0.0000  0.0000  0.0000 </r>
        <r>  0.0016  0.0343  0.0510  0.0166  0.0000  0.0000  0.0000  0.0000  0.0000 </r>
       </set>
      </set>
      <set comment="kpoint 7">
       <set comment="band 1">
        <r>  0.1418  0.0001  0.0008  0.0003  0.0000  0.0000  0.0000  0.0000  0.0000 </r>
        <r>  0.0671  0.0007  0.0044  0.0015  0.0000  0.0000  0.0000  0.0000  0.0000 </r>
        <r>  0.0739  0.0007  0.0043  0.0014  0.0000  0.0000  0.0000  0.0000  0.0000 </r>
        <r>  0.1350  0.0002  0.0010  0.0003  0.0000  0.0000  0.0000  0.0000  0.0000 </r>
       </set>
       <set comment="band 2">
        <r>  0.0671  0.0007  0.0044  0.0015  0.0000  0.0000  0.0000  0.0000  0.0000 </r>
        <r>  0.1418  0.0001  0.0008  0.0003  0.0000  0.0000  0.0000  0.0000  0.0000 </r>
        <r>  0.1350  0.0002  0.0010  0.0003  0.0000  0.0000  0.0000  0.0000  0.0000 </r>
        <r>  0.0739  0.0007  0.0043  0.0014  0.0000  0.0000  0.0000  0.0000  0.0000 </r>
       </set>
       <set comment="band 3">
        <r>  0.0051  0.0104  0.0626  0.0209  0.0000  0.0000  0.0000  0.0000  0.0000 </r>
        <r>  0.0916  0.0026  0.0154  0.0051  0.0000  0.0000  0.0000  0.0000  0.0000 </r>
        <r>  0.0533  0.0016  0.0093  0.0031  0.0000  0.0000  0.0000  0.0000  0.0000 </r>
        <r>  0.0435  0.0114  0.0687  0.0229  0.0000  0.0000  0.0000  0.0000  0.0000 </r>
       </set>
       <set comment="band 4">
        <r>  0.0916  0.0026  0.0154  0.0051  0.0000  0.0000  0.0000  0.0000  0.0000 </r>
        <r>  0.0051  0.0104  0.0626  0.0209  0.0000  0.0000  0.0000  0.0000  0.0000 </r>
        <r>  0.0435  0.0114  0.0687  0.0229  0.0000  0.0000  0.0000  0.0000  0.0000 </r>
        <r>  0.0533  0.0016  0.0093  0.0031  0.0000  0.0000  0.0000  0.0000  0.0000 </r>
       </set>
       <set comment="band 5">
        <r>  0.0000  0.0844  0.0006  0.0606  0.0000  0.0000  0.0000  0.0000  0.0000 </r>
        <r>  0.0000  0.0379  0.0002  0.0272  0.0000  0.0000  0.0000  0.0000  0.0000 </r>
        <r>  0.0000  0.0777  0.0005  0.0558  0.0000  0.0000  0.0000  0.0000  0.0000 </r>
        <r>  0.0000  0.0446  0.0003  0.0320  0.0000  0.0000  0.0000  0.0000  0.0000 </r>
       </set>
       <set comment="band 6">
        <r>  0.0000  0.0379  0.0002  0.0272  0.0000  0.0000  0.0000  0.0000  0.0000 </r>
        <r>  0.0000  0.0844  0.0006  0.0606  0.0000  0.0000  0.0000  0.0000  0.0000 </r>
        <r>  0.0000  0.0446  0.0003  0.0320  0.0000  0.0000  0.0000  0.0000  0.0000 </r>
        <r>  0.0000  0.0778  0.0005  0.0558  0.0000  0.0000  0.0000  0.0000  0.0000 </r>
       </set>
       <set comment="band 7">
        <r>  0.0000  0.0448  0.0478  0.0524  0.0000  0.0000  0.0000  0.0000  0.0000 </r>
        <r>  0.0000  0.0204  0.0218  0.0239  0.0000  0.0000  0.0000  0.0000  0.0000 </r>
        <r>  0.0000  0.0483  0.0515  0.0564  0.0000  0.0000  0.0000  0.0000  0.0000 </r>
        <r>  0.0000  0.0169  0.0181  0.0198  0.0000  0.0000  0.0000  0.0000  0.0000 </r>
       </set>
       <set comment="band 8">
        <r>  0.0000  0.0204  0.0218  0.0239  0.0000  0.0000  0.0000  0.0000  0.0000 </r>
        <r>  0.0000  0.0448  0.0478  0.0524  0.0000  0.0000  0.0000  0.0000  0.0000 </r>
        <r>  0.0000  0.0169  0.0181  0.0198  0.0000  0.0000  0.0000  0.0000  0.0000 </r>
        <r>  0.0000  0.0483  0.0515  0.0564  0.0000  0.0000  0.0000  0.0000  0.0000 </r>
       </set>
       <set comment="band 9">
        <r>  0.1084  0.0025  0.0153  0.0051  0.0000  0.0000  0.0000  0.0000  0.0000 </r>
        <r>  0.0475  0.0028  0.0170  0.0057  0.0000  0.0000  0.0000  0.0000  0.0000 </r>
        <r>  0.0856  0.0039  0.0233  0.0078  0.0000  0.0000  0.0000  0.0000  0.0000 </r>
        <r>  0.0703  0.0015  0.0090  0.0030  0.0000  0.0000  0.0000  0.0000  0.0000 </r>
       </set>
       <set comment="band 10">
        <r>  0.0475  0.0028  0.0170  0.0057  0.0000  0.0000  0.0000  0.0000  0.0000 </r>
        <r>  0.1084  0.0025  0.0153  0.0051  0.0000  0.0000  0.0000  0.0000  0.0000 </r>
        <r>  0.0703  0.0015  0.0090  0.0030  0.0000  0.0000  0.0000  0.0000  0.0000 </r>
        <r>  0.0856  0.0039  0.0233  0.0078  0.0000  0.0000  0.0000  0.0000  0.0000 </r>
       </set>
       <set comment="band 11">
        <r>  0.0000  0.0349  0.0003  0.0107  0.0000  0.0000  0.0000  0.0000  0.0000 </r>
        <r>  0.0000  0.0703  0.0005  0.0216  0.0000  0.0000  0.0000  0.0000  0.0000 </r>
        <r>  0.0000  0.0445  0.0003  0.0137  0.0000  0.0000  0.0000  0.0000  0.0000 </r>
        <r>  0.0000  0.0608  0.0005  0.0187  0.0000  0.0000  0.0000  0.0000  0.0000 </r>
       </set>
       <set comment="band 12">
        <r>  0.0000  0.0585  0.0208  0.0146  0.0000  0.0000  0.0000  0.0000  0.0000 </r>
        <r>  0.0000  0.0251  0.0091  0.0103  0.0000  0.0000  0.0000  0.0000  0.0000 </r>
        <r>  0.0000  0.0518  0.0210  0.0176  0.0000  0.0000  0.0000  0.0000  0.0000 </r>
        <r>  0.0000  0.0318  0.0089  0.0073  0.0000  0.0000  0.0000  0.0000  0.0000 </r>
       </set>
       <set comment="band 13">
        <r>  0.0000  0.0056  0.0142  0.0237  0.0000  0.0000  0.0000  0.0000  0.0000 </r>
        <r>  0.0000  0.0122  0.0311  0.0516  0.0000  0.0000  0.0000  0.0000  0.0000 </r>
        <r>  0.0000  0.0051  0.0131  0.0217  0.0000  0.0000  0.0000  0.0000  0.0000 </r>
        <r>  0.0000  0.0127  0.0323  0.0536  0.0000  0.0000  0.0000  0.0000  0.0000 </r>
       </set>
      </set>
      <set comment="kpoint 8">
       <set comment="band 1">
        <r>  0.1015  0.0051  0.0034  0.0103  0.0000  0.0000  0.0000  0.0000  0.0000 </r>
        <r>  0.1074  0.0014  0.0037  0.0000  0.0000  0.0000  0.0000  0.0000  0.0000 </r>
        <r>  0.2071  0.0009  0.0000  0.0059  0.0000  0.0000  0.0000  0.0000  0.0000 </r>
        <r>  0.0018  0.0056  0.0071  0.0044  0.0000  0.0000  0.0000  0.0000  0.0000 </r>
       </set>
       <set comment="band 2">
        <r>  0.1074  0.0014  0.0037  0.0000  0.0000  0.0000  0.0000  0.0000  0.0000 </r>
        <r>  0.1015  0.0051  0.0034  0.0103  0.0000  0.0000  0.0000  0.0000  0.0000 </r>
        <r>  0.0018  0.0056  0.0071  0.0044  0.0000  0.0000  0.0000  0.0000  0.0000 </r>
        <r>  0.2071  0.0009  0.0000  0.0059  0.0000  0.0000  0.0000  0.0000  0.0000 </r>
       </set>
       <set comment="band 3">
        <r>  0.0327  0.0108  0.0038  0.0372  0.0000  0.0000  0.0000  0.0000  0.0000 </r>
        <r>  0.1239  0.0010  0.0029  0.0169  0.0000  0.0000  0.0000  0.0000  0.0000 </r>
        <r>  0.1436  0.0026  0.0013  0.0313  0.0000  0.0000  0.0000  0.0000  0.0000 </r>
        <r>  0.0130  0.0092  0.0054  0.0228  0.0000  0.0000  0.0000  0.0000  0.0000 </r>
       </set>
       <set comment="band 4">
        <r>  0.1239  0.0010  0.0029  0.0169  0.0000  0.0000  0.0000  0.0000  0.0000 </r>
        <r>  0.0327  0.0108  0.0038  0.0372  0.0000  0.0000  0.0000  0.0000  0.0000 </r>
        <r>  0.0130  0.0092  0.0054  0.0228  0.0000  0.0000  0.0000  0.0000  0.0000 </r>
        <r>  0.1436  0.0026  0.0013  0.0313  0.0000  0.0000  0.0000  0.0000  0.0000 </r>
       </set>
       <set comment="band 5">
        <r>  0.0073  0.0139  0.0207  0.0099  0.0000  0.0000  0.0000  0.0000  0.0000 </r>
        <r>  0.0169  0.0063  0.0592  0.0416  0.0000  0.0000  0.0000  0.0000  0.0000 </r>
        <r>  0.0037  0.0172  0.0766  0.0130  0.0000  0.0000  0.0000  0.0000  0.0000 </r>
        <r>  0.0206  0.0030  0.0033  0.0385  0.0000  0.0000  0.0000  0.0000  0.0000 </r>
       </set>
       <set comment="band 6">
        <r>  0.0169  0.0063  0.0592  0.0416  0.0000  0.0000  0.0000  0.0000  0.0000 </r>
        <r>  0.0073  0.0139  0.0207  0.0099  0.0000  0.0000  0.0000  0.0000  0.0000 </r>
        <r>  0.0206  0.0030  0.0033  0.0385  0.0000  0.0000  0.0000  0.0000  0.0000 </r>
        <r>  0.0037  0.0172  0.0766  0.0130  0.0000  0.0000  0.0000  0.0000  0.0000 </r>
       </set>
       <set comment="band 7">
        <r>  0.0000  0.0813  0.0305  0.0102  0.0000  0.0000  0.0000  0.0000  0.0000 </r>
        <r>  0.0000  0.0512  0.0192  0.0064  0.0000  0.0000  0.0000  0.0000  0.0000 </r>
        <r>  0.0000  0.0947  0.0355  0.0118  0.0000  0.0000  0.0000  0.0000  0.0000 </r>
        <r>  0.0000  0.0379  0.0142  0.0047  0.0000  0.0000  0.0000  0.0000  0.0000 </r>
       </set>
       <set comment="band 8">
        <r>  0.0000  0.0512  0.0192  0.0064  0.0000  0.0000  0.0000  0.0000  0.0000 </r>
        <r>  0.0000  0.0813  0.0305  0.0102  0.0000  0.0000  0.0000  0.0000  0.0000 </r>
        <r>  0.0000  0.0379  0.0142  0.0047  0.0000  0.0000  0.0000  0.0000  0.0000 </r>
        <r>  0.0000  0.0947  0.0355  0.0118  0.0000  0.0000  0.0000  0.0000  0.0000 </r>
       </set>
       <set comment="band 9">
        <r>  0.0118  0.0052  0.0125  0.0001  0.0000  0.0000  0.0000  0.0000  0.0000 </r>
        <r>  0.0384  0.0106  0.0224  0.0011  0.0000  0.0000  0.0000  0.0000  0.0000 </r>
        <r>  0.0289  0.0073  0.0150  0.0009  0.0000  0.0000  0.0000  0.0000  0.0000 </r>
        <r>  0.0213  0.0084  0.0198  0.0003  0.0000  0.0000  0.0000  0.0000  0.0000 </r>
       </set>
       <set comment="band 10">
        <r>  0.0384  0.0106  0.0224  0.0011  0.0000  0.0000  0.0000  0.0000  0.0000 </r>
        <r>  0.0118  0.0052  0.0125  0.0001  0.0000  0.0000  0.0000  0.0000  0.0000 </r>
        <r>  0.0213  0.0084  0.0198  0.0003  0.0000  0.0000  0.0000  0.0000  0.0000 </r>
        <r>  0.0289  0.0073  0.0150  0.0009  0.0000  0.0000  0.0000  0.0000  0.0000 </r>
       </set>
       <set comment="band 11">
        <r>  0.0204  0.0046  0.0099  0.0016  0.0000  0.0000  0.0000  0.0000  0.0000 </r>
        <r>  0.0010  0.0002  0.0134  0.0521  0.0000  0.0000  0.0000  0.0000  0.0000 </r>
        <r>  0.0109  0.0024  0.0016  0.0391  0.0000  0.0000  0.0000  0.0000  0.0000 </r>
        <r>  0.0105  0.0024  0.0217  0.0146  0.0000  0.0000  0.0000  0.0000  0.0000 </r>
       </set>
       <set comment="band 12">
        <r>  0.0010  0.0002  0.0134  0.0521  0.0000  0.0000  0.0000  0.0000  0.0000 </r>
        <r>  0.0204  0.0046  0.0099  0.0016  0.0000  0.0000  0.0000  0.0000  0.0000 </r>
        <r>  0.0105  0.0024  0.0217  0.0145  0.0000  0.0000  0.0000  0.0000  0.0000 </r>
        <r>  0.0109  0.0024  0.0016  0.0391  0.0000  0.0000  0.0000  0.0000  0.0000 </r>
       </set>
       <set comment="band 13">
        <r>  0.0400  0.0114  0.0703  0.0257  0.0000  0.0000  0.0000  0.0000  0.0000 </r>
        <r>  0.0231  0.0055  0.0141  0.0007  0.0000  0.0000  0.0000  0.0000  0.0000 </r>
        <r>  0.0013  0.0146  0.0620  0.0076  0.0000  0.0000  0.0000  0.0000  0.0000 </r>
        <r>  0.0618  0.0020  0.0226  0.0187  0.0000  0.0000  0.0000  0.0000  0.0000 </r>
       </set>
      </set>
     </set>
    </set>
   </array>
  </projected>
 </calculation>
 <structure name="finalpos" >
  <crystal>
   <varray name="basis" >
    <v>       3.34889800       0.00000000       1.93348700 </v>
    <v>       1.11629900       3.15737200       1.93348700 </v>
    <v>       0.00000000       0.00000000       7.73394900 </v>
   </varray>
   <i name="volume">     81.77658629 </i>
   <varray name="rec_basis" >
    <v>       0.29860569      -0.10557300       0.00000000 </v>
    <v>       0.00000000       0.31671909       0.00000000 </v>
    <v>      -0.07465141      -0.05278652       0.12930005 </v>
   </varray>
  </crystal>
  <varray name="positions" >
   <v>       0.25000000       0.25000000       0.12500000 </v>
   <v>       0.25000000       0.25000000       0.62500000 </v>
   <v>       0.00000000       0.00000000       0.00000000 </v>
   <v>       0.00000000       0.00000000       0.50000000 </v>
  </varray>
 </structure>
</modeling>
