 vasp.6.3.1 04May22 (build May  6 2022 16:02:18) complex
 executed on             LinuxGNU date 2023.03.22  13:00:26
 running   80 mpi-ranks, with    1 threads/rank
 distrk:  each k-point on   80 cores,    1 groups
 distr:  one band on NCORE=  20 cores,    4 groups


--------------------------------------------------------------------------------------------------------


 INCAR:
   ALGO = Normal
   EDIFF = 1e-07
   ENAUG = 1360.0
   ENCUT = 680.0
   GGA = Ps
   IBRION = 2
   ISIF = 2
   ISMEAR = -5
   ISPIN = 2
   LAECHG = False
   LASPH = True
   LCHARG = True
   LELF = False
   LMIXTAU = True
   LORBIT = 11
   LREAL = False
   LVTOT = False
   LWAVE = False
   MAGMOM = 2*-0.0
   NBANDS = 8
   NELM = 200
   NPAR = 4
   NSW = 0
   PREC = Accurate
   SIGMA = 0.05

 POTCAR:    PAW_PBE Si 05Jan2001
 POTCAR:    PAW_PBE Si 05Jan2001
   VRHFIN =Si: s2p2
   LEXCH  = PE
   EATOM  =   103.0669 eV,    7.5752 Ry

   TITEL  = PAW_PBE Si 05Jan2001
   LULTRA =        F    use ultrasoft PP ?
   IUNSCR =        1    unscreen: 0-lin 1-nonlin 2-no
   RPACOR =    1.500    partial core radius
   POMASS =   28.085; ZVAL   =    4.000    mass and valenz
   RCORE  =    1.900    outmost cutoff radius
   RWIGS  =    2.480; RWIGS  =    1.312    wigner-seitz radius (au A)
   ENMAX  =  245.345; ENMIN  =  184.009 eV
   ICORE  =        2    local potential
   LCOR   =        T    correct aug charges
   LPAW   =        T    paw PP
   EAUG   =  322.069
   DEXC   =    0.000
   RMAX   =    1.950    core radius for proj-oper
   RAUG   =    1.300    factor for augmentation sphere
   RDEP   =    1.993    radius for radial grids
   RDEPT  =    1.837    core radius for aug-charge

   Atomic configuration
    6 entries
     n  l   j            E        occ.
     1  0  0.50     -1785.8828   2.0000
     2  0  0.50      -139.4969   2.0000
     2  1  1.50       -95.5546   6.0000
     3  0  0.50       -10.8127   2.0000
     3  1  0.50        -4.0811   2.0000
     3  2  1.50        -4.0817   0.0000
   Description
     l       E           TYP  RCUT    TYP  RCUT
     0    -10.8127223     23  1.900
     0     -7.6451159     23  1.900
     1     -4.0811372     23  1.900
     1      2.4879257     23  1.900
     2     -4.0817478      7  1.900
  local pseudopotential read in
  partial core-charges read in
  partial kinetic energy density read in
  atomic valenz-charges read in
  non local Contribution for L=           0  read in
    real space projection operators read in
  non local Contribution for L=           0  read in
    real space projection operators read in
  non local Contribution for L=           1  read in
    real space projection operators read in
  non local Contribution for L=           1  read in
    real space projection operators read in
    PAW grid and wavefunctions read in

   number of l-projection  operators is LMAX  =           4
   number of lm-projection operators is LMMAX =           8

 -----------------------------------------------------------------------------
|                                                                             |
|               ----> ADVICE to this user running VASP <----                  |
|                                                                             |
|     You enforced a specific xc type in the INCAR file but a different       |
|     type was found in the POTCAR file.                                      |
|     I HOPE YOU KNOW WHAT YOU ARE DOING!                                     |
|                                                                             |
 -----------------------------------------------------------------------------

  PAW_PBE Si 05Jan2001                  :
 energy of atom  1       EATOM= -103.0669
 kinetic energy error for atom=    0.0003 (will be added to EATOM!!)


 POSCAR: Si2
  positions in direct lattice
  velocities in cartesian coordinates
 exchange correlation table for  LEXCH =       14
   RHO(1)=    0.500       N(1)  =     2000
   RHO(2)=  100.500       N(2)  =     4000



--------------------------------------------------------------------------------------------------------


 ion  position               nearest neighbor table
   1  0.000  0.000  0.000-   2 2.35   2 2.35   2 2.35   2 2.35
   2  0.250  0.250  0.250-   1 2.35   1 2.35   1 2.35   1 2.35

  LATTYP: Found a face centered cubic cell.
 ALAT       =     5.4360693191

  Lattice vectors:

 A1 = (  -0.0000000000,   2.7180346595,   2.7180346595)
 A2 = (   2.7180346595,  -0.0000000000,   2.7180346595)
 A3 = (   2.7180346595,   2.7180346595,  -0.0000000000)


Analysis of symmetry for initial positions (statically):
=====================================================================
 Subroutine PRICEL returns:
 Original cell was already a primitive cell.


 Routine SETGRP: Setting up the symmetry group for a
 face centered cubic supercell.


 Subroutine GETGRP returns: Found 48 space group operations
 (whereof 24 operations were pure point group operations)
 out of a pool of 48 trial point group operations.


The static configuration has the point symmetry T_d .
 The point group associated with its full space group is O_h .


Analysis of symmetry for dynamics (positions and initial velocities):
=====================================================================
 Subroutine PRICEL returns:
 Original cell was already a primitive cell.


 Routine SETGRP: Setting up the symmetry group for a
 face centered cubic supercell.


 Subroutine GETGRP returns: Found 48 space group operations
 (whereof 24 operations were pure point group operations)
 out of a pool of 48 trial point group operations.


The dynamic configuration has the point symmetry T_d .
 The point group associated with its full space group is O_h .


Analysis of structural, dynamic, and magnetic symmetry:
=====================================================================
 Subroutine PRICEL returns:
 Original cell was already a primitive cell.


 Routine SETGRP: Setting up the symmetry group for a
 face centered cubic supercell.


 Subroutine GETGRP returns: Found 48 space group operations
 (whereof 24 operations were pure point group operations)
 out of a pool of 48 trial point group operations.


The overall configuration has the point symmetry T_d .
 The point group associated with its full space group is O_h .


 Subroutine INISYM returns: Found 48 space group operations
 (whereof 24 operations are pure point group operations),
 and found     1 'primitive' translations


----------------------------------------------------------------------------------------

                                     Primitive cell

  volume of cell :      40.1601

  direct lattice vectors                    reciprocal lattice vectors
    -0.000000000  2.718034660  2.718034660    -0.183956447  0.183956447  0.183956447
     2.718034660 -0.000000000  2.718034660     0.183956447 -0.183956447  0.183956447
     2.718034660  2.718034660 -0.000000000     0.183956447  0.183956447 -0.183956447

  length of vectors
     3.843881479  3.843881479  3.843881479     0.318621913  0.318621913  0.318621913

  position of ions in fractional coordinates (direct lattice)
     0.000000000  0.000000000  0.000000000
     0.250000000  0.250000000  0.250000000

  ion indices of the primitive-cell ions
   primitive index   ion index
                 1           1
                 2           2

----------------------------------------------------------------------------------------



 KPOINTS: pymatgen with grid density = 1235 / numb

Automatic generation of k-mesh.
 Grid dimensions read from file:
 generate k-points for:    8    8    8

 Generating k-lattice:

  Cartesian coordinates                     Fractional coordinates (reciprocal lattice)
    -0.022994556  0.022994556  0.022994556     0.125000000  0.000000000 -0.000000000
     0.022994556 -0.022994556  0.022994556     0.000000000  0.125000000  0.000000000
     0.022994556  0.022994556 -0.022994556    -0.000000000 -0.000000000  0.125000000

  Length of vectors
     0.039827739  0.039827739  0.039827739

  Shift w.r.t. Gamma in fractional coordinates (k-lattice)
     0.000000000  0.000000000  0.000000000

 TETIRR: Found     76 inequivalent tetrahedra from     3072

 Subroutine IBZKPT returns following result:
 ===========================================

 Found     29 irreducible k-points:

 Following reciprocal coordinates:
            Coordinates               Weight
  0.000000  0.000000  0.000000      1.000000
  0.125000  0.000000  0.000000      8.000000
  0.250000  0.000000  0.000000      8.000000
  0.375000  0.000000  0.000000      8.000000
  0.500000  0.000000  0.000000      4.000000
  0.125000  0.125000  0.000000      6.000000
  0.250000  0.125000  0.000000     24.000000
  0.375000  0.125000  0.000000     24.000000
  0.500000  0.125000  0.000000     24.000000
 -0.375000  0.125000  0.000000     24.000000
 -0.250000  0.125000  0.000000     24.000000
 -0.125000  0.125000  0.000000     12.000000
  0.250000  0.250000  0.000000      6.000000
  0.375000  0.250000  0.000000     24.000000
  0.500000  0.250000  0.000000     24.000000
 -0.375000  0.250000  0.000000     24.000000
 -0.250000  0.250000  0.000000     12.000000
  0.375000  0.375000  0.000000      6.000000
  0.500000  0.375000  0.000000     24.000000
 -0.375000  0.375000  0.000000     12.000000
  0.500000  0.500000  0.000000      3.000000
  0.375000  0.250000  0.125000     24.000000
  0.500000  0.250000  0.125000     48.000000
 -0.375000  0.250000  0.125000     24.000000
  0.500000  0.375000  0.125000     24.000000
 -0.375000  0.375000  0.125000     48.000000
 -0.250000  0.375000  0.125000     24.000000
 -0.375000  0.500000  0.125000     12.000000
 -0.250000  0.500000  0.250000      6.000000

 Following cartesian coordinates:
            Coordinates               Weight
  0.000000  0.000000  0.000000      1.000000
 -0.022995  0.022995  0.022995      8.000000
 -0.045989  0.045989  0.045989      8.000000
 -0.068984  0.068984  0.068984      8.000000
 -0.091978  0.091978  0.091978      4.000000
  0.000000  0.000000  0.045989      6.000000
 -0.022995  0.022995  0.068984     24.000000
 -0.045989  0.045989  0.091978     24.000000
 -0.068984  0.068984  0.114973     24.000000
  0.091978 -0.091978 -0.045989     24.000000
  0.068984 -0.068984 -0.022995     24.000000
  0.045989 -0.045989  0.000000     12.000000
  0.000000  0.000000  0.091978      6.000000
 -0.022995  0.022995  0.114973     24.000000
 -0.045989  0.045989  0.137967     24.000000
  0.114973 -0.114973 -0.022995     24.000000
  0.091978 -0.091978  0.000000     12.000000
  0.000000  0.000000  0.137967      6.000000
 -0.022995  0.022995  0.160962     24.000000
  0.137967 -0.137967  0.000000     12.000000
  0.000000  0.000000  0.183956      3.000000
  0.000000  0.045989  0.091978     24.000000
 -0.022995  0.068984  0.114973     48.000000
  0.137967 -0.091978 -0.045989     24.000000
  0.000000  0.045989  0.137967     24.000000
  0.160962 -0.114973 -0.022995     48.000000
  0.137967 -0.091978  0.000000     24.000000
  0.183956 -0.137967  0.000000     12.000000
  0.183956 -0.091978  0.000000      6.000000



--------------------------------------------------------------------------------------------------------




 Dimension of arrays:
   k-points           NKPTS =     29   k-points in BZ     NKDIM =     29   number of bands    NBANDS=      8
   number of dos      NEDOS =    301   number of ions     NIONS =      2
   non local maximal  LDIM  =      4   non local SUM 2l+1 LMDIM =      8
   total plane-waves  NPLWV =  46656
   max r-space proj   IRMAX =      1   max aug-charges    IRDMAX=  39038
   dimension x,y,z NGX =    36 NGY =   36 NGZ =   36
   dimension x,y,z NGXF=    72 NGYF=   72 NGZF=   72
   support grid    NGXF=    72 NGYF=   72 NGZF=   72
   ions per type =               2
   NGX,Y,Z   is equivalent  to a cutoff of  15.57, 15.57, 15.57 a.u.
   NGXF,Y,Z  is equivalent  to a cutoff of  31.14, 31.14, 31.14 a.u.

 SYSTEM =  unknown system
 POSCAR =  Si2

 Startparameter for this run:
   NWRITE =      2    write-flag & timer
   PREC   = accura    normal or accurate (medium, high low for compatibility)
   ISTART =      0    job   : 0-new  1-cont  2-samecut
   ICHARG =      2    charge: 1-file 2-atom 10-const
   ISPIN  =      2    spin polarized calculation?
   LNONCOLLINEAR =      F non collinear calculations
   LSORBIT =      F    spin-orbit coupling
   INIWAV =      1    electr: 0-lowe 1-rand  2-diag
   LASPH  =      T    aspherical Exc in radial PAW
 Electronic Relaxation 1
   ENCUT  =  680.0 eV  49.98 Ry    7.07 a.u.   8.17  8.17  8.17*2*pi/ulx,y,z
   ENINI  =  680.0     initial cutoff
   ENAUG  = 1360.0 eV  augmentation charge cutoff
   NELM   =    200;   NELMIN=  2; NELMDL= -5     # of ELM steps
   EDIFF  = 0.1E-06   stopping-criterion for ELM
   LREAL  =      F    real-space projection
   NLSPLINE    = F    spline interpolate recip. space projectors
   LCOMPAT=      F    compatible to vasp.4.4
   GGA_COMPAT  = T    GGA compatible to vasp.4.4-vasp.4.6
   LMAXPAW     = -100 max onsite density
   LMAXMIX     =    2 max onsite mixed and CHGCAR
   VOSKOWN=      0    Vosko Wilk Nusair interpolation
   ROPT   =    0.00000
 Ionic relaxation
   EDIFFG = 0.1E-05   stopping-criterion for IOM
   NSW    =      0    number of steps for IOM
   NBLOCK =      1;   KBLOCK =      1    inner block; outer block
   IBRION =     -1    ionic relax: 0-MD 1-quasi-New 2-CG
   NFREE  =      1    steps in history (QN), initial steepest desc. (CG)
   ISIF   =      2    stress and relaxation
   IWAVPR =     10    prediction:  0-non 1-charg 2-wave 3-comb
   ISYM   =      2    0-nonsym 1-usesym 2-fastsym
   LCORR  =      T    Harris-Foulkes like correction to forces

   POTIM  = 0.5000    time-step for ionic-motion
   TEIN   =    0.0    initial temperature
   TEBEG  =    0.0;   TEEND  =   0.0 temperature during run
   SMASS  =  -3.00    Nose mass-parameter (am)
   estimated Nose-frequenzy (Omega)   =  0.10E-29 period in steps = 0.13E+47 mass=  -0.338E-27a.u.
   SCALEE = 1.0000    scale energy and forces
   NPACO  =    256;   APACO  = 10.0  distance and # of slots for P.C.
   PSTRESS=    0.0 pullay stress

  Mass of Ions in am
   POMASS =  28.09
  Ionic Valenz
   ZVAL   =   4.00
  Atomic Wigner-Seitz radii
   RWIGS  =  -1.00
  virtual crystal weights
   VCA    =   1.00
   NELECT =       8.0000    total number of electrons
   NUPDOWN=      -1.0000    fix difference up-down

 DOS related values:
   EMIN   =  10.00;   EMAX   =-10.00  energy-range for DOS
   EFERMI =   0.00
   ISMEAR =    -5;   SIGMA  =   0.05  broadening in eV -4-tet -1-fermi 0-gaus

 Electronic relaxation 2 (details)
   IALGO  =     38    algorithm
   LDIAG  =      T    sub-space diagonalisation (order eigenvalues)
   LSUBROT=      F    optimize rotation matrix (better conditioning)
   TURBO    =      0    0=normal 1=particle mesh
   IRESTART =      0    0=no restart 2=restart with 2 vectors
   NREBOOT  =      0    no. of reboots
   NMIN     =      0    reboot dimension
   EREF     =   0.00    reference energy to select bands
   IMIX   =      4    mixing-type and parameters
     AMIX     =   0.40;   BMIX     =  1.00
     AMIX_MAG =   1.60;   BMIX_MAG =  1.00
     AMIN     =   0.10
     WC   =   100.;   INIMIX=   1;  MIXPRE=   1;  MAXMIX= -45

 Intra band minimization:
   WEIMIN = 0.0000     energy-eigenvalue tresh-hold
   EBREAK =  0.31E-08  absolut break condition
   DEPER  =   0.30     relativ break condition

   TIME   =   0.40     timestep for ELM

  volume/ion in A,a.u.               =      20.08       135.51
  Fermi-wavevector in a.u.,A,eV,Ry     =   0.956107  1.806780 12.437638  0.914141
  Thomas-Fermi vector in A             =   2.085005

 Write flags
   LWAVE        =      F    write WAVECAR
   LDOWNSAMPLE  =      F    k-point downsampling of WAVECAR
   LCHARG       =      T    write CHGCAR
   LVTOT        =      F    write LOCPOT, total local potential
   LVHAR        =      F    write LOCPOT, Hartree potential only
   LELF         =      F    write electronic localiz. function (ELF)
   LORBIT       =     11    0 simple, 1 ext, 2 COOP (PROOUT), +10 PAW based schemes


 Dipole corrections
   LMONO  =      F    monopole corrections only (constant potential shift)
   LDIPOL =      F    correct potential (dipole corrections)
   IDIPOL =      0    1-x, 2-y, 3-z, 4-all directions
   EPSILON=  1.0000000 bulk dielectric constant

 Exchange correlation treatment:
   GGA     =    PS    GGA type
   LEXCH   =    14    internal setting for exchange type
   LIBXC   =     F    Libxc
   VOSKOWN =     0    Vosko Wilk Nusair interpolation
   LHFCALC =     F    Hartree Fock is set to
   LHFONE  =     F    Hartree Fock one center treatment
   AEXX    =    0.0000 exact exchange contribution

 Linear response parameters
   LEPSILON=     F    determine dielectric tensor
   LRPA    =     F    only Hartree local field effects (RPA)
   LNABLA  =     F    use nabla operator in PAW spheres
   LVEL    =     F    velocity operator in full k-point grid
   CSHIFT  =0.1000    complex shift for real part using Kramers Kronig
   OMEGAMAX=  -1.0    maximum frequency
   DEG_THRESHOLD= 0.2000000E-02 threshold for treating states as degnerate
   RTIME   =   -0.100 relaxation time in fs
  (WPLASMAI=    0.000 imaginary part of plasma frequency in eV, 0.658/RTIME)
   DFIELD  = 0.0000000 0.0000000 0.0000000 field for delta impulse in time

  Optional k-point grid parameters
   LKPOINTS_OPT  =     F    use optional k-point grid
   KPOINTS_OPT_MODE=     1    mode for optional k-point grid

 Orbital magnetization related:
   ORBITALMAG=     F  switch on orbital magnetization
   LCHIMAG   =     F  perturbation theory with respect to B field
   DQ        =  0.001000  dq finite difference perturbation B field
   LLRAUG    =     F  two centre corrections for induced B field



--------------------------------------------------------------------------------------------------------


 Static calculation
 charge density and potential will be updated during run
 spin polarized calculation
 Variant of blocked Davidson
 Davidson routine will perform the subspace rotation
 perform sub-space diagonalisation
    after iterative eigenvector-optimisation
 modified Broyden-mixing scheme, WC =      100.0
 initial mixing is a Kerker type mixing with AMIX =  0.4000 and BMIX =      1.0000
 Hartree-type preconditioning will be used
 using additional bands            4
 reciprocal scheme for non local part
 use partial core corrections
 calculate Harris-corrections to forces   (improved forces if not selfconsistent)
 use gradient corrections
 use of overlap-Matrix (Vanderbilt PP)
 Fermi weights with tetrahedron method with Bloechl corrections


--------------------------------------------------------------------------------------------------------


  energy-cutoff  :      680.00
  volume of cell :       40.16
      direct lattice vectors                 reciprocal lattice vectors
    -0.000000000  2.718034660  2.718034660    -0.183956447  0.183956447  0.183956447
     2.718034660 -0.000000000  2.718034660     0.183956447 -0.183956447  0.183956447
     2.718034660  2.718034660 -0.000000000     0.183956447  0.183956447 -0.183956447

  length of vectors
     3.843881479  3.843881479  3.843881479     0.318621913  0.318621913  0.318621913



 k-points in units of 2pi/SCALE and weight: pymatgen with grid density = 1235 / numb
   0.00000000  0.00000000  0.00000000       0.002
  -0.02299456  0.02299456  0.02299456       0.016
  -0.04598911  0.04598911  0.04598911       0.016
  -0.06898367  0.06898367  0.06898367       0.016
  -0.09197822  0.09197822  0.09197822       0.008
   0.00000000  0.00000000  0.04598911       0.012
  -0.02299456  0.02299456  0.06898367       0.047
  -0.04598911  0.04598911  0.09197822       0.047
  -0.06898367  0.06898367  0.11497278       0.047
   0.09197822 -0.09197822 -0.04598911       0.047
   0.06898367 -0.06898367 -0.02299456       0.047
   0.04598911 -0.04598911  0.00000000       0.023
   0.00000000  0.00000000  0.09197822       0.012
  -0.02299456  0.02299456  0.11497278       0.047
  -0.04598911  0.04598911  0.13796734       0.047
   0.11497278 -0.11497278 -0.02299456       0.047
   0.09197822 -0.09197822  0.00000000       0.023
   0.00000000  0.00000000  0.13796734       0.012
  -0.02299456  0.02299456  0.16096189       0.047
   0.13796734 -0.13796734  0.00000000       0.023
   0.00000000  0.00000000  0.18395645       0.006
   0.00000000  0.04598911  0.09197822       0.047
  -0.02299456  0.06898367  0.11497278       0.094
   0.13796734 -0.09197822 -0.04598911       0.047
   0.00000000  0.04598911  0.13796734       0.047
   0.16096189 -0.11497278 -0.02299456       0.094
   0.13796734 -0.09197822  0.00000000       0.047
   0.18395645 -0.13796734  0.00000000       0.023
   0.18395645 -0.09197822  0.00000000       0.012

 k-points in reciprocal lattice and weights: pymatgen with grid density = 1235 / numb
   0.00000000  0.00000000  0.00000000       0.002
   0.12500000  0.00000000  0.00000000       0.016
   0.25000000  0.00000000  0.00000000       0.016
   0.37500000  0.00000000  0.00000000       0.016
   0.50000000  0.00000000  0.00000000       0.008
   0.12500000  0.12500000  0.00000000       0.012
   0.25000000  0.12500000  0.00000000       0.047
   0.37500000  0.12500000  0.00000000       0.047
   0.50000000  0.12500000  0.00000000       0.047
  -0.37500000  0.12500000  0.00000000       0.047
  -0.25000000  0.12500000  0.00000000       0.047
  -0.12500000  0.12500000  0.00000000       0.023
   0.25000000  0.25000000  0.00000000       0.012
   0.37500000  0.25000000  0.00000000       0.047
   0.50000000  0.25000000  0.00000000       0.047
  -0.37500000  0.25000000  0.00000000       0.047
  -0.25000000  0.25000000  0.00000000       0.023
   0.37500000  0.37500000  0.00000000       0.012
   0.50000000  0.37500000  0.00000000       0.047
  -0.37500000  0.37500000  0.00000000       0.023
   0.50000000  0.50000000  0.00000000       0.006
   0.37500000  0.25000000  0.12500000       0.047
   0.50000000  0.25000000  0.12500000       0.094
  -0.37500000  0.25000000  0.12500000       0.047
   0.50000000  0.37500000  0.12500000       0.047
  -0.37500000  0.37500000  0.12500000       0.094
  -0.25000000  0.37500000  0.12500000       0.047
  -0.37500000  0.50000000  0.12500000       0.023
  -0.25000000  0.50000000  0.25000000       0.012

 position of ions in fractional coordinates (direct lattice)
   0.00000000  0.00000000  0.00000000
   0.25000000  0.25000000  0.25000000

 position of ions in cartesian coordinates  (Angst):
   0.00000000  0.00000000  0.00000000
   1.35901733  1.35901733  1.35901733



--------------------------------------------------------------------------------------------------------


 k-point   1 :   0.0000 0.0000 0.0000  plane waves:    1639
 k-point   2 :   0.1250 0.0000 0.0000  plane waves:    1606
 k-point   3 :   0.2500 0.0000 0.0000  plane waves:    1618
 k-point   4 :   0.3750 0.0000 0.0000  plane waves:    1619
 k-point   5 :   0.5000 0.0000 0.0000  plane waves:    1622
 k-point   6 :   0.1250 0.1250 0.0000  plane waves:    1615
 k-point   7 :   0.2500 0.1250 0.0000  plane waves:    1609
 k-point   8 :   0.3750 0.1250 0.0000  plane waves:    1614
 k-point   9 :   0.5000 0.1250 0.0000  plane waves:    1609
 k-point  10 :  -0.3750 0.1250 0.0000  plane waves:    1618
 k-point  11 :  -0.2500 0.1250 0.0000  plane waves:    1618
 k-point  12 :  -0.1250 0.1250 0.0000  plane waves:    1608
 k-point  13 :   0.2500 0.2500 0.0000  plane waves:    1612
 k-point  14 :   0.3750 0.2500 0.0000  plane waves:    1620
 k-point  15 :   0.5000 0.2500 0.0000  plane waves:    1617
 k-point  16 :  -0.3750 0.2500 0.0000  plane waves:    1611
 k-point  17 :  -0.2500 0.2500 0.0000  plane waves:    1624
 k-point  18 :   0.3750 0.3750 0.0000  plane waves:    1624
 k-point  19 :   0.5000 0.3750 0.0000  plane waves:    1629
 k-point  20 :  -0.3750 0.3750 0.0000  plane waves:    1624
 k-point  21 :   0.5000 0.5000 0.0000  plane waves:    1604
 k-point  22 :   0.3750 0.2500 0.1250  plane waves:    1610
 k-point  23 :   0.5000 0.2500 0.1250  plane waves:    1622
 k-point  24 :  -0.3750 0.2500 0.1250  plane waves:    1614
 k-point  25 :   0.5000 0.3750 0.1250  plane waves:    1613
 k-point  26 :  -0.3750 0.3750 0.1250  plane waves:    1616
 k-point  27 :  -0.2500 0.3750 0.1250  plane waves:    1616
 k-point  28 :  -0.3750 0.5000 0.1250  plane waves:    1628
 k-point  29 :  -0.2500 0.5000 0.2500  plane waves:    1628

 maximum and minimum number of plane-waves per node :        90       72

 maximum number of plane-waves:      1639
 maximum index in each direction:
   IXMAX=    8   IYMAX=    8   IZMAX=    8
   IXMIN=   -8   IYMIN=   -8   IZMIN=   -8


 parallel 3D FFT for wavefunctions:
    minimum data exchange during FFTs selected (reduces bandwidth)
 parallel 3D FFT for charge:
    minimum data exchange during FFTs selected (reduces bandwidth)


 total amount of memory used by VASP MPI-rank0    31216. kBytes
=======================================================================

   base      :      30000. kBytes
   nonl-proj :        166. kBytes
   fftplans  :        276. kBytes
   grid      :        590. kBytes
   one-center:          6. kBytes
   wavefun   :        178. kBytes

     INWAV:  cpu time      0.0000: real time      0.0000
 Broyden mixing: mesh for mixing (old mesh)
   NGX = 17   NGY = 17   NGZ = 17
  (NGX  = 72   NGY  = 72   NGZ  = 72)
  gives a total of   4913 points

 initial charge density was supplied:
 charge density of overlapping atoms calculated
 number of electron       8.0000000 magnetization       0.0000000
 keeping initial charge density in first step


--------------------------------------------------------------------------------------------------------


 Maximum index for augmentation-charges         1261 (set IRDMAX)


--------------------------------------------------------------------------------------------------------


 First call to EWALD:  gamma=   0.518
 Maximum number of real-space cells 3x 3x 3
 Maximum number of reciprocal cells 3x 3x 3

    FEWALD:  cpu time      0.0015: real time      0.0015


--------------------------------------- Iteration      1(   1)  ---------------------------------------


    POTLOK:  cpu time      0.0233: real time      0.0234
    SETDIJ:  cpu time      0.4926: real time      0.4927
     EDDAV:  cpu time      0.2825: real time      0.2827
 BZINTS: Fermi energy:   10.814088;    8.000000 electrons
         Band energy: 0.226723E+02;  BLOECHL correction:   -0.318230
       DOS:  cpu time      0.0080: real time      0.0080
    --------------------------------------------
      LOOP:  cpu time      0.8064: real time      0.8069

 eigenvalue-minimisations  :   928
 total energy-change (2. order) : 0.8926312E+01  (-0.3841955E+03)
 number of electron       8.0000000 magnetization       0.0000000
 augmentation part        8.0000000 magnetization       0.0000000

 Free energy of the ion-electron system (eV)
  ---------------------------------------------------
  alpha Z        PSCENC =         3.35289172
  Ewald energy   TEWEN  =      -228.30833595
  -Hartree energ DENC   =       -11.05143515
  -exchange      EXHF   =         0.00000000
  -V(xc)+E(xc)   XCENC  =       -17.46719493
  PAW double counting   =       174.95707044     -140.38057629
  entropy T*S    EENTRO =         0.00000000
  eigenvalues    EBANDS =        22.67229254
  atomic energy  EATOM  =       205.15160006
  Solvation  Ediel_sol  =         0.00000000
  ---------------------------------------------------
  free energy    TOTEN  =         8.92631244 eV

  energy without entropy =        8.92631244  energy(sigma->0) =        8.92631244


--------------------------------------------------------------------------------------------------------




--------------------------------------- Iteration      1(   2)  ---------------------------------------


     EDDAV:  cpu time      0.3940: real time      0.3973
 BZINTS: Fermi energy:    5.305897;    8.000000 electrons
         Band energy: 0.231245E+01;  BLOECHL correction:   -0.000000
       DOS:  cpu time      0.0048: real time      0.0048
    --------------------------------------------
      LOOP:  cpu time      0.3988: real time      0.4021

 eigenvalue-minimisations  :  1424
 total energy-change (2. order) :-0.2035985E+02  (-0.1988653E+02)
 number of electron       8.0000000 magnetization       0.0000000
 augmentation part        8.0000000 magnetization       0.0000000

 Free energy of the ion-electron system (eV)
  ---------------------------------------------------
  alpha Z        PSCENC =         3.35289172
  Ewald energy   TEWEN  =      -228.30833595
  -Hartree energ DENC   =       -11.05143515
  -exchange      EXHF   =         0.00000000
  -V(xc)+E(xc)   XCENC  =       -17.46719493
  PAW double counting   =       174.95707044     -140.38057629
  entropy T*S    EENTRO =         0.00000000
  eigenvalues    EBANDS =         2.31244751
  atomic energy  EATOM  =       205.15160006
  Solvation  Ediel_sol  =         0.00000000
  ---------------------------------------------------
  free energy    TOTEN  =       -11.43353259 eV

  energy without entropy =      -11.43353259  energy(sigma->0) =      -11.43353259


--------------------------------------------------------------------------------------------------------




--------------------------------------- Iteration      1(   3)  ---------------------------------------


     EDDAV:  cpu time      0.3284: real time      0.3285
 BZINTS: Fermi energy:    5.212826;    8.000000 electrons
         Band energy: 0.203581E+01;  BLOECHL correction:   -0.000000
       DOS:  cpu time      0.0047: real time      0.0047
    --------------------------------------------
      LOOP:  cpu time      0.3331: real time      0.3333

 eigenvalue-minimisations  :  1192
 total energy-change (2. order) :-0.2766425E+00  (-0.2766425E+00)
 number of electron       8.0000000 magnetization       0.0000000
 augmentation part        8.0000000 magnetization       0.0000000

 Free energy of the ion-electron system (eV)
  ---------------------------------------------------
  alpha Z        PSCENC =         3.35289172
  Ewald energy   TEWEN  =      -228.30833595
  -Hartree energ DENC   =       -11.05143515
  -exchange      EXHF   =         0.00000000
  -V(xc)+E(xc)   XCENC  =       -17.46719493
  PAW double counting   =       174.95707044     -140.38057629
  entropy T*S    EENTRO =         0.00000000
  eigenvalues    EBANDS =         2.03580503
  atomic energy  EATOM  =       205.15160006
  Solvation  Ediel_sol  =         0.00000000
  ---------------------------------------------------
  free energy    TOTEN  =       -11.71017507 eV

  energy without entropy =      -11.71017507  energy(sigma->0) =      -11.71017507


--------------------------------------------------------------------------------------------------------




--------------------------------------- Iteration      1(   4)  ---------------------------------------


     EDDAV:  cpu time      0.3990: real time      0.3993
 BZINTS: Fermi energy:    5.212333;    8.000000 electrons
         Band energy: 0.203438E+01;  BLOECHL correction:    0.000000
       DOS:  cpu time      0.0049: real time      0.0049
    --------------------------------------------
      LOOP:  cpu time      0.4039: real time      0.4042

 eigenvalue-minimisations  :  1456
 total energy-change (2. order) :-0.1429593E-02  (-0.1429593E-02)
 number of electron       8.0000000 magnetization       0.0000000
 augmentation part        8.0000000 magnetization       0.0000000

 Free energy of the ion-electron system (eV)
  ---------------------------------------------------
  alpha Z        PSCENC =         3.35289172
  Ewald energy   TEWEN  =      -228.30833595
  -Hartree energ DENC   =       -11.05143515
  -exchange      EXHF   =         0.00000000
  -V(xc)+E(xc)   XCENC  =       -17.46719493
  PAW double counting   =       174.95707044     -140.38057629
  entropy T*S    EENTRO =         0.00000000
  eigenvalues    EBANDS =         2.03437544
  atomic energy  EATOM  =       205.15160006
  Solvation  Ediel_sol  =         0.00000000
  ---------------------------------------------------
  free energy    TOTEN  =       -11.71160467 eV

  energy without entropy =      -11.71160467  energy(sigma->0) =      -11.71160467


--------------------------------------------------------------------------------------------------------




--------------------------------------- Iteration      1(   5)  ---------------------------------------


     EDDAV:  cpu time      0.3678: real time      0.3680
 BZINTS: Fermi energy:    5.212344;    8.000000 electrons
         Band energy: 0.203437E+01;  BLOECHL correction:    0.000000
       DOS:  cpu time      0.0048: real time      0.0048
    CHARGE:  cpu time      0.0682: real time      0.0684
    MIXING:  cpu time      0.0030: real time      0.0031
    --------------------------------------------
      LOOP:  cpu time      0.4437: real time      0.4443

 eigenvalue-minimisations  :  1208
 total energy-change (2. order) :-0.1197918E-05  (-0.1197918E-05)
 number of electron       8.0000000 magnetization       0.0000000
 augmentation part       -0.4675870 magnetization      -0.0000000

 Broyden mixing:
  rms(total) = 0.49497E+00    rms(broyden)= 0.49497E+00
  rms(prec ) = 0.94053E+00
  weight for this iteration     100.00

 Free energy of the ion-electron system (eV)
  ---------------------------------------------------
  alpha Z        PSCENC =         3.35289172
  Ewald energy   TEWEN  =      -228.30833595
  -Hartree energ DENC   =       -11.05143515
  -exchange      EXHF   =         0.00000000
  -V(xc)+E(xc)   XCENC  =       -17.46719493
  PAW double counting   =       174.95707044     -140.38057629
  entropy T*S    EENTRO =         0.00000000
  eigenvalues    EBANDS =         2.03437424
  atomic energy  EATOM  =       205.15160006
  Solvation  Ediel_sol  =         0.00000000
  ---------------------------------------------------
  free energy    TOTEN  =       -11.71160586 eV

  energy without entropy =      -11.71160586  energy(sigma->0) =      -11.71160586


--------------------------------------------------------------------------------------------------------




--------------------------------------- Iteration      1(   6)  ---------------------------------------


    POTLOK:  cpu time      0.0290: real time      0.0310
    SETDIJ:  cpu time      0.5945: real time      0.5945
     EDDAV:  cpu time      0.3266: real time      0.3267
 BZINTS: Fermi energy:    5.447439;    8.000000 electrons
         Band energy: 0.349773E+01;  BLOECHL correction:    0.000000
       DOS:  cpu time      0.0048: real time      0.0048
    CHARGE:  cpu time      0.0665: real time      0.0671
    MIXING:  cpu time      0.0007: real time      0.0007
    --------------------------------------------
      LOOP:  cpu time      1.0220: real time      1.0249

 eigenvalue-minimisations  :  1176
 total energy-change (2. order) : 0.1532060E+00  (-0.9691801E-02)
 number of electron       8.0000000 magnetization       0.0000000
 augmentation part       -0.4625054 magnetization      -0.0000032

 Broyden mixing:
  rms(total) = 0.29654E+00    rms(broyden)= 0.29654E+00
  rms(prec ) = 0.54792E+00
  weight for this iteration     100.00

 eigenvalues of (default mixing * dielectric matrix)
  average eigenvalue GAMMA=   2.4869
  2.4869

 Free energy of the ion-electron system (eV)
  ---------------------------------------------------
  alpha Z        PSCENC =         3.35289172
  Ewald energy   TEWEN  =      -228.30833595
  -Hartree energ DENC   =       -12.48720118
  -exchange      EXHF   =         0.00000000
  -V(xc)+E(xc)   XCENC  =       -17.24101323
  PAW double counting   =       383.68668658     -349.21075576
  entropy T*S    EENTRO =         0.00000000
  eigenvalues    EBANDS =         3.49772793
  atomic energy  EATOM  =       205.15160006
  Solvation  Ediel_sol  =         0.00000000
  ---------------------------------------------------
  free energy    TOTEN  =       -11.55839983 eV

  energy without entropy =      -11.55839983  energy(sigma->0) =      -11.55839983


--------------------------------------------------------------------------------------------------------




--------------------------------------- Iteration      1(   7)  ---------------------------------------


    POTLOK:  cpu time      0.0224: real time      0.0241
    SETDIJ:  cpu time      0.5901: real time      0.5902
     EDDAV:  cpu time      0.3012: real time      0.3013
 BZINTS: Fermi energy:    5.775008;    8.000000 electrons
         Band energy: 0.554232E+01;  BLOECHL correction:   -0.000000
       DOS:  cpu time      0.0047: real time      0.0048
    CHARGE:  cpu time      0.0628: real time      0.0629
    MIXING:  cpu time      0.0005: real time      0.0005
    --------------------------------------------
      LOOP:  cpu time      0.9817: real time      0.9837

 eigenvalue-minimisations  :  1104
 total energy-change (2. order) : 0.6981564E-01  (-0.1699126E-01)
 number of electron       8.0000000 magnetization      -0.0000000
 augmentation part       -0.4565850 magnetization      -0.0000018

 Broyden mixing:
  rms(total) = 0.18706E-01    rms(broyden)= 0.18706E-01
  rms(prec ) = 0.41472E-01
  weight for this iteration     100.00

 eigenvalues of (default mixing * dielectric matrix)
  average eigenvalue GAMMA=   2.0520
  1.7731  2.3309

 Free energy of the ion-electron system (eV)
  ---------------------------------------------------
  alpha Z        PSCENC =         3.35289172
  Ewald energy   TEWEN  =      -228.30833595
  -Hartree energ DENC   =       -14.70070252
  -exchange      EXHF   =         0.00000000
  -V(xc)+E(xc)   XCENC  =       -16.87232246
  PAW double counting   =       856.04744477     -821.70148208
  entropy T*S    EENTRO =         0.00000000
  eigenvalues    EBANDS =         5.54232226
  atomic energy  EATOM  =       205.15160006
  Solvation  Ediel_sol  =         0.00000000
  ---------------------------------------------------
  free energy    TOTEN  =       -11.48858419 eV

  energy without entropy =      -11.48858419  energy(sigma->0) =      -11.48858419


--------------------------------------------------------------------------------------------------------




--------------------------------------- Iteration      1(   8)  ---------------------------------------


    POTLOK:  cpu time      0.0223: real time      0.0223
    SETDIJ:  cpu time      0.5931: real time      0.5932
     EDDAV:  cpu time      0.3221: real time      0.3222
 BZINTS: Fermi energy:    5.756602;    8.000000 electrons
         Band energy: 0.543409E+01;  BLOECHL correction:   -0.000000
       DOS:  cpu time      0.0048: real time      0.0048
    CHARGE:  cpu time      0.0633: real time      0.0633
    MIXING:  cpu time      0.0005: real time      0.0005
    --------------------------------------------
      LOOP:  cpu time      1.0061: real time      1.0064

 eigenvalue-minimisations  :  1032
 total energy-change (2. order) :-0.4601508E-03  (-0.4351589E-03)
 number of electron       8.0000000 magnetization       0.0000000
 augmentation part       -0.4576784 magnetization       0.0000025

 Broyden mixing:
  rms(total) = 0.70901E-02    rms(broyden)= 0.70901E-02
  rms(prec ) = 0.11377E-01
  weight for this iteration     100.00

 eigenvalues of (default mixing * dielectric matrix)
  average eigenvalue GAMMA=   2.1636
  2.6337  1.9285  1.9285

 Free energy of the ion-electron system (eV)
  ---------------------------------------------------
  alpha Z        PSCENC =         3.35289172
  Ewald energy   TEWEN  =      -228.30833595
  -Hartree energ DENC   =       -14.61343632
  -exchange      EXHF   =         0.00000000
  -V(xc)+E(xc)   XCENC  =       -16.86969448
  PAW double counting   =       868.80833960     -834.44450248
  entropy T*S    EENTRO =         0.00000000
  eigenvalues    EBANDS =         5.43409351
  atomic energy  EATOM  =       205.15160006
  Solvation  Ediel_sol  =         0.00000000
  ---------------------------------------------------
  free energy    TOTEN  =       -11.48904434 eV

  energy without entropy =      -11.48904434  energy(sigma->0) =      -11.48904434


--------------------------------------------------------------------------------------------------------




--------------------------------------- Iteration      1(   9)  ---------------------------------------


    POTLOK:  cpu time      0.0226: real time      0.0246
    SETDIJ:  cpu time      0.5969: real time      0.5970
     EDDAV:  cpu time      0.3947: real time      0.3950
 BZINTS: Fermi energy:    5.761268;    8.000000 electrons
         Band energy: 0.546559E+01;  BLOECHL correction:   -0.000000
       DOS:  cpu time      0.0047: real time      0.0048
    CHARGE:  cpu time      0.0626: real time      0.0626
    MIXING:  cpu time      0.0005: real time      0.0005
    --------------------------------------------
      LOOP:  cpu time      1.0820: real time      1.0845

 eigenvalue-minimisations  :  1440
 total energy-change (2. order) :-0.5526187E-04  (-0.8850234E-05)
 number of electron       8.0000000 magnetization      -0.0000000
 augmentation part       -0.4577515 magnetization      -0.0000021

 Broyden mixing:
  rms(total) = 0.52274E-02    rms(broyden)= 0.52274E-02
  rms(prec ) = 0.59885E-02
  weight for this iteration     100.00

 eigenvalues of (default mixing * dielectric matrix)
  average eigenvalue GAMMA=   1.9018
  2.6426  2.1644  2.1644  0.6358

 Free energy of the ion-electron system (eV)
  ---------------------------------------------------
  alpha Z        PSCENC =         3.35289172
  Ewald energy   TEWEN  =      -228.30833595
  -Hartree energ DENC   =       -14.65242658
  -exchange      EXHF   =         0.00000000
  -V(xc)+E(xc)   XCENC  =       -16.86165828
  PAW double counting   =       872.05285404     -837.68961576
  entropy T*S    EENTRO =         0.00000000
  eigenvalues    EBANDS =         5.46559115
  atomic energy  EATOM  =       205.15160006
  Solvation  Ediel_sol  =         0.00000000
  ---------------------------------------------------
  free energy    TOTEN  =       -11.48909960 eV

  energy without entropy =      -11.48909960  energy(sigma->0) =      -11.48909960


--------------------------------------------------------------------------------------------------------




--------------------------------------- Iteration      1(  10)  ---------------------------------------


    POTLOK:  cpu time      0.0228: real time      0.0228
    SETDIJ:  cpu time      0.5999: real time      0.6000
     EDDAV:  cpu time      0.2843: real time      0.2844
 BZINTS: Fermi energy:    5.761521;    8.000000 electrons
         Band energy: 0.546820E+01;  BLOECHL correction:   -0.000000
       DOS:  cpu time      0.0048: real time      0.0048
    CHARGE:  cpu time      0.0631: real time      0.0631
    MIXING:  cpu time      0.0005: real time      0.0005
    --------------------------------------------
      LOOP:  cpu time      0.9754: real time      0.9756

 eigenvalue-minimisations  :  1040
 total energy-change (2. order) :-0.1051637E-04  (-0.1029566E-05)
 number of electron       8.0000000 magnetization      -0.0000000
 augmentation part       -0.4577560 magnetization       0.0000012

 Broyden mixing:
  rms(total) = 0.11010E-02    rms(broyden)= 0.11010E-02
  rms(prec ) = 0.11697E-02
  weight for this iteration     100.00

 eigenvalues of (default mixing * dielectric matrix)
  average eigenvalue GAMMA=   1.8244
  2.6685  2.6685  2.1405  1.0137  0.6311

 Free energy of the ion-electron system (eV)
  ---------------------------------------------------
  alpha Z        PSCENC =         3.35289172
  Ewald energy   TEWEN  =      -228.30833595
  -Hartree energ DENC   =       -14.65588801
  -exchange      EXHF   =         0.00000000
  -V(xc)+E(xc)   XCENC  =       -16.86120879
  PAW double counting   =       862.56762744     -828.20399481
  entropy T*S    EENTRO =         0.00000000
  eigenvalues    EBANDS =         5.46819822
  atomic energy  EATOM  =       205.15160006
  Solvation  Ediel_sol  =         0.00000000
  ---------------------------------------------------
  free energy    TOTEN  =       -11.48911011 eV

  energy without entropy =      -11.48911011  energy(sigma->0) =      -11.48911011


--------------------------------------------------------------------------------------------------------




--------------------------------------- Iteration      1(  11)  ---------------------------------------


    POTLOK:  cpu time      0.0223: real time      0.0224
    SETDIJ:  cpu time      0.5902: real time      0.5903
     EDDAV:  cpu time      0.4228: real time      0.4231
 BZINTS: Fermi energy:    5.761367;    8.000000 electrons
         Band energy: 0.546727E+01;  BLOECHL correction:   -0.000000
       DOS:  cpu time      0.0048: real time      0.0048
    --------------------------------------------
      LOOP:  cpu time      1.0401: real time      1.0405

 eigenvalue-minimisations  :  1528
 total energy-change (2. order) : 0.7188817E-07  (-0.2540153E-07)
 number of electron       8.0000000 magnetization      -0.0000000
 augmentation part       -0.4577560 magnetization       0.0000012

 Free energy of the ion-electron system (eV)
  ---------------------------------------------------
  alpha Z        PSCENC =         3.35289172
  Ewald energy   TEWEN  =      -228.30833595
  -Hartree energ DENC   =       -14.65513770
  -exchange      EXHF   =         0.00000000
  -V(xc)+E(xc)   XCENC  =       -16.86121518
  PAW double counting   =       862.99361704     -828.62979740
  entropy T*S    EENTRO =         0.00000000
  eigenvalues    EBANDS =         5.46726737
  atomic energy  EATOM  =       205.15160006
  Solvation  Ediel_sol  =         0.00000000
  ---------------------------------------------------
  free energy    TOTEN  =       -11.48911004 eV

  energy without entropy =      -11.48911004  energy(sigma->0) =      -11.48911004


--------------------------------------------------------------------------------------------------------




 average (electrostatic) potential at core
  the test charge radii are     0.9892
  (the norm of the test charge is              1.0000)
       1 -83.0682       2 -83.0682



 E-fermi :   5.7614     XC(G=0):  -9.5416     alpha+bet :-11.9444

 Fermi energy:         5.7613668787

 spin component 1

 k-point     1 :       0.0000    0.0000    0.0000
  band No.  band energies     occupation
      1      -6.2086      1.00000
      2       5.7616      1.00000
      3       5.7616      1.00000
      4       5.7616      1.00000
      5       8.2771      0.00000
      6       8.2771      0.00000
      7       8.2771      0.00000
      8       9.0521      0.00000

 k-point     2 :       0.1250    0.0000    0.0000
  band No.  band energies     occupation
      1      -6.0042      1.00000
      2       4.1497      1.00000
      3       5.4699      1.00000
      4       5.4699      1.00000
      5       8.1985      0.00000
      6       8.7039      0.00000
      7       8.7039      0.00000
      8      10.4047      0.00000

 k-point     3 :       0.2500    0.0000    0.0000
  band No.  band energies     occupation
      1      -5.4075      1.00000
      2       1.8147      1.00000
      3       4.9980      1.00000
      4       4.9980      1.00000
      5       7.7123      0.00000
      6       9.2168      0.00000
      7       9.2168      0.00000
      8      12.5855      0.00000

 k-point     4 :       0.3750    0.0000    0.0000
  band No.  band energies     occupation
      1      -4.5103      1.00000
      2      -0.2108      1.00000
      3       4.6719      1.00000
      4       4.6719      1.00000
      5       7.3450      0.00000
      6       9.1503      0.00000
      7       9.1503      0.00000
      8      13.4419      0.00000

 k-point     5 :       0.5000    0.0000    0.0000
  band No.  band energies     occupation
      1      -3.8662      1.00000
      2      -1.2399      1.00000
      3       4.5605      1.00000
      4       4.5605      1.00000
      5       7.2164      0.00000
      6       9.0351      0.00000
      7       9.0351      0.00000
      8      13.2704      0.00000

 k-point     6 :       0.1250    0.1250    0.0000
  band No.  band energies     occupation
      1      -5.9354      1.00000
      2       4.4221      1.00000
      3       4.9458      1.00000
      4       4.9458      1.00000
      5       7.7026      0.00000
      6       9.4245      0.00000
      7       9.4245      0.00000
      8      10.0859      0.00000

 k-point     7 :       0.2500    0.1250    0.0000
  band No.  band energies     occupation
      1      -5.4659      1.00000
      2       2.5248      1.00000
      3       4.4325      1.00000
      4       4.5054      1.00000
      5       7.8352      0.00000
      6       9.4166      0.00000
      7      10.1860      0.00000
      8      10.4180      0.00000

 k-point     8 :       0.3750    0.1250    0.0000
  band No.  band energies     occupation
      1      -4.6486      1.00000
      2       0.4578      1.00000
      3       3.9095      1.00000
      4       4.1655      1.00000
      5       7.9273      0.00000
      6       9.3408      0.00000
      7      10.1713      0.00000
      8      11.1355      0.00000

 k-point     9 :       0.5000    0.1250    0.0000
  band No.  band energies     occupation
      1      -3.7809      1.00000
      2      -1.0135      1.00000
      3       3.4615      1.00000
      4       4.1924      1.00000
      5       7.8733      0.00000
      6       9.2016      0.00000
      7       9.8001      0.00000
      8      13.0307      0.00000

 k-point    10 :      -0.3750    0.1250    0.0000
  band No.  band energies     occupation
      1      -4.0279      1.00000
      2      -0.6401      1.00000
      3       3.2776      1.00000
      4       4.4918      1.00000
      5       8.0454      0.00000
      6       9.3055      0.00000
      7       9.5674      0.00000
      8      13.5512      0.00000

 k-point    11 :      -0.2500    0.1250    0.0000
  band No.  band energies     occupation
      1      -4.9559      1.00000
      2       1.1194      1.00000
      3       3.4262      1.00000
      4       4.9865      1.00000
      5       8.4124      0.00000
      6       9.3842      0.00000
      7       9.5461      0.00000
      8      11.9611      0.00000

 k-point    12 :      -0.1250    0.1250    0.0000
  band No.  band energies     occupation
      1      -5.6675      1.00000
      2       3.0671      1.00000
      3       4.1100      1.00000
      4       5.4700      1.00000
      5       8.7492      0.00000
      6       8.8368      0.00000
      7       9.0559      0.00000
      8      11.2313      0.00000

 k-point    13 :       0.2500    0.2500    0.0000
  band No.  band energies     occupation
      1      -5.1252      1.00000
      2       2.2417      1.00000
      3       3.8585      1.00000
      4       3.8585      1.00000
      5       6.7973      0.00000
      6       8.7859      0.00000
      7      11.4750      0.00000
      8      11.4750      0.00000

 k-point    14 :       0.3750    0.2500    0.0000
  band No.  band energies     occupation
      1      -4.4138      1.00000
      2       0.8168      1.00000
      3       3.0644      1.00000
      4       3.5402      1.00000
      5       7.0165      0.00000
      6       8.5510      0.00000
      7      11.7018      0.00000
      8      11.9792      0.00000

 k-point    15 :       0.5000    0.2500    0.0000
  band No.  band energies     occupation
      1      -3.4834      1.00000
      2      -0.6316      1.00000
      3       2.1916      1.00000
      4       3.5447      1.00000
      5       7.1777      0.00000
      6      10.1165      0.00000
      7      11.4415      0.00000
      8      11.6225      0.00000

 k-point    16 :      -0.3750    0.2500    0.0000
  band No.  band energies     occupation
      1      -3.2763      1.00000
      2      -0.8930      1.00000
      3       1.7285      1.00000
      4       3.8656      1.00000
      5       7.5058      0.00000
      6      11.1418      0.00000
      7      11.1828      0.00000
      8      12.6392      0.00000

 k-point    17 :      -0.2500    0.2500    0.0000
  band No.  band energies     occupation
      1      -4.1600      1.00000
      2       0.2739      1.00000
      3       1.9671      1.00000
      4       4.4281      1.00000
      5       8.1245      0.00000
      6      10.4990      0.00000
      7      10.8139      0.00000
      8      11.8128      0.00000

 k-point    18 :       0.3750    0.3750    0.0000
  band No.  band energies     occupation
      1      -3.8108      1.00000
      2       0.0150      1.00000
      3       3.1407      1.00000
      4       3.1407      1.00000
      5       6.2690      0.00000
      6       7.1832      0.00000
      7      13.7478      0.00000
      8      13.7478      0.00000

 k-point    19 :       0.5000    0.3750    0.0000
  band No.  band energies     occupation
      1      -2.9112      1.00000
      2      -1.0699      1.00000
      3       2.2924      1.00000
      4       3.0648      1.00000
      5       6.5442      0.00000
      6       7.6284      0.00000
      7      13.9680      0.00000
      8      14.0462      0.00000

 k-point    20 :      -0.3750    0.3750    0.0000
  band No.  band energies     occupation
      1      -2.4664      1.00000
      2      -1.4695      1.00000
      3       1.4117      1.00000
      4       3.3238      1.00000
      5       6.8551      0.00000
      6       9.7997      0.00000
      7      13.1727      0.00000
      8      13.6974      0.00000

 k-point    21 :       0.5000    0.5000    0.0000
  band No.  band energies     occupation
      1      -2.0584      1.00000
      2      -2.0584      1.00000
      3       2.8947      1.00000
      4       2.8947      1.00000
      5       6.3557      0.00000
      6       6.3557      0.00000
      7      15.8004      0.00000
      8      15.8004      0.00000

 k-point    22 :       0.3750    0.2500    0.1250
  band No.  band energies     occupation
      1      -4.8770      1.00000
      2       1.4656      1.00000
      3       3.0176      1.00000
      4       4.3230      1.00000
      5       8.1334      0.00000
      6       9.5925      0.00000
      7       9.8654      0.00000
      8      11.2111      0.00000

 k-point    23 :       0.5000    0.2500    0.1250
  band No.  band energies     occupation
      1      -3.9855      1.00000
      2      -0.0920      1.00000
      3       2.4079      1.00000
      4       3.8155      1.00000
      5       8.5567      0.00000
      6       9.2382      0.00000
      7      10.6947      0.00000
      8      11.6380      0.00000

 k-point    24 :      -0.3750    0.2500    0.1250
  band No.  band energies     occupation
      1      -3.3276      1.00000
      2      -1.0445      1.00000
      3       2.2802      1.00000
      4       3.5834      1.00000
      5       8.7558      0.00000
      6       8.7997      0.00000
      7      11.6131      0.00000
      8      12.7906      0.00000

 k-point    25 :       0.5000    0.3750    0.1250
  band No.  band energies     occupation
      1      -3.6107      1.00000
      2      -0.2033      1.00000
      3       2.3656      1.00000
      4       2.9761      1.00000
      5       7.6200      0.00000
      6       8.3033      0.00000
      7      11.4499      0.00000
      8      13.6956      0.00000

 k-point    26 :      -0.3750    0.3750    0.1250
  band No.  band energies     occupation
      1      -2.7310      1.00000
      2      -1.1735      1.00000
      3       1.6571      1.00000
      4       2.7721      1.00000
      5       8.0558      0.00000
      6       9.9497      0.00000
      7      10.9686      0.00000
      8      13.1229      0.00000

 k-point    27 :      -0.2500    0.3750    0.1250
  band No.  band energies     occupation
      1      -3.0824      1.00000
      2      -0.8104      1.00000
      3       1.4877      1.00000
      4       3.1518      1.00000
      5       8.5399      0.00000
      6      10.2276      0.00000
      7      10.8919      0.00000
      8      12.7083      0.00000

 k-point    28 :      -0.3750    0.5000    0.1250
  band No.  band energies     occupation
      1      -1.9782      1.00000
      2      -1.9782      1.00000
      3       2.3116      1.00000
      4       2.3116      1.00000
      5       7.6340      0.00000
      6       7.6340      0.00000
      7      13.5348      0.00000
      8      13.5348      0.00000

 k-point    29 :      -0.2500    0.5000    0.2500
  band No.  band energies     occupation
      1      -1.8896      1.00000
      2      -1.8896      1.00000
      3       1.8654      1.00000
      4       1.8654      1.00000
      5       9.9336      0.00000
      6       9.9336      0.00000
      7      10.6962      0.00000
      8      10.6962      0.00000
 Fermi energy:         5.7613668787

 spin component 2

 k-point     1 :       0.0000    0.0000    0.0000
  band No.  band energies     occupation
      1      -6.2086      1.00000
      2       5.7616      1.00000
      3       5.7616      1.00000
      4       5.7616      1.00000
      5       8.2771      0.00000
      6       8.2771      0.00000
      7       8.2771      0.00000
      8       9.0521      0.00000

 k-point     2 :       0.1250    0.0000    0.0000
  band No.  band energies     occupation
      1      -6.0042      1.00000
      2       4.1497      1.00000
      3       5.4699      1.00000
      4       5.4699      1.00000
      5       8.1985      0.00000
      6       8.7039      0.00000
      7       8.7039      0.00000
      8      10.4047      0.00000

 k-point     3 :       0.2500    0.0000    0.0000
  band No.  band energies     occupation
      1      -5.4075      1.00000
      2       1.8147      1.00000
      3       4.9980      1.00000
      4       4.9980      1.00000
      5       7.7123      0.00000
      6       9.2168      0.00000
      7       9.2168      0.00000
      8      12.5855      0.00000

 k-point     4 :       0.3750    0.0000    0.0000
  band No.  band energies     occupation
      1      -4.5103      1.00000
      2      -0.2108      1.00000
      3       4.6719      1.00000
      4       4.6719      1.00000
      5       7.3450      0.00000
      6       9.1503      0.00000
      7       9.1503      0.00000
      8      13.4419      0.00000

 k-point     5 :       0.5000    0.0000    0.0000
  band No.  band energies     occupation
      1      -3.8662      1.00000
      2      -1.2399      1.00000
      3       4.5606      1.00000
      4       4.5606      1.00000
      5       7.2164      0.00000
      6       9.0351      0.00000
      7       9.0351      0.00000
      8      13.2704      0.00000

 k-point     6 :       0.1250    0.1250    0.0000
  band No.  band energies     occupation
      1      -5.9354      1.00000
      2       4.4221      1.00000
      3       4.9458      1.00000
      4       4.9458      1.00000
      5       7.7026      0.00000
      6       9.4245      0.00000
      7       9.4245      0.00000
      8      10.0859      0.00000

 k-point     7 :       0.2500    0.1250    0.0000
  band No.  band energies     occupation
      1      -5.4659      1.00000
      2       2.5248      1.00000
      3       4.4325      1.00000
      4       4.5054      1.00000
      5       7.8352      0.00000
      6       9.4166      0.00000
      7      10.1860      0.00000
      8      10.4180      0.00000

 k-point     8 :       0.3750    0.1250    0.0000
  band No.  band energies     occupation
      1      -4.6487      1.00000
      2       0.4578      1.00000
      3       3.9095      1.00000
      4       4.1656      1.00000
      5       7.9273      0.00000
      6       9.3408      0.00000
      7      10.1713      0.00000
      8      11.1355      0.00000

 k-point     9 :       0.5000    0.1250    0.0000
  band No.  band energies     occupation
      1      -3.7809      1.00000
      2      -1.0135      1.00000
      3       3.4615      1.00000
      4       4.1924      1.00000
      5       7.8733      0.00000
      6       9.2016      0.00000
      7       9.8001      0.00000
      8      13.0307      0.00000

 k-point    10 :      -0.3750    0.1250    0.0000
  band No.  band energies     occupation
      1      -4.0279      1.00000
      2      -0.6401      1.00000
      3       3.2776      1.00000
      4       4.4918      1.00000
      5       8.0454      0.00000
      6       9.3055      0.00000
      7       9.5674      0.00000
      8      13.5512      0.00000

 k-point    11 :      -0.2500    0.1250    0.0000
  band No.  band energies     occupation
      1      -4.9559      1.00000
      2       1.1194      1.00000
      3       3.4262      1.00000
      4       4.9865      1.00000
      5       8.4124      0.00000
      6       9.3842      0.00000
      7       9.5461      0.00000
      8      11.9611      0.00000

 k-point    12 :      -0.1250    0.1250    0.0000
  band No.  band energies     occupation
      1      -5.6675      1.00000
      2       3.0671      1.00000
      3       4.1100      1.00000
      4       5.4700      1.00000
      5       8.7492      0.00000
      6       8.8368      0.00000
      7       9.0559      0.00000
      8      11.2313      0.00000

 k-point    13 :       0.2500    0.2500    0.0000
  band No.  band energies     occupation
      1      -5.1252      1.00000
      2       2.2417      1.00000
      3       3.8585      1.00000
      4       3.8585      1.00000
      5       6.7973      0.00000
      6       8.7859      0.00000
      7      11.4750      0.00000
      8      11.4750      0.00000

 k-point    14 :       0.3750    0.2500    0.0000
  band No.  band energies     occupation
      1      -4.4138      1.00000
      2       0.8168      1.00000
      3       3.0644      1.00000
      4       3.5402      1.00000
      5       7.0165      0.00000
      6       8.5510      0.00000
      7      11.7018      0.00000
      8      11.9792      0.00000

 k-point    15 :       0.5000    0.2500    0.0000
  band No.  band energies     occupation
      1      -3.4834      1.00000
      2      -0.6316      1.00000
      3       2.1916      1.00000
      4       3.5447      1.00000
      5       7.1777      0.00000
      6      10.1165      0.00000
      7      11.4415      0.00000
      8      11.6225      0.00000

 k-point    16 :      -0.3750    0.2500    0.0000
  band No.  band energies     occupation
      1      -3.2763      1.00000
      2      -0.8930      1.00000
      3       1.7285      1.00000
      4       3.8656      1.00000
      5       7.5058      0.00000
      6      11.1418      0.00000
      7      11.1828      0.00000
      8      12.6392      0.00000

 k-point    17 :      -0.2500    0.2500    0.0000
  band No.  band energies     occupation
      1      -4.1600      1.00000
      2       0.2739      1.00000
      3       1.9671      1.00000
      4       4.4281      1.00000
      5       8.1245      0.00000
      6      10.4990      0.00000
      7      10.8139      0.00000
      8      11.8128      0.00000

 k-point    18 :       0.3750    0.3750    0.0000
  band No.  band energies     occupation
      1      -3.8108      1.00000
      2       0.0150      1.00000
      3       3.1407      1.00000
      4       3.1407      1.00000
      5       6.2690      0.00000
      6       7.1832      0.00000
      7      13.7478      0.00000
      8      13.7478      0.00000

 k-point    19 :       0.5000    0.3750    0.0000
  band No.  band energies     occupation
      1      -2.9112      1.00000
      2      -1.0699      1.00000
      3       2.2924      1.00000
      4       3.0648      1.00000
      5       6.5442      0.00000
      6       7.6284      0.00000
      7      13.9680      0.00000
      8      14.0462      0.00000

 k-point    20 :      -0.3750    0.3750    0.0000
  band No.  band energies     occupation
      1      -2.4664      1.00000
      2      -1.4695      1.00000
      3       1.4117      1.00000
      4       3.3238      1.00000
      5       6.8551      0.00000
      6       9.7997      0.00000
      7      13.1727      0.00000
      8      13.6973      0.00000

 k-point    21 :       0.5000    0.5000    0.0000
  band No.  band energies     occupation
      1      -2.0584      1.00000
      2      -2.0584      1.00000
      3       2.8947      1.00000
      4       2.8947      1.00000
      5       6.3557      0.00000
      6       6.3557      0.00000
      7      15.8003      0.00000
      8      15.8003      0.00000

 k-point    22 :       0.3750    0.2500    0.1250
  band No.  band energies     occupation
      1      -4.8770      1.00000
      2       1.4655      1.00000
      3       3.0176      1.00000
      4       4.3230      1.00000
      5       8.1334      0.00000
      6       9.5925      0.00000
      7       9.8654      0.00000
      8      11.2111      0.00000

 k-point    23 :       0.5000    0.2500    0.1250
  band No.  band energies     occupation
      1      -3.9855      1.00000
      2      -0.0920      1.00000
      3       2.4079      1.00000
      4       3.8155      1.00000
      5       8.5567      0.00000
      6       9.2382      0.00000
      7      10.6947      0.00000
      8      11.6380      0.00000

 k-point    24 :      -0.3750    0.2500    0.1250
  band No.  band energies     occupation
      1      -3.3276      1.00000
      2      -1.0445      1.00000
      3       2.2802      1.00000
      4       3.5834      1.00000
      5       8.7558      0.00000
      6       8.7997      0.00000
      7      11.6131      0.00000
      8      12.7906      0.00000

 k-point    25 :       0.5000    0.3750    0.1250
  band No.  band energies     occupation
      1      -3.6107      1.00000
      2      -0.2033      1.00000
      3       2.3656      1.00000
      4       2.9761      1.00000
      5       7.6200      0.00000
      6       8.3033      0.00000
      7      11.4499      0.00000
      8      13.6956      0.00000

 k-point    26 :      -0.3750    0.3750    0.1250
  band No.  band energies     occupation
      1      -2.7310      1.00000
      2      -1.1735      1.00000
      3       1.6571      1.00000
      4       2.7721      1.00000
      5       8.0558      0.00000
      6       9.9497      0.00000
      7      10.9686      0.00000
      8      13.1229      0.00000

 k-point    27 :      -0.2500    0.3750    0.1250
  band No.  band energies     occupation
      1      -3.0824      1.00000
      2      -0.8104      1.00000
      3       1.4877      1.00000
      4       3.1518      1.00000
      5       8.5399      0.00000
      6      10.2276      0.00000
      7      10.8919      0.00000
      8      12.7083      0.00000

 k-point    28 :      -0.3750    0.5000    0.1250
  band No.  band energies     occupation
      1      -1.9782      1.00000
      2      -1.9782      1.00000
      3       2.3116      1.00000
      4       2.3116      1.00000
      5       7.6340      0.00000
      6       7.6340      0.00000
      7      13.5348      0.00000
      8      13.5348      0.00000

 k-point    29 :      -0.2500    0.5000    0.2500
  band No.  band energies     occupation
      1      -1.8896      1.00000
      2      -1.8896      1.00000
      3       1.8654      1.00000
      4       1.8654      1.00000
      5       9.9336      0.00000
      6       9.9336      0.00000
      7      10.6962      0.00000
      8      10.6962      0.00000


--------------------------------------------------------------------------------------------------------


 soft charge-density along one line, spin component           1
         0         1         2         3         4         5         6         7         8         9
 total charge-density along one line

 soft charge-density along one line, spin component           2
         0         1         2         3         4         5         6         7         8         9
 total charge-density along one line

 pseudopotential strength for first ion, spin component:           1
 18.405  25.677  -0.000  -0.000  -0.000  -0.000  -0.000  -0.000
 25.677  35.826  -0.000  -0.000  -0.000  -0.000  -0.000  -0.000
 -0.000  -0.000   4.177   0.000   0.000   7.782   0.000   0.000
 -0.000  -0.000   0.000   4.177   0.000   0.000   7.782   0.000
 -0.000  -0.000   0.000   0.000   4.177   0.000   0.000   7.782
 -0.000  -0.000   7.782   0.000   0.000  14.509   0.000   0.000
 -0.000  -0.000   0.000   7.782   0.000   0.000  14.509   0.000
 -0.000  -0.000   0.000   0.000   7.782   0.000   0.000  14.509
 pseudopotential strength for first ion, spin component:           2
 18.405  25.677  -0.000  -0.000  -0.000  -0.000  -0.000  -0.000
 25.677  35.826  -0.000  -0.000  -0.000  -0.000  -0.000  -0.000
 -0.000  -0.000   4.177   0.000   0.000   7.782   0.000   0.000
 -0.000  -0.000   0.000   4.177   0.000   0.000   7.782   0.000
 -0.000  -0.000   0.000   0.000   4.177   0.000   0.000   7.782
 -0.000  -0.000   7.782   0.000   0.000  14.509   0.000   0.000
 -0.000  -0.000   0.000   7.782   0.000   0.000  14.509   0.000
 -0.000  -0.000   0.000   0.000   7.782   0.000   0.000  14.509
 total augmentation occupancy for first ion, spin component:           1
  5.894  -2.260   0.000   0.000   0.000   0.000   0.000  -0.000
 -2.260   0.977  -0.000  -0.000  -0.000   0.000   0.000   0.000
  0.000  -0.000   2.927  -0.000   0.000  -0.653   0.000  -0.000
  0.000  -0.000  -0.000   2.927  -0.000   0.000  -0.653   0.000
 -0.000  -0.000   0.000  -0.000   2.927  -0.000  -0.000  -0.653
 -0.000   0.000  -0.653   0.000  -0.000   0.155  -0.000   0.000
 -0.000   0.000   0.000  -0.653  -0.000  -0.000   0.155  -0.000
 -0.000   0.000  -0.000  -0.000  -0.653   0.000  -0.000   0.155
 total augmentation occupancy for first ion, spin component:           2
 -0.000   0.000   0.000   0.000  -0.000   0.000   0.000   0.000
  0.000  -0.000   0.000   0.000   0.000   0.000   0.000   0.000
  0.000   0.000  -0.000   0.000  -0.000   0.000  -0.000   0.000
  0.000   0.000   0.000  -0.000   0.000  -0.000   0.000   0.000
 -0.000   0.000  -0.000   0.000  -0.000   0.000  -0.000   0.000
  0.000   0.000   0.000  -0.000   0.000  -0.000   0.000  -0.000
  0.000   0.000  -0.000   0.000  -0.000   0.000  -0.000   0.000
  0.000   0.000   0.000   0.000   0.000  -0.000   0.000  -0.000


------------------------ aborting loop because EDIFF is reached ----------------------------------------





 total charge

# of ion       s       p       d       tot
------------------------------------------
    1        0.752   0.937   0.000   1.689
    2        0.752   0.937   0.000   1.689
--------------------------------------------------
tot          1.503   1.874   0.000   3.378



 magnetization (x)

# of ion       s       p       d       tot
------------------------------------------
    1       -0.000  -0.000   0.000  -0.000
    2       -0.000  -0.000   0.000  -0.000
--------------------------------------------------
tot         -0.000  -0.000   0.000  -0.000

    CHARGE:  cpu time      0.0631: real time      0.0631
    FORLOC:  cpu time      0.0004: real time      0.0004
    FORNL :  cpu time      0.0164: real time      0.0165
    STRESS:  cpu time      0.0660: real time      0.0660
    FORCOR:  cpu time      0.0203: real time      0.0203
    FORHAR:  cpu time      0.0026: real time      0.0026
    MIXING:  cpu time      0.0006: real time      0.0006
    OFIELD:  cpu time      0.0001: real time      0.0002

  FORCE on cell =-STRESS in cart. coord.  units (eV):
  Direction    XX          YY          ZZ          XY          YZ          ZX
  --------------------------------------------------------------------------------------
  Alpha Z     3.35289     3.35289     3.35289
  Ewald     -76.10281   -76.10281   -76.10281     0.00000     0.00000     0.00000
  Hartree     4.88528     4.88528     4.88528     0.00000     0.00000     0.00000
  E(xc)     -25.53432   -25.53432   -25.53432    -0.00000    -0.00000    -0.00000
  Local     -29.07565   -29.07565   -29.07565     0.00000     0.00000     0.00000
  n-local    78.68255    79.82327    74.13446     2.29319    -1.21648     0.60869
  augment   -11.51017   -11.51017   -11.51017    -0.00000    -0.00000    -0.00000
  Kinetic    58.48475    55.89972    54.92801     3.52055    -0.68405     0.97040
  Fock        0.00000     0.00000     0.00000     0.00000     0.00000     0.00000
  -------------------------------------------------------------------------------------
  Total      -0.00053    -0.00053    -0.00053    -0.00000     0.00000    -0.00000
  in kB      -0.02115    -0.02115    -0.02115    -0.00000     0.00000    -0.00000
  external pressure =       -0.02 kB  Pullay stress =        0.00 kB


 VOLUME and BASIS-vectors are now :
 -----------------------------------------------------------------------------
  energy-cutoff  :      680.00
  volume of cell :       40.16
      direct lattice vectors                 reciprocal lattice vectors
    -0.000000000  2.718034660  2.718034660    -0.183956447  0.183956447  0.183956447
     2.718034660 -0.000000000  2.718034660     0.183956447 -0.183956447  0.183956447
     2.718034660  2.718034660 -0.000000000     0.183956447  0.183956447 -0.183956447

  length of vectors
     3.843881479  3.843881479  3.843881479     0.318621913  0.318621913  0.318621913


 FORCES acting on ions
    electron-ion (+dipol)            ewald-force                    non-local-force                 convergence-correction
 -----------------------------------------------------------------------------------------------
   0.537E-08 0.537E-08 0.423E-08   0.738E-15 0.422E-14 -.183E-13   -.187E-16 0.160E-16 -.362E-19   -.121E-09 -.121E-09 -.121E-09
   -.537E-08 -.537E-08 -.423E-08   -.834E-15 -.366E-14 0.182E-13   0.221E-16 -.195E-16 -.686E-17   0.121E-09 0.121E-09 0.121E-09
 -----------------------------------------------------------------------------------------------
   0.888E-13 0.290E-13 -.100E-13   -.960E-16 0.562E-15 -.821E-16   0.338E-17 -.356E-17 -.689E-17   -.338E-15 -.387E-15 0.219E-14


 POSITION                                       TOTAL-FORCE (eV/Angst)
 -----------------------------------------------------------------------------------
      0.00000      0.00000      0.00000         0.000000      0.000000      0.000000
      1.35902      1.35902      1.35902        -0.000000     -0.000000     -0.000000
 -----------------------------------------------------------------------------------
    total drift:                                0.000000      0.000000     -0.000000


--------------------------------------------------------------------------------------------------------



  FREE ENERGIE OF THE ION-ELECTRON SYSTEM (eV)
  ---------------------------------------------------
  free  energy   TOTEN  =       -11.48911004 eV

  energy  without entropy=      -11.48911004  energy(sigma->0) =      -11.48911004



--------------------------------------------------------------------------------------------------------


    POTLOK:  cpu time      0.6020: real time      0.6020


--------------------------------------------------------------------------------------------------------


     LOOP+:  cpu time     10.9282: real time     10.9532
    4ORBIT:  cpu time      0.0000: real time      0.0000



 total charge

# of ion       s       p       d       tot
------------------------------------------
    1        0.752   0.937   0.000   1.689
    2        0.752   0.937   0.000   1.689
--------------------------------------------------
tot          1.503   1.874   0.000   3.378



 magnetization (x)

# of ion       s       p       d       tot
------------------------------------------
    1       -0.000  -0.000   0.000  -0.000
    2       -0.000  -0.000   0.000  -0.000
--------------------------------------------------
tot         -0.000  -0.000   0.000  -0.000

 BZINTS: Fermi energy:    5.761367;    8.000000 electrons
         Band energy: 0.546727E+01;  BLOECHL correction:   -0.000000

 total amount of memory used by VASP MPI-rank0    31216. kBytes
=======================================================================

   base      :      30000. kBytes
   nonl-proj :        166. kBytes
   fftplans  :        276. kBytes
   grid      :        590. kBytes
   one-center:          6. kBytes
   wavefun   :        178. kBytes



 General timing and accounting informations for this job:
 ========================================================

                  Total CPU time used (sec):       13.580
                            User time (sec):       13.175
                          System time (sec):        0.405
                         Elapsed time (sec):       14.031

                   Maximum memory used (kb):      194756.
                   Average memory used (kb):          N/A

                          Minor page faults:        36200
                          Major page faults:            0
                 Voluntary context switches:         1839
