<?xml version="1.0" encoding="ISO-8859-1"?>
<modeling>
 <generator>
  <i name="program" type="string">vasp </i>
  <i name="version" type="string">6.3.1  </i>
  <i name="subversion" type="string">04May22 (build May  6 2022 16:02:18) complex                          parallel </i>
  <i name="platform" type="string">LinuxGNU </i>
  <i name="date" type="string">2023 03 22 </i>
  <i name="time" type="string">13:00:26 </i>
 </generator>
 <incar>
  <i type="string" name="PREC">Accurate</i>
  <i type="string" name="ALGO">Normal</i>
  <i type="int" name="ISPIN">     2</i>
  <i type="int" name="NELM">   200</i>
  <i type="int" name="IBRION">     2</i>
  <i name="EDIFF">      0.00000010</i>
  <i type="int" name="NSW">     0</i>
  <i type="int" name="ISIF">     2</i>
  <i name="ENCUT">    680.00000000</i>
  <i name="ENAUG">   1360.00000000</i>
  <i type="int" name="NBANDS">     8</i>
  <v name="MAGMOM">     -0.00000000     -0.00000000</v>
  <i type="logical" name="LREAL"> F  </i>
  <i type="int" name="ISMEAR">    -5</i>
  <i name="SIGMA">      0.05000000</i>
  <i type="logical" name="LWAVE"> F  </i>
  <i type="logical" name="LCHARG"> T  </i>
  <i type="logical" name="LVTOT"> F  </i>
  <i type="int" name="LORBIT">    11</i>
  <i type="logical" name="LELF"> F  </i>
  <i type="logical" name="LASPH"> T  </i>
  <i type="logical" name="LAECHG"> F  </i>
  <i type="string" name="GGA">Ps</i>
  <i type="logical" name="LMIXTAU"> T  </i>
 </incar>
 <primitive_cell>
  <structure name="primitive_cell" >
   <crystal>
    <varray name="basis" >
     <v>      -0.00000000       2.71803466       2.71803466 </v>
     <v>       2.71803466      -0.00000000       2.71803466 </v>
     <v>       2.71803466       2.71803466      -0.00000000 </v>
    </varray>
    <i name="volume">     40.16011677 </i>
    <varray name="rec_basis" >
     <v>      -0.18395645       0.18395645       0.18395645 </v>
     <v>       0.18395645      -0.18395645       0.18395645 </v>
     <v>       0.18395645       0.18395645      -0.18395645 </v>
    </varray>
   </crystal>
   <varray name="positions" >
    <v>       0.00000000       0.00000000       0.00000000 </v>
    <v>       0.25000000       0.25000000       0.25000000 </v>
   </varray>
  </structure>
  <varray name="primitive_index" >
   <v type="int" >        1 </v>
   <v type="int" >        2 </v>
  </varray>
 </primitive_cell>
 <kpoints>
  <generation param="Gamma">
   <v type="int" name="divisions">       8        8        8 </v>
   <v name="usershift">      0.00000000       0.00000000       0.00000000 </v>
   <v name="genvec1">      0.12500000       0.00000000      -0.00000000 </v>
   <v name="genvec2">      0.00000000       0.12500000       0.00000000 </v>
   <v name="genvec3">     -0.00000000      -0.00000000       0.12500000 </v>
   <v name="shift">      0.00000000       0.00000000       0.00000000 </v>
  </generation>
  <varray name="kpointlist" >
   <v>       0.00000000       0.00000000       0.00000000 </v>
   <v>       0.12500000       0.00000000       0.00000000 </v>
   <v>       0.25000000       0.00000000       0.00000000 </v>
   <v>       0.37500000       0.00000000       0.00000000 </v>
   <v>       0.50000000       0.00000000       0.00000000 </v>
   <v>       0.12500000       0.12500000       0.00000000 </v>
   <v>       0.25000000       0.12500000       0.00000000 </v>
   <v>       0.37500000       0.12500000       0.00000000 </v>
   <v>       0.50000000       0.12500000       0.00000000 </v>
   <v>      -0.37500000       0.12500000       0.00000000 </v>
   <v>      -0.25000000       0.12500000       0.00000000 </v>
   <v>      -0.12500000       0.12500000       0.00000000 </v>
   <v>       0.25000000       0.25000000       0.00000000 </v>
   <v>       0.37500000       0.25000000       0.00000000 </v>
   <v>       0.50000000       0.25000000       0.00000000 </v>
   <v>      -0.37500000       0.25000000       0.00000000 </v>
   <v>      -0.25000000       0.25000000       0.00000000 </v>
   <v>       0.37500000       0.37500000       0.00000000 </v>
   <v>       0.50000000       0.37500000       0.00000000 </v>
   <v>      -0.37500000       0.37500000       0.00000000 </v>
   <v>       0.50000000       0.50000000       0.00000000 </v>
   <v>       0.37500000       0.25000000       0.12500000 </v>
   <v>       0.50000000       0.25000000       0.12500000 </v>
   <v>      -0.37500000       0.25000000       0.12500000 </v>
   <v>       0.50000000       0.37500000       0.12500000 </v>
   <v>      -0.37500000       0.37500000       0.12500000 </v>
   <v>      -0.25000000       0.37500000       0.12500000 </v>
   <v>      -0.37500000       0.50000000       0.12500000 </v>
   <v>      -0.25000000       0.50000000       0.25000000 </v>
  </varray>
  <varray name="weights" >
   <v>       0.00195312 </v>
   <v>       0.01562500 </v>
   <v>       0.01562500 </v>
   <v>       0.01562500 </v>
   <v>       0.00781250 </v>
   <v>       0.01171875 </v>
   <v>       0.04687500 </v>
   <v>       0.04687500 </v>
   <v>       0.04687500 </v>
   <v>       0.04687500 </v>
   <v>       0.04687500 </v>
   <v>       0.02343750 </v>
   <v>       0.01171875 </v>
   <v>       0.04687500 </v>
   <v>       0.04687500 </v>
   <v>       0.04687500 </v>
   <v>       0.02343750 </v>
   <v>       0.01171875 </v>
   <v>       0.04687500 </v>
   <v>       0.02343750 </v>
   <v>       0.00585938 </v>
   <v>       0.04687500 </v>
   <v>       0.09375000 </v>
   <v>       0.04687500 </v>
   <v>       0.04687500 </v>
   <v>       0.09375000 </v>
   <v>       0.04687500 </v>
   <v>       0.02343750 </v>
   <v>       0.01171875 </v>
  </varray>
  <varray name="tetrahedronlist"  type="int" >
   <v type="int" >       48        2        3        7       12 </v>
   <v type="int" >       48        7       11       12       22 </v>
   <v type="int" >       24       11       11       12       22 </v>
   <v type="int" >       48        3        7       11       12 </v>
   <v type="int" >       48       11       17       22       23 </v>
   <v type="int" >       48       10       11       17       23 </v>
   <v type="int" >       24       11       11       17       22 </v>
   <v type="int" >       48       10       16       23       24 </v>
   <v type="int" >       48        9       10       16       24 </v>
   <v type="int" >       48       10       16       17       23 </v>
   <v type="int" >       48        9       15       23       24 </v>
   <v type="int" >       48        8        9       15       23 </v>
   <v type="int" >       48        9       15       16       24 </v>
   <v type="int" >       48        8       14       22       23 </v>
   <v type="int" >       48        7        8       14       22 </v>
   <v type="int" >       48        8       14       15       23 </v>
   <v type="int" >       24        7        7       13       22 </v>
   <v type="int" >       24        6        7        7       13 </v>
   <v type="int" >       48        7       13       14       22 </v>
   <v type="int" >       24        6        7        7       12 </v>
   <v type="int" >       48        2        6        7       12 </v>
   <v type="int" >       48        7        8       11       22 </v>
   <v type="int" >       48        3        7        8       11 </v>
   <v type="int" >       48       14       22       23       25 </v>
   <v type="int" >       24       22       23       23       25 </v>
   <v type="int" >       24       17       22       23       23 </v>
   <v type="int" >       48        8       11       22       23 </v>
   <v type="int" >       48       23       25       26       27 </v>
   <v type="int" >       48       23       24       26       27 </v>
   <v type="int" >       48       16       23       24       27 </v>
   <v type="int" >       24       23       23       25       27 </v>
   <v type="int" >       24       17       23       23       27 </v>
   <v type="int" >       48       16       17       23       27 </v>
   <v type="int" >       48       24       26       26       27 </v>
   <v type="int" >       48       15       23       24       26 </v>
   <v type="int" >       48       16       24       26       27 </v>
   <v type="int" >       48       15       16       24       26 </v>
   <v type="int" >       48       15       23       25       26 </v>
   <v type="int" >       48       14       15       23       25 </v>
   <v type="int" >       24       14       14       22       25 </v>
   <v type="int" >       24       13       14       14       22 </v>
   <v type="int" >       24        7        7       12       22 </v>
   <v type="int" >       48       14       15       19       25 </v>
   <v type="int" >       48       19       25       26       28 </v>
   <v type="int" >       24       25       26       26       28 </v>
   <v type="int" >       24       25       26       26       27 </v>
   <v type="int" >       48       15       19       25       26 </v>
   <v type="int" >       48       26       26       28       29 </v>
   <v type="int" >       96       26       26       27       29 </v>
   <v type="int" >       48        8        9       10       23 </v>
   <v type="int" >       48        8       10       11       23 </v>
   <v type="int" >       24       19       19       20       28 </v>
   <v type="int" >       48       19       20       26       28 </v>
   <v type="int" >       48       15       19       20       26 </v>
   <v type="int" >       24       20       26       26       28 </v>
   <v type="int" >       48        9        9       10       24 </v>
   <v type="int" >       48        9       10       23       24 </v>
   <v type="int" >       24        2        2        6       12 </v>
   <v type="int" >       48        3        4        8       11 </v>
   <v type="int" >       48        4        8       10       11 </v>
   <v type="int" >       24       16       16       17       27 </v>
   <v type="int" >       48       16       20       26       27 </v>
   <v type="int" >       48       15       16       20       26 </v>
   <v type="int" >       24       16       16       20       27 </v>
   <v type="int" >       24       14       14       18       25 </v>
   <v type="int" >       24       13       14       14       18 </v>
   <v type="int" >       48       14       18       19       25 </v>
   <v type="int" >       48        4        8        9       10 </v>
   <v type="int" >       24       20       26       26       27 </v>
   <v type="int" >       24       19       19       25       28 </v>
   <v type="int" >       24       18       19       19       25 </v>
   <v type="int" >       48        4        5        9       10 </v>
   <v type="int" >       48        5        9        9       10 </v>
   <v type="int" >       48       19       19       21       28 </v>
   <v type="int" >       24       18       19       19       21 </v>
   <v type="int" >       24        1        2        2        6 </v>
  </varray>
  <i name="volumeweight">      0.00032552 </i>
 </kpoints>
 <parameters>
  <separator name="general" >
   <i type="string" name="SYSTEM">unknown system</i>
   <i type="logical" name="LCOMPAT"> F  </i>
  </separator>
  <separator name="electronic" >
   <i type="string" name="PREC">accura</i>
   <i name="ENMAX">    680.00000000</i>
   <i name="ENAUG">   1360.00000000</i>
   <i name="EDIFF">      0.00000010</i>
   <i type="int" name="IALGO">    38</i>
   <i type="int" name="IWAVPR">    10</i>
   <i type="int" name="NBANDS">     8</i>
   <i type="int" name="NBANDSLOW">    -1</i>
   <i type="int" name="NBANDSHIGH">    -1</i>
   <i name="NELECT">      8.00000000</i>
   <i type="int" name="TURBO">     0</i>
   <i type="int" name="IRESTART">     0</i>
   <i type="int" name="NREBOOT">     0</i>
   <i type="int" name="NMIN">     0</i>
   <i name="EREF">      0.00000000</i>
   <separator name="electronic smearing" >
    <i type="int" name="ISMEAR">    -5</i>
    <i name="SIGMA">      0.05000000</i>
    <i name="KSPACING">      0.50000000</i>
    <i type="logical" name="KGAMMA"> T  </i>
    <i type="logical" name="KBLOWUP"> T  </i>
   </separator>
   <separator name="electronic projectors" >
    <i type="logical" name="LREAL"> F  </i>
    <v name="ROPT">      0.00000000</v>
    <i type="int" name="LMAXPAW">  -100</i>
    <i type="int" name="LMAXMIX">     2</i>
    <i type="logical" name="NLSPLINE"> F  </i>
   </separator>
   <separator name="electronic startup" >
    <i type="int" name="ISTART">     0</i>
    <i type="int" name="ICHARG">     2</i>
    <i type="int" name="INIWAV">     1</i>
   </separator>
   <separator name="electronic spin" >
    <i type="int" name="ISPIN">     2</i>
    <i type="logical" name="LNONCOLLINEAR"> F  </i>
    <v name="MAGMOM">     -0.00000000     -0.00000000</v>
    <i name="NUPDOWN">     -1.00000000</i>
    <i type="logical" name="LSORBIT"> F  </i>
    <v name="SAXIS">      0.00000000      0.00000000      1.00000000</v>
    <i type="logical" name="LSPIRAL"> F  </i>
    <v name="QSPIRAL">      0.00000000      0.00000000      0.00000000</v>
    <i type="logical" name="LZEROZ"> F  </i>
   </separator>
   <separator name="electronic exchange-correlation" >
    <i type="logical" name="LASPH"> T  </i>
    <i type="logical" name="LMETAGGA"> F  </i>
   </separator>
   <separator name="electronic convergence" >
    <i type="int" name="NELM">   200</i>
    <i type="int" name="NELMDL">    -5</i>
    <i type="int" name="NELMIN">     2</i>
    <i name="ENINI">    680.00000000</i>
    <separator name="electronic convergence detail" >
     <i type="logical" name="LDIAG"> T  </i>
     <i type="logical" name="LSUBROT"> F  </i>
     <i name="WEIMIN">      0.00000000</i>
     <i name="EBREAK">      0.00000000</i>
     <i name="DEPER">      0.30000000</i>
     <i type="int" name="NRMM">     4</i>
     <i name="TIME">      0.40000000</i>
    </separator>
   </separator>
   <separator name="electronic mixer" >
    <i name="AMIX">      0.40000000</i>
    <i name="BMIX">      1.00000000</i>
    <i name="AMIN">      0.10000000</i>
    <i name="AMIX_MAG">      1.60000000</i>
    <i name="BMIX_MAG">      1.00000000</i>
    <separator name="electronic mixer details" >
     <i type="int" name="IMIX">     4</i>
     <i type="logical" name="MIXFIRST"> F  </i>
     <i type="int" name="MAXMIX">   -45</i>
     <i name="WC">    100.00000000</i>
     <i type="int" name="INIMIX">     1</i>
     <i type="int" name="MIXPRE">     1</i>
     <i type="int" name="MREMOVE">     5</i>
    </separator>
   </separator>
   <separator name="electronic dipolcorrection" >
    <i type="logical" name="LDIPOL"> F  </i>
    <i type="logical" name="LMONO"> F  </i>
    <i type="int" name="IDIPOL">     0</i>
    <i name="EPSILON">      1.00000000</i>
    <v name="DIPOL">   -100.00000000   -100.00000000   -100.00000000</v>
    <i name="EFIELD">      0.00000000</i>
   </separator>
  </separator>
  <separator name="grids" >
   <i type="int" name="NGX">    36</i>
   <i type="int" name="NGY">    36</i>
   <i type="int" name="NGZ">    36</i>
   <i type="int" name="NGXF">    72</i>
   <i type="int" name="NGYF">    72</i>
   <i type="int" name="NGZF">    72</i>
   <i type="logical" name="ADDGRID"> F  </i>
  </separator>
  <separator name="ionic" >
   <i type="int" name="NSW">     0</i>
   <i type="int" name="IBRION">    -1</i>
   <i type="int" name="MDALGO">     0</i>
   <i type="int" name="ISIF">     2</i>
   <i name="PSTRESS">      0.00000000</i>
   <i name="EDIFFG">      0.00000100</i>
   <i type="int" name="NFREE">     1</i>
   <i name="POTIM">      0.50000000</i>
   <i name="SMASS">     -3.00000000</i>
   <i name="SCALEE">      1.00000000</i>
  </separator>
  <separator name="ionic md" >
   <i name="TEBEG">      0.00010000</i>
   <i name="TEEND">      0.00010000</i>
   <i type="int" name="NBLOCK">     1</i>
   <i type="int" name="KBLOCK">     1</i>
   <i type="int" name="NPACO">   256</i>
   <i name="APACO">     10.00000000</i>
  </separator>
  <separator name="symmetry" >
   <i type="int" name="ISYM">     2</i>
   <i name="SYMPREC">      0.00001000</i>
  </separator>
  <separator name="dos" >
   <i type="int" name="LORBIT">    11</i>
   <v name="RWIGS">     -1.00000000</v>
   <i type="int" name="NEDOS">   301</i>
   <i name="EMIN">     10.00000000</i>
   <i name="EMAX">    -10.00000000</i>
   <i name="EFERMI">      0.00000000</i>
  </separator>
  <separator name="writing" >
   <i type="int" name="NWRITE">     2</i>
   <i type="logical" name="LWAVE"> F  </i>
   <i type="logical" name="LDOWNSAMPLE"> F  </i>
   <i type="logical" name="LCHARG"> T  </i>
   <i type="logical" name="LPARD"> F  </i>
   <i type="logical" name="LVTOT"> F  </i>
   <i type="logical" name="LVHAR"> F  </i>
   <i type="logical" name="LELF"> F  </i>
   <i type="logical" name="LOPTICS"> F  </i>
   <v name="STM">      0.00000000      0.00000000      0.00000000      0.00000000      0.00000000      0.00000000      0.00000000</v>
  </separator>
  <separator name="performance" >
   <i type="int" name="NPAR">     4</i>
   <i type="int" name="NSIM">     4</i>
   <i type="int" name="NBLK">    -1</i>
   <i type="logical" name="LPLANE"> T  </i>
   <i type="logical" name="LSCALAPACK"> T  </i>
   <i type="logical" name="LSCAAWARE"> F  </i>
   <i type="logical" name="LSCALU"> F  </i>
   <i type="logical" name="LASYNC"> F  </i>
   <i type="logical" name="LORBITALREAL"> F  </i>
  </separator>
  <separator name="miscellaneous" >
   <i type="int" name="IDIOT">     3</i>
   <i type="int" name="PHON_NSTRUCT">    -1</i>
   <i type="logical" name="LMUSIC"> F  </i>
   <v name="POMASS">     28.08500000</v>
   <v name="DARWINR">      0.00000000</v>
   <v name="DARWINV">      1.00000000</v>
   <i type="logical" name="LCORR"> T  </i>
  </separator>
  <i type="logical" name="GGA_COMPAT"> T  </i>
  <i type="logical" name="LBERRY"> F  </i>
  <i type="int" name="ICORELEVEL">     0</i>
  <i type="logical" name="LDAU"> F  </i>
  <i type="int" name="I_CONSTRAINED_M">     0</i>
  <separator name="electronic exchange-correlation" >
   <i type="string" name="GGA">PS</i>
   <i type="int" name="VOSKOWN">     0</i>
   <i type="logical" name="LHFCALC"> F  </i>
   <i type="string" name="PRECFOCK"></i>
   <i type="logical" name="LSYMGRAD"> F  </i>
   <i type="logical" name="LHFONE"> F  </i>
   <i type="logical" name="LRHFCALC"> F  </i>
   <i type="logical" name="LTHOMAS"> F  </i>
   <i type="logical" name="LMODELHF"> F  </i>
   <i type="logical" name="LFOCKACE"> F  </i>
   <i name="ENCUT4O">     -1.00000000</i>
   <i type="int" name="EXXOEP">     0</i>
   <i type="int" name="FOURORBIT">     0</i>
   <i name="AEXX">      0.00000000</i>
   <i name="HFALPHA">      0.00000000</i>
   <i name="MCALPHA">      0.00000000</i>
   <i name="ALDAX">      1.00000000</i>
   <i name="AGGAX">      1.00000000</i>
   <i name="ALDAC">      1.00000000</i>
   <i name="AGGAC">      1.00000000</i>
   <i type="int" name="NKREDX">     1</i>
   <i type="int" name="NKREDY">     1</i>
   <i type="int" name="NKREDZ">     1</i>
   <i type="logical" name="SHIFTRED"> F  </i>
   <i type="logical" name="ODDONLY"> F  </i>
   <i type="logical" name="EVENONLY"> F  </i>
   <i type="int" name="LMAXFOCK">     0</i>
   <i type="int" name="NMAXFOCKAE">     0</i>
   <i type="logical" name="LFOCKAEDFT"> F  </i>
   <i name="HFSCREEN">      0.00000000</i>
   <i name="HFSCREENC">      0.00000000</i>
   <i type="int" name="NBANDSGWLOW">     0</i>
  </separator>
  <separator name="vdW DFT" >
   <i type="logical" name="LUSE_VDW"> F  </i>
   <i name="Zab_VDW">     -0.84910000</i>
   <i name="PARAM1">      0.12340000</i>
   <i name="PARAM2">      1.00000000</i>
   <i name="PARAM3">      0.00000000</i>
  </separator>
  <separator name="model GW" >
   <i type="int" name="MODEL_GW">     0</i>
   <i name="MODEL_EPS0">     12.04803503</i>
   <i name="MODEL_ALPHA">      1.00000000</i>
  </separator>
  <separator name="linear response parameters" >
   <i type="logical" name="LEPSILON"> F  </i>
   <i type="logical" name="LRPA"> F  </i>
   <i type="logical" name="LNABLA"> F  </i>
   <i type="logical" name="LVEL"> F  </i>
   <i name="CSHIFT">      0.10000000</i>
   <i name="OMEGAMAX">     -1.00000000</i>
   <i name="DEG_THRESHOLD">      0.00200000</i>
   <i name="RTIME">     -0.10000000</i>
   <i name="WPLASMAI">      0.00000000</i>
   <v name="DFIELD">      0.00000000      0.00000000      0.00000000</v>
   <v name="WPLASMA">      0.00000000      0.00000000      0.00000000      0.00000000      0.00000000      0.00000000      0.00000000      0.00000000      0.00000000</v>
  </separator>
  <separator name="orbital magnetization" >
   <i type="logical" name="NUCIND"> F  </i>
   <v name="MAGPOS">      0.00000000      0.00000000      0.00000000</v>
   <i type="logical" name="LNICSALL"> T  </i>
   <i type="logical" name="ORBITALMAG"> F  </i>
   <i type="logical" name="LMAGBLOCH"> F  </i>
   <i type="logical" name="LCHIMAG"> F  </i>
   <i type="logical" name="LGAUGE"> T  </i>
   <i type="int" name="MAGATOM">     0</i>
   <v name="MAGDIPOL">      0.00000000      0.00000000      0.00000000</v>
   <v name="AVECCONST">      0.00000000      0.00000000      0.00000000</v>
  </separator>
  <separator name="response functions" >
   <i type="logical" name="LFINITE_TEMPERATURE"> F  </i>
   <i type="logical" name="LADDER"> F  </i>
   <i type="logical" name="LRPAFORCE"> F  </i>
   <i type="logical" name="LFXC"> F  </i>
   <i type="logical" name="LHARTREE"> T  </i>
   <i type="int" name="IBSE">     0</i>
   <v type="int" name="KPOINT">    -1     0     0     0</v>
   <i type="logical" name="LTCTC"> F  </i>
   <i type="logical" name="LTCTE"> F  </i>
   <i type="logical" name="LTETE"> F  </i>
   <i type="logical" name="LTRIPLET"> F  </i>
   <i type="logical" name="LFXCEPS"> F  </i>
   <i type="logical" name="LFXHEG"> F  </i>
   <i type="int" name="NATURALO">     2</i>
   <i type="logical" name="LHOLEGF"> F  </i>
   <i type="logical" name="L2ORDER"> F  </i>
   <i type="logical" name="LDMP1"> F  </i>
   <i type="logical" name="LMP2LT"> F  </i>
   <i type="logical" name="LSMP2LT"> F  </i>
   <i type="logical" name="LGWLF"> F  </i>
   <i name="ENCUTGW">     -2.00000000</i>
   <i name="ENCUTGWSOFT">     -2.00000000</i>
   <i name="ENCUTLF">     -1.00000000</i>
   <i type="logical" name="LESF_SPLINES"> F  </i>
   <i type="int" name="LMAXMP2">    -1</i>
   <i name="SCISSOR">      0.00000000</i>
   <i type="int" name="NOMEGA">     0</i>
   <i type="int" name="NOMEGAR">     0</i>
   <i type="int" name="NBANDSGW">    -1</i>
   <i type="int" name="NBANDSO">    -1</i>
   <i type="int" name="NBANDSV">    -1</i>
   <i type="int" name="NELMGW">     1</i>
   <i type="int" name="NELMHF">     1</i>
   <i type="int" name="DIM">     3</i>
   <i type="int" name="IESPILON">     4</i>
   <i type="int" name="ANTIRES">     0</i>
   <i name="OMEGAMAX">    -30.00000000</i>
   <i name="OMEGAMIN">    -30.00000000</i>
   <i name="OMEGATL">   -200.00000000</i>
   <i type="int" name="OMEGAGRID">     0</i>
   <i name="CSHIFT">     -0.10000000</i>
   <i type="logical" name="LSELFENERGY"> F  </i>
   <i type="logical" name="LSPECTRAL"> F  </i>
   <i type="logical" name="LSPECTRALGW"> F  </i>
   <i type="logical" name="LSINGLES"> F  </i>
   <i type="logical" name="LFERMIGW"> F  </i>
   <i type="logical" name="ODDONLYGW"> F  </i>
   <i type="logical" name="EVENONLYGW"> F  </i>
   <i type="int" name="NKREDLFX">     1</i>
   <i type="int" name="NKREDLFY">     1</i>
   <i type="int" name="NKREDLFZ">     1</i>
   <i type="int" name="MAXMEM">  2800</i>
   <i type="int" name="TELESCOPE">     0</i>
   <i type="int" name="NTAUPAR">    -1</i>
   <i type="int" name="NOMEGAPAR">    -1</i>
   <i name="DAMP_NEWTON">      0.80000001</i>
   <i name="LAMBDA">      1.00000000</i>
  </separator>
  <separator name="External order field" >
   <i name="OFIELD_KAPPA">      0.00000000</i>
   <v name="OFIELD_K">      0.00000000      0.00000000      0.00000000</v>
   <i name="OFIELD_Q6_NEAR">      0.00000000</i>
   <i name="OFIELD_Q6_FAR">      0.00000000</i>
   <i name="OFIELD_A">      0.00000000</i>
  </separator>
  <separator name="optional k-points parameters" >
   <i type="int" name="KPOINTS_OPT_MODE">     1</i>
   <i type="logical" name="LKPOINTS_OPT"> F  </i>
  </separator>
 </parameters>
 <atominfo>
  <atoms>       2 </atoms>
  <types>       1 </types>
  <array name="atoms" >
   <dimension dim="1">ion</dimension>
   <field type="string">element</field>
   <field type="int">atomtype</field>
   <set>
    <rc><c>Si</c><c>   1</c></rc>
    <rc><c>Si</c><c>   1</c></rc>
   </set>
  </array>
  <array name="atomtypes" >
   <dimension dim="1">type</dimension>
   <field type="int">atomspertype</field>
   <field type="string">element</field>
   <field>mass</field>
   <field>valence</field>
   <field type="string">pseudopotential</field>
   <set>
    <rc><c>   2</c><c>Si</c><c>     28.08500000</c><c>      4.00000000</c><c>  PAW_PBE Si 05Jan2001                  </c></rc>
   </set>
  </array>
 </atominfo>
 <structure name="initialpos" >
  <crystal>
   <varray name="basis" >
    <v>      -0.00000000       2.71803466       2.71803466 </v>
    <v>       2.71803466      -0.00000000       2.71803466 </v>
    <v>       2.71803466       2.71803466      -0.00000000 </v>
   </varray>
   <i name="volume">     40.16011677 </i>
   <varray name="rec_basis" >
    <v>      -0.18395645       0.18395645       0.18395645 </v>
    <v>       0.18395645      -0.18395645       0.18395645 </v>
    <v>       0.18395645       0.18395645      -0.18395645 </v>
   </varray>
  </crystal>
  <varray name="positions" >
   <v>       0.00000000       0.00000000       0.00000000 </v>
   <v>       0.25000000       0.25000000       0.25000000 </v>
  </varray>
 </structure>
 <calculation>
  <scstep>
   <time name="dav">    0.28    0.28</time>
   <time name="total">    0.81    0.81</time>
   <energy>
    <i name="alphaZ">      3.35289172 </i>
    <i name="ewald">   -228.30833595 </i>
    <i name="hartreedc">    -11.05143515 </i>
    <i name="XCdc">    -17.46719493 </i>
    <i name="pawpsdc">    174.95707044 </i>
    <i name="pawaedc">   -140.38057629 </i>
    <i name="eentropy">      0.00000000 </i>
    <i name="bandstr">     22.67229254 </i>
    <i name="atom">    205.15160006 </i>
    <i name="e_fr_energy">      8.92631244 </i>
    <i name="e_wo_entrp">      8.92631244 </i>
    <i name="e_0_energy">      8.92631244 </i>
   </energy>
  </scstep>
  <scstep>
   <time name="dav">    0.39    0.40</time>
   <time name="total">    0.40    0.40</time>
   <energy>
    <i name="e_fr_energy">    -11.43353259 </i>
    <i name="e_wo_entrp">    -11.43353259 </i>
    <i name="e_0_energy">    -11.43353259 </i>
   </energy>
  </scstep>
  <scstep>
   <time name="dav">    0.33    0.33</time>
   <time name="total">    0.33    0.33</time>
   <energy>
    <i name="e_fr_energy">    -11.71017507 </i>
    <i name="e_wo_entrp">    -11.71017507 </i>
    <i name="e_0_energy">    -11.71017507 </i>
   </energy>
  </scstep>
  <scstep>
   <time name="dav">    0.40    0.40</time>
   <time name="total">    0.40    0.40</time>
   <energy>
    <i name="e_fr_energy">    -11.71160467 </i>
    <i name="e_wo_entrp">    -11.71160467 </i>
    <i name="e_0_energy">    -11.71160467 </i>
   </energy>
  </scstep>
  <scstep>
   <time name="dav">    0.37    0.37</time>
   <time name="total">    0.44    0.44</time>
   <energy>
    <i name="e_fr_energy">    -11.71160586 </i>
    <i name="e_wo_entrp">    -11.71160586 </i>
    <i name="e_0_energy">    -11.71160586 </i>
   </energy>
  </scstep>
  <scstep>
   <time name="dav">    0.33    0.33</time>
   <time name="total">    1.02    1.02</time>
   <energy>
    <i name="e_fr_energy">    -11.55839983 </i>
    <i name="e_wo_entrp">    -11.55839983 </i>
    <i name="e_0_energy">    -11.55839983 </i>
   </energy>
  </scstep>
  <scstep>
   <time name="dav">    0.30    0.30</time>
   <time name="total">    0.98    0.98</time>
   <energy>
    <i name="e_fr_energy">    -11.48858419 </i>
    <i name="e_wo_entrp">    -11.48858419 </i>
    <i name="e_0_energy">    -11.48858419 </i>
   </energy>
  </scstep>
  <scstep>
   <time name="dav">    0.32    0.32</time>
   <time name="total">    1.01    1.01</time>
   <energy>
    <i name="e_fr_energy">    -11.48904434 </i>
    <i name="e_wo_entrp">    -11.48904434 </i>
    <i name="e_0_energy">    -11.48904434 </i>
   </energy>
  </scstep>
  <scstep>
   <time name="dav">    0.39    0.39</time>
   <time name="total">    1.08    1.08</time>
   <energy>
    <i name="e_fr_energy">    -11.48909960 </i>
    <i name="e_wo_entrp">    -11.48909960 </i>
    <i name="e_0_energy">    -11.48909960 </i>
   </energy>
  </scstep>
  <scstep>
   <time name="dav">    0.28    0.28</time>
   <time name="total">    0.98    0.98</time>
   <energy>
    <i name="e_fr_energy">    -11.48911011 </i>
    <i name="e_wo_entrp">    -11.48911011 </i>
    <i name="e_0_energy">    -11.48911011 </i>
   </energy>
  </scstep>
  <scstep>
   <time name="dav">    0.42    0.42</time>
   <time name="total">    1.04    1.04</time>
   <energy>
    <i name="alphaZ">      3.35289172 </i>
    <i name="ewald">   -228.30833595 </i>
    <i name="hartreedc">    -14.65513770 </i>
    <i name="XCdc">    -16.86121518 </i>
    <i name="pawpsdc">    862.99361704 </i>
    <i name="pawaedc">   -828.62979740 </i>
    <i name="eentropy">      0.00000000 </i>
    <i name="bandstr">      5.46726737 </i>
    <i name="atom">    205.15160006 </i>
    <i name="e_fr_energy">    -11.48911004 </i>
    <i name="e_wo_entrp">    -11.48911004 </i>
    <i name="e_0_energy">    -11.48911004 </i>
   </energy>
  </scstep>
  <structure>
   <crystal>
    <varray name="basis" >
     <v>      -0.00000000       2.71803466       2.71803466 </v>
     <v>       2.71803466      -0.00000000       2.71803466 </v>
     <v>       2.71803466       2.71803466      -0.00000000 </v>
    </varray>
    <i name="volume">     40.16011677 </i>
    <varray name="rec_basis" >
     <v>      -0.18395645       0.18395645       0.18395645 </v>
     <v>       0.18395645      -0.18395645       0.18395645 </v>
     <v>       0.18395645       0.18395645      -0.18395645 </v>
    </varray>
   </crystal>
   <varray name="positions" >
    <v>       0.00000000       0.00000000       0.00000000 </v>
    <v>       0.25000000       0.25000000       0.25000000 </v>
   </varray>
  </structure>
  <varray name="forces" >
   <v>       0.00000000       0.00000000       0.00000000 </v>
   <v>      -0.00000000      -0.00000000      -0.00000000 </v>
  </varray>
  <varray name="stress" >
   <v>      -0.02115493      -0.00000000      -0.00000000 </v>
   <v>      -0.00000000      -0.02115493       0.00000000 </v>
   <v>       0.00000000       0.00000000      -0.02115493 </v>
  </varray>
  <energy>
   <i name="e_fr_energy">    -11.48911004 </i>
   <i name="e_wo_entrp">    -11.48911004 </i>
   <i name="e_0_energy">    -11.48911004 </i>
  </energy>
  <time name="totalsc">   10.93   10.95</time>
  <eigenvalues>
   <array>
    <dimension dim="1">band</dimension>
    <dimension dim="2">kpoint</dimension>
    <dimension dim="3">spin</dimension>
    <field>eigene</field>
    <field>occ</field>
    <set>
     <set comment="spin 1">
      <set comment="kpoint 1">
       <r>   -6.2086    1.0000 </r>
       <r>    5.7616    1.0000 </r>
       <r>    5.7616    1.0000 </r>
       <r>    5.7616    1.0000 </r>
       <r>    8.2771    0.0000 </r>
       <r>    8.2771    0.0000 </r>
       <r>    8.2771    0.0000 </r>
       <r>    9.0521    0.0000 </r>
      </set>
      <set comment="kpoint 2">
       <r>   -6.0042    1.0000 </r>
       <r>    4.1497    1.0000 </r>
       <r>    5.4699    1.0000 </r>
       <r>    5.4699    1.0000 </r>
       <r>    8.1985    0.0000 </r>
       <r>    8.7039    0.0000 </r>
       <r>    8.7039    0.0000 </r>
       <r>   10.4047    0.0000 </r>
      </set>
      <set comment="kpoint 3">
       <r>   -5.4075    1.0000 </r>
       <r>    1.8147    1.0000 </r>
       <r>    4.9980    1.0000 </r>
       <r>    4.9980    1.0000 </r>
       <r>    7.7123    0.0000 </r>
       <r>    9.2168    0.0000 </r>
       <r>    9.2168    0.0000 </r>
       <r>   12.5855    0.0000 </r>
      </set>
      <set comment="kpoint 4">
       <r>   -4.5103    1.0000 </r>
       <r>   -0.2108    1.0000 </r>
       <r>    4.6719    1.0000 </r>
       <r>    4.6719    1.0000 </r>
       <r>    7.3450    0.0000 </r>
       <r>    9.1503    0.0000 </r>
       <r>    9.1503    0.0000 </r>
       <r>   13.4419    0.0000 </r>
      </set>
      <set comment="kpoint 5">
       <r>   -3.8662    1.0000 </r>
       <r>   -1.2399    1.0000 </r>
       <r>    4.5605    1.0000 </r>
       <r>    4.5605    1.0000 </r>
       <r>    7.2164    0.0000 </r>
       <r>    9.0351    0.0000 </r>
       <r>    9.0351    0.0000 </r>
       <r>   13.2704    0.0000 </r>
      </set>
      <set comment="kpoint 6">
       <r>   -5.9354    1.0000 </r>
       <r>    4.4221    1.0000 </r>
       <r>    4.9458    1.0000 </r>
       <r>    4.9458    1.0000 </r>
       <r>    7.7026    0.0000 </r>
       <r>    9.4245    0.0000 </r>
       <r>    9.4245    0.0000 </r>
       <r>   10.0859    0.0000 </r>
      </set>
      <set comment="kpoint 7">
       <r>   -5.4659    1.0000 </r>
       <r>    2.5248    1.0000 </r>
       <r>    4.4325    1.0000 </r>
       <r>    4.5054    1.0000 </r>
       <r>    7.8352    0.0000 </r>
       <r>    9.4166    0.0000 </r>
       <r>   10.1860    0.0000 </r>
       <r>   10.4180    0.0000 </r>
      </set>
      <set comment="kpoint 8">
       <r>   -4.6486    1.0000 </r>
       <r>    0.4578    1.0000 </r>
       <r>    3.9095    1.0000 </r>
       <r>    4.1655    1.0000 </r>
       <r>    7.9273    0.0000 </r>
       <r>    9.3408    0.0000 </r>
       <r>   10.1713    0.0000 </r>
       <r>   11.1355    0.0000 </r>
      </set>
      <set comment="kpoint 9">
       <r>   -3.7809    1.0000 </r>
       <r>   -1.0135    1.0000 </r>
       <r>    3.4615    1.0000 </r>
       <r>    4.1924    1.0000 </r>
       <r>    7.8733    0.0000 </r>
       <r>    9.2016    0.0000 </r>
       <r>    9.8001    0.0000 </r>
       <r>   13.0307    0.0000 </r>
      </set>
      <set comment="kpoint 10">
       <r>   -4.0279    1.0000 </r>
       <r>   -0.6401    1.0000 </r>
       <r>    3.2776    1.0000 </r>
       <r>    4.4918    1.0000 </r>
       <r>    8.0454    0.0000 </r>
       <r>    9.3055    0.0000 </r>
       <r>    9.5674    0.0000 </r>
       <r>   13.5512    0.0000 </r>
      </set>
      <set comment="kpoint 11">
       <r>   -4.9559    1.0000 </r>
       <r>    1.1194    1.0000 </r>
       <r>    3.4262    1.0000 </r>
       <r>    4.9865    1.0000 </r>
       <r>    8.4124    0.0000 </r>
       <r>    9.3842    0.0000 </r>
       <r>    9.5461    0.0000 </r>
       <r>   11.9611    0.0000 </r>
      </set>
      <set comment="kpoint 12">
       <r>   -5.6675    1.0000 </r>
       <r>    3.0671    1.0000 </r>
       <r>    4.1100    1.0000 </r>
       <r>    5.4700    1.0000 </r>
       <r>    8.7492    0.0000 </r>
       <r>    8.8368    0.0000 </r>
       <r>    9.0559    0.0000 </r>
       <r>   11.2313    0.0000 </r>
      </set>
      <set comment="kpoint 13">
       <r>   -5.1252    1.0000 </r>
       <r>    2.2417    1.0000 </r>
       <r>    3.8585    1.0000 </r>
       <r>    3.8585    1.0000 </r>
       <r>    6.7973    0.0000 </r>
       <r>    8.7859    0.0000 </r>
       <r>   11.4750    0.0000 </r>
       <r>   11.4750    0.0000 </r>
      </set>
      <set comment="kpoint 14">
       <r>   -4.4138    1.0000 </r>
       <r>    0.8168    1.0000 </r>
       <r>    3.0644    1.0000 </r>
       <r>    3.5402    1.0000 </r>
       <r>    7.0165    0.0000 </r>
       <r>    8.5510    0.0000 </r>
       <r>   11.7018    0.0000 </r>
       <r>   11.9792    0.0000 </r>
      </set>
      <set comment="kpoint 15">
       <r>   -3.4834    1.0000 </r>
       <r>   -0.6316    1.0000 </r>
       <r>    2.1916    1.0000 </r>
       <r>    3.5447    1.0000 </r>
       <r>    7.1777    0.0000 </r>
       <r>   10.1165    0.0000 </r>
       <r>   11.4415    0.0000 </r>
       <r>   11.6225    0.0000 </r>
      </set>
      <set comment="kpoint 16">
       <r>   -3.2763    1.0000 </r>
       <r>   -0.8930    1.0000 </r>
       <r>    1.7285    1.0000 </r>
       <r>    3.8656    1.0000 </r>
       <r>    7.5058    0.0000 </r>
       <r>   11.1418    0.0000 </r>
       <r>   11.1828    0.0000 </r>
       <r>   12.6392    0.0000 </r>
      </set>
      <set comment="kpoint 17">
       <r>   -4.1600    1.0000 </r>
       <r>    0.2739    1.0000 </r>
       <r>    1.9671    1.0000 </r>
       <r>    4.4281    1.0000 </r>
       <r>    8.1245    0.0000 </r>
       <r>   10.4990    0.0000 </r>
       <r>   10.8139    0.0000 </r>
       <r>   11.8128    0.0000 </r>
      </set>
      <set comment="kpoint 18">
       <r>   -3.8108    1.0000 </r>
       <r>    0.0150    1.0000 </r>
       <r>    3.1407    1.0000 </r>
       <r>    3.1407    1.0000 </r>
       <r>    6.2690    0.0000 </r>
       <r>    7.1832    0.0000 </r>
       <r>   13.7478    0.0000 </r>
       <r>   13.7478    0.0000 </r>
      </set>
      <set comment="kpoint 19">
       <r>   -2.9112    1.0000 </r>
       <r>   -1.0699    1.0000 </r>
       <r>    2.2924    1.0000 </r>
       <r>    3.0648    1.0000 </r>
       <r>    6.5442    0.0000 </r>
       <r>    7.6284    0.0000 </r>
       <r>   13.9680    0.0000 </r>
       <r>   14.0462    0.0000 </r>
      </set>
      <set comment="kpoint 20">
       <r>   -2.4664    1.0000 </r>
       <r>   -1.4695    1.0000 </r>
       <r>    1.4117    1.0000 </r>
       <r>    3.3238    1.0000 </r>
       <r>    6.8551    0.0000 </r>
       <r>    9.7997    0.0000 </r>
       <r>   13.1727    0.0000 </r>
       <r>   13.6974    0.0000 </r>
      </set>
      <set comment="kpoint 21">
       <r>   -2.0584    1.0000 </r>
       <r>   -2.0584    1.0000 </r>
       <r>    2.8947    1.0000 </r>
       <r>    2.8947    1.0000 </r>
       <r>    6.3557    0.0000 </r>
       <r>    6.3557    0.0000 </r>
       <r>   15.8004    0.0000 </r>
       <r>   15.8004    0.0000 </r>
      </set>
      <set comment="kpoint 22">
       <r>   -4.8770    1.0000 </r>
       <r>    1.4656    1.0000 </r>
       <r>    3.0176    1.0000 </r>
       <r>    4.3230    1.0000 </r>
       <r>    8.1334    0.0000 </r>
       <r>    9.5925    0.0000 </r>
       <r>    9.8654    0.0000 </r>
       <r>   11.2111    0.0000 </r>
      </set>
      <set comment="kpoint 23">
       <r>   -3.9855    1.0000 </r>
       <r>   -0.0920    1.0000 </r>
       <r>    2.4079    1.0000 </r>
       <r>    3.8155    1.0000 </r>
       <r>    8.5567    0.0000 </r>
       <r>    9.2382    0.0000 </r>
       <r>   10.6947    0.0000 </r>
       <r>   11.6380    0.0000 </r>
      </set>
      <set comment="kpoint 24">
       <r>   -3.3276    1.0000 </r>
       <r>   -1.0445    1.0000 </r>
       <r>    2.2802    1.0000 </r>
       <r>    3.5834    1.0000 </r>
       <r>    8.7558    0.0000 </r>
       <r>    8.7997    0.0000 </r>
       <r>   11.6131    0.0000 </r>
       <r>   12.7906    0.0000 </r>
      </set>
      <set comment="kpoint 25">
       <r>   -3.6107    1.0000 </r>
       <r>   -0.2033    1.0000 </r>
       <r>    2.3656    1.0000 </r>
       <r>    2.9761    1.0000 </r>
       <r>    7.6200    0.0000 </r>
       <r>    8.3033    0.0000 </r>
       <r>   11.4499    0.0000 </r>
       <r>   13.6956    0.0000 </r>
      </set>
      <set comment="kpoint 26">
       <r>   -2.7310    1.0000 </r>
       <r>   -1.1735    1.0000 </r>
       <r>    1.6571    1.0000 </r>
       <r>    2.7721    1.0000 </r>
       <r>    8.0558    0.0000 </r>
       <r>    9.9497    0.0000 </r>
       <r>   10.9686    0.0000 </r>
       <r>   13.1229    0.0000 </r>
      </set>
      <set comment="kpoint 27">
       <r>   -3.0824    1.0000 </r>
       <r>   -0.8104    1.0000 </r>
       <r>    1.4877    1.0000 </r>
       <r>    3.1518    1.0000 </r>
       <r>    8.5399    0.0000 </r>
       <r>   10.2276    0.0000 </r>
       <r>   10.8919    0.0000 </r>
       <r>   12.7083    0.0000 </r>
      </set>
      <set comment="kpoint 28">
       <r>   -1.9782    1.0000 </r>
       <r>   -1.9782    1.0000 </r>
       <r>    2.3116    1.0000 </r>
       <r>    2.3116    1.0000 </r>
       <r>    7.6340    0.0000 </r>
       <r>    7.6340    0.0000 </r>
       <r>   13.5348    0.0000 </r>
       <r>   13.5348    0.0000 </r>
      </set>
      <set comment="kpoint 29">
       <r>   -1.8896    1.0000 </r>
       <r>   -1.8896    1.0000 </r>
       <r>    1.8654    1.0000 </r>
       <r>    1.8654    1.0000 </r>
       <r>    9.9336    0.0000 </r>
       <r>    9.9336    0.0000 </r>
       <r>   10.6962    0.0000 </r>
       <r>   10.6962    0.0000 </r>
      </set>
     </set>
     <set comment="spin 2">
      <set comment="kpoint 1">
       <r>   -6.2086    1.0000 </r>
       <r>    5.7616    1.0000 </r>
       <r>    5.7616    1.0000 </r>
       <r>    5.7616    1.0000 </r>
       <r>    8.2771    0.0000 </r>
       <r>    8.2771    0.0000 </r>
       <r>    8.2771    0.0000 </r>
       <r>    9.0521    0.0000 </r>
      </set>
      <set comment="kpoint 2">
       <r>   -6.0042    1.0000 </r>
       <r>    4.1497    1.0000 </r>
       <r>    5.4699    1.0000 </r>
       <r>    5.4699    1.0000 </r>
       <r>    8.1985    0.0000 </r>
       <r>    8.7039    0.0000 </r>
       <r>    8.7039    0.0000 </r>
       <r>   10.4047    0.0000 </r>
      </set>
      <set comment="kpoint 3">
       <r>   -5.4075    1.0000 </r>
       <r>    1.8147    1.0000 </r>
       <r>    4.9980    1.0000 </r>
       <r>    4.9980    1.0000 </r>
       <r>    7.7123    0.0000 </r>
       <r>    9.2168    0.0000 </r>
       <r>    9.2168    0.0000 </r>
       <r>   12.5855    0.0000 </r>
      </set>
      <set comment="kpoint 4">
       <r>   -4.5103    1.0000 </r>
       <r>   -0.2108    1.0000 </r>
       <r>    4.6719    1.0000 </r>
       <r>    4.6719    1.0000 </r>
       <r>    7.3450    0.0000 </r>
       <r>    9.1503    0.0000 </r>
       <r>    9.1503    0.0000 </r>
       <r>   13.4419    0.0000 </r>
      </set>
      <set comment="kpoint 5">
       <r>   -3.8662    1.0000 </r>
       <r>   -1.2399    1.0000 </r>
       <r>    4.5606    1.0000 </r>
       <r>    4.5606    1.0000 </r>
       <r>    7.2164    0.0000 </r>
       <r>    9.0351    0.0000 </r>
       <r>    9.0351    0.0000 </r>
       <r>   13.2704    0.0000 </r>
      </set>
      <set comment="kpoint 6">
       <r>   -5.9354    1.0000 </r>
       <r>    4.4221    1.0000 </r>
       <r>    4.9458    1.0000 </r>
       <r>    4.9458    1.0000 </r>
       <r>    7.7026    0.0000 </r>
       <r>    9.4245    0.0000 </r>
       <r>    9.4245    0.0000 </r>
       <r>   10.0859    0.0000 </r>
      </set>
      <set comment="kpoint 7">
       <r>   -5.4659    1.0000 </r>
       <r>    2.5248    1.0000 </r>
       <r>    4.4325    1.0000 </r>
       <r>    4.5054    1.0000 </r>
       <r>    7.8352    0.0000 </r>
       <r>    9.4166    0.0000 </r>
       <r>   10.1860    0.0000 </r>
       <r>   10.4180    0.0000 </r>
      </set>
      <set comment="kpoint 8">
       <r>   -4.6487    1.0000 </r>
       <r>    0.4578    1.0000 </r>
       <r>    3.9095    1.0000 </r>
       <r>    4.1656    1.0000 </r>
       <r>    7.9273    0.0000 </r>
       <r>    9.3408    0.0000 </r>
       <r>   10.1713    0.0000 </r>
       <r>   11.1355    0.0000 </r>
      </set>
      <set comment="kpoint 9">
       <r>   -3.7809    1.0000 </r>
       <r>   -1.0135    1.0000 </r>
       <r>    3.4615    1.0000 </r>
       <r>    4.1924    1.0000 </r>
       <r>    7.8733    0.0000 </r>
       <r>    9.2016    0.0000 </r>
       <r>    9.8001    0.0000 </r>
       <r>   13.0307    0.0000 </r>
      </set>
      <set comment="kpoint 10">
       <r>   -4.0279    1.0000 </r>
       <r>   -0.6401    1.0000 </r>
       <r>    3.2776    1.0000 </r>
       <r>    4.4918    1.0000 </r>
       <r>    8.0454    0.0000 </r>
       <r>    9.3055    0.0000 </r>
       <r>    9.5674    0.0000 </r>
       <r>   13.5512    0.0000 </r>
      </set>
      <set comment="kpoint 11">
       <r>   -4.9559    1.0000 </r>
       <r>    1.1194    1.0000 </r>
       <r>    3.4262    1.0000 </r>
       <r>    4.9865    1.0000 </r>
       <r>    8.4124    0.0000 </r>
       <r>    9.3842    0.0000 </r>
       <r>    9.5461    0.0000 </r>
       <r>   11.9611    0.0000 </r>
      </set>
      <set comment="kpoint 12">
       <r>   -5.6675    1.0000 </r>
       <r>    3.0671    1.0000 </r>
       <r>    4.1100    1.0000 </r>
       <r>    5.4700    1.0000 </r>
       <r>    8.7492    0.0000 </r>
       <r>    8.8368    0.0000 </r>
       <r>    9.0559    0.0000 </r>
       <r>   11.2313    0.0000 </r>
      </set>
      <set comment="kpoint 13">
       <r>   -5.1252    1.0000 </r>
       <r>    2.2417    1.0000 </r>
       <r>    3.8585    1.0000 </r>
       <r>    3.8585    1.0000 </r>
       <r>    6.7973    0.0000 </r>
       <r>    8.7859    0.0000 </r>
       <r>   11.4750    0.0000 </r>
       <r>   11.4750    0.0000 </r>
      </set>
      <set comment="kpoint 14">
       <r>   -4.4138    1.0000 </r>
       <r>    0.8168    1.0000 </r>
       <r>    3.0644    1.0000 </r>
       <r>    3.5402    1.0000 </r>
       <r>    7.0165    0.0000 </r>
       <r>    8.5510    0.0000 </r>
       <r>   11.7018    0.0000 </r>
       <r>   11.9792    0.0000 </r>
      </set>
      <set comment="kpoint 15">
       <r>   -3.4834    1.0000 </r>
       <r>   -0.6316    1.0000 </r>
       <r>    2.1916    1.0000 </r>
       <r>    3.5447    1.0000 </r>
       <r>    7.1777    0.0000 </r>
       <r>   10.1165    0.0000 </r>
       <r>   11.4415    0.0000 </r>
       <r>   11.6225    0.0000 </r>
      </set>
      <set comment="kpoint 16">
       <r>   -3.2763    1.0000 </r>
       <r>   -0.8930    1.0000 </r>
       <r>    1.7285    1.0000 </r>
       <r>    3.8656    1.0000 </r>
       <r>    7.5058    0.0000 </r>
       <r>   11.1418    0.0000 </r>
       <r>   11.1828    0.0000 </r>
       <r>   12.6392    0.0000 </r>
      </set>
      <set comment="kpoint 17">
       <r>   -4.1600    1.0000 </r>
       <r>    0.2739    1.0000 </r>
       <r>    1.9671    1.0000 </r>
       <r>    4.4281    1.0000 </r>
       <r>    8.1245    0.0000 </r>
       <r>   10.4990    0.0000 </r>
       <r>   10.8139    0.0000 </r>
       <r>   11.8128    0.0000 </r>
      </set>
      <set comment="kpoint 18">
       <r>   -3.8108    1.0000 </r>
       <r>    0.0150    1.0000 </r>
       <r>    3.1407    1.0000 </r>
       <r>    3.1407    1.0000 </r>
       <r>    6.2690    0.0000 </r>
       <r>    7.1832    0.0000 </r>
       <r>   13.7478    0.0000 </r>
       <r>   13.7478    0.0000 </r>
      </set>
      <set comment="kpoint 19">
       <r>   -2.9112    1.0000 </r>
       <r>   -1.0699    1.0000 </r>
       <r>    2.2924    1.0000 </r>
       <r>    3.0648    1.0000 </r>
       <r>    6.5442    0.0000 </r>
       <r>    7.6284    0.0000 </r>
       <r>   13.9680    0.0000 </r>
       <r>   14.0462    0.0000 </r>
      </set>
      <set comment="kpoint 20">
       <r>   -2.4664    1.0000 </r>
       <r>   -1.4695    1.0000 </r>
       <r>    1.4117    1.0000 </r>
       <r>    3.3238    1.0000 </r>
       <r>    6.8551    0.0000 </r>
       <r>    9.7997    0.0000 </r>
       <r>   13.1727    0.0000 </r>
       <r>   13.6973    0.0000 </r>
      </set>
      <set comment="kpoint 21">
       <r>   -2.0584    1.0000 </r>
       <r>   -2.0584    1.0000 </r>
       <r>    2.8947    1.0000 </r>
       <r>    2.8947    1.0000 </r>
       <r>    6.3557    0.0000 </r>
       <r>    6.3557    0.0000 </r>
       <r>   15.8003    0.0000 </r>
       <r>   15.8003    0.0000 </r>
      </set>
      <set comment="kpoint 22">
       <r>   -4.8770    1.0000 </r>
       <r>    1.4655    1.0000 </r>
       <r>    3.0176    1.0000 </r>
       <r>    4.3230    1.0000 </r>
       <r>    8.1334    0.0000 </r>
       <r>    9.5925    0.0000 </r>
       <r>    9.8654    0.0000 </r>
       <r>   11.2111    0.0000 </r>
      </set>
      <set comment="kpoint 23">
       <r>   -3.9855    1.0000 </r>
       <r>   -0.0920    1.0000 </r>
       <r>    2.4079    1.0000 </r>
       <r>    3.8155    1.0000 </r>
       <r>    8.5567    0.0000 </r>
       <r>    9.2382    0.0000 </r>
       <r>   10.6947    0.0000 </r>
       <r>   11.6380    0.0000 </r>
      </set>
      <set comment="kpoint 24">
       <r>   -3.3276    1.0000 </r>
       <r>   -1.0445    1.0000 </r>
       <r>    2.2802    1.0000 </r>
       <r>    3.5834    1.0000 </r>
       <r>    8.7558    0.0000 </r>
       <r>    8.7997    0.0000 </r>
       <r>   11.6131    0.0000 </r>
       <r>   12.7906    0.0000 </r>
      </set>
      <set comment="kpoint 25">
       <r>   -3.6107    1.0000 </r>
       <r>   -0.2033    1.0000 </r>
       <r>    2.3656    1.0000 </r>
       <r>    2.9761    1.0000 </r>
       <r>    7.6200    0.0000 </r>
       <r>    8.3033    0.0000 </r>
       <r>   11.4499    0.0000 </r>
       <r>   13.6956    0.0000 </r>
      </set>
      <set comment="kpoint 26">
       <r>   -2.7310    1.0000 </r>
       <r>   -1.1735    1.0000 </r>
       <r>    1.6571    1.0000 </r>
       <r>    2.7721    1.0000 </r>
       <r>    8.0558    0.0000 </r>
       <r>    9.9497    0.0000 </r>
       <r>   10.9686    0.0000 </r>
       <r>   13.1229    0.0000 </r>
      </set>
      <set comment="kpoint 27">
       <r>   -3.0824    1.0000 </r>
       <r>   -0.8104    1.0000 </r>
       <r>    1.4877    1.0000 </r>
       <r>    3.1518    1.0000 </r>
       <r>    8.5399    0.0000 </r>
       <r>   10.2276    0.0000 </r>
       <r>   10.8919    0.0000 </r>
       <r>   12.7083    0.0000 </r>
      </set>
      <set comment="kpoint 28">
       <r>   -1.9782    1.0000 </r>
       <r>   -1.9782    1.0000 </r>
       <r>    2.3116    1.0000 </r>
       <r>    2.3116    1.0000 </r>
       <r>    7.6340    0.0000 </r>
       <r>    7.6340    0.0000 </r>
       <r>   13.5348    0.0000 </r>
       <r>   13.5348    0.0000 </r>
      </set>
      <set comment="kpoint 29">
       <r>   -1.8896    1.0000 </r>
       <r>   -1.8896    1.0000 </r>
       <r>    1.8654    1.0000 </r>
       <r>    1.8654    1.0000 </r>
       <r>    9.9336    0.0000 </r>
       <r>    9.9336    0.0000 </r>
       <r>   10.6962    0.0000 </r>
       <r>   10.6962    0.0000 </r>
      </set>
     </set>
    </set>
   </array>
  </eigenvalues>
  <separator name="orbital magnetization" >
   <v name="MAGDIPOLOUT">      0.00000000      0.00000000      0.00000000</v>
  </separator>
  <dos>
   <i name="efermi">      5.76136688 </i>
   <total>
    <array>
     <dimension dim="1">gridpoints</dimension>
     <dimension dim="2">spin</dimension>
     <field>energy</field>
     <field>total</field>
     <field>integrated</field>
     <set>
      <set comment="spin 1">
       <r>    -7.3091     0.0000     0.0000 </r>
       <r>    -7.2284     0.0000     0.0000 </r>
       <r>    -7.1477     0.0000     0.0000 </r>
       <r>    -7.0670     0.0000     0.0000 </r>
       <r>    -6.9863     0.0000     0.0000 </r>
       <r>    -6.9056     0.0000     0.0000 </r>
       <r>    -6.8249     0.0000     0.0000 </r>
       <r>    -6.7442     0.0000     0.0000 </r>
       <r>    -6.6635     0.0000     0.0000 </r>
       <r>    -6.5828     0.0000     0.0000 </r>
       <r>    -6.5021     0.0000     0.0000 </r>
       <r>    -6.4214     0.0000     0.0000 </r>
       <r>    -6.3407     0.0000     0.0000 </r>
       <r>    -6.2600     0.0000     0.0000 </r>
       <r>    -6.1793     0.0018     0.0000 </r>
       <r>    -6.0986     0.0249     0.0009 </r>
       <r>    -6.0179     0.0747     0.0047 </r>
       <r>    -5.9372     0.0749     0.0110 </r>
       <r>    -5.8565     0.0886     0.0176 </r>
       <r>    -5.7758     0.1032     0.0253 </r>
       <r>    -5.6951     0.1189     0.0343 </r>
       <r>    -5.6144     0.1339     0.0445 </r>
       <r>    -5.5337     0.1433     0.0557 </r>
       <r>    -5.4530     0.1473     0.0675 </r>
       <r>    -5.3723     0.1558     0.0797 </r>
       <r>    -5.2916     0.1657     0.0927 </r>
       <r>    -5.2109     0.1758     0.1064 </r>
       <r>    -5.1302     0.1862     0.1210 </r>
       <r>    -5.0495     0.1969     0.1365 </r>
       <r>    -4.9688     0.2079     0.1528 </r>
       <r>    -4.8881     0.2147     0.1699 </r>
       <r>    -4.8074     0.2235     0.1876 </r>
       <r>    -4.7267     0.2325     0.2060 </r>
       <r>    -4.6460     0.2419     0.2251 </r>
       <r>    -4.5653     0.2521     0.2450 </r>
       <r>    -4.4846     0.2638     0.2658 </r>
       <r>    -4.4039     0.2766     0.2876 </r>
       <r>    -4.3232     0.2908     0.3105 </r>
       <r>    -4.2425     0.3059     0.3346 </r>
       <r>    -4.1618     0.3219     0.3599 </r>
       <r>    -4.0811     0.3396     0.3866 </r>
       <r>    -4.0004     0.3638     0.4148 </r>
       <r>    -3.9197     0.4368     0.4468 </r>
       <r>    -3.8390     0.5319     0.4864 </r>
       <r>    -3.7583     0.4207     0.5246 </r>
       <r>    -3.6776     0.4156     0.5584 </r>
       <r>    -3.5969     0.4113     0.5917 </r>
       <r>    -3.5162     0.4076     0.6248 </r>
       <r>    -3.4355     0.4005     0.6575 </r>
       <r>    -3.3548     0.3739     0.6889 </r>
       <r>    -3.2741     0.3483     0.7176 </r>
       <r>    -3.1934     0.3523     0.7460 </r>
       <r>    -3.1127     0.3474     0.7743 </r>
       <r>    -3.0320     0.3351     0.8018 </r>
       <r>    -2.9513     0.3215     0.8283 </r>
       <r>    -2.8706     0.3132     0.8538 </r>
       <r>    -2.7899     0.3053     0.8788 </r>
       <r>    -2.7092     0.2853     0.9028 </r>
       <r>    -2.6285     0.2498     0.9244 </r>
       <r>    -2.5478     0.2141     0.9431 </r>
       <r>    -2.4671     0.1783     0.9590 </r>
       <r>    -2.3864     0.1436     0.9719 </r>
       <r>    -2.3057     0.1110     0.9822 </r>
       <r>    -2.2250     0.0807     0.9899 </r>
       <r>    -2.1443     0.0526     0.9953 </r>
       <r>    -2.0636     0.0267     0.9985 </r>
       <r>    -1.9829     0.0109     0.9999 </r>
       <r>    -1.9022     0.0175     1.0008 </r>
       <r>    -1.8215     0.0409     1.0032 </r>
       <r>    -1.7408     0.0669     1.0075 </r>
       <r>    -1.6601     0.0952     1.0140 </r>
       <r>    -1.5794     0.1260     1.0229 </r>
       <r>    -1.4987     0.1591     1.0344 </r>
       <r>    -1.4180     0.1949     1.0487 </r>
       <r>    -1.3373     0.2347     1.0660 </r>
       <r>    -1.2566     0.2787     1.0867 </r>
       <r>    -1.1759     0.3345     1.1112 </r>
       <r>    -1.0952     0.4857     1.1445 </r>
       <r>    -1.0145     0.7684     1.1904 </r>
       <r>    -0.9338     0.8558     1.2586 </r>
       <r>    -0.8531     0.6443     1.3201 </r>
       <r>    -0.7724     0.5063     1.3657 </r>
       <r>    -0.6917     0.4291     1.4032 </r>
       <r>    -0.6110     0.3926     1.4361 </r>
       <r>    -0.5303     0.3675     1.4668 </r>
       <r>    -0.4496     0.3440     1.4955 </r>
       <r>    -0.3689     0.3220     1.5223 </r>
       <r>    -0.2882     0.3014     1.5475 </r>
       <r>    -0.2075     0.2824     1.5710 </r>
       <r>    -0.1268     0.2584     1.5929 </r>
       <r>    -0.0461     0.2343     1.6127 </r>
       <r>     0.0346     0.2192     1.6310 </r>
       <r>     0.1153     0.2067     1.6481 </r>
       <r>     0.1960     0.1969     1.6644 </r>
       <r>     0.2767     0.1897     1.6800 </r>
       <r>     0.3574     0.1839     1.6950 </r>
       <r>     0.4381     0.1783     1.7096 </r>
       <r>     0.5188     0.1728     1.7238 </r>
       <r>     0.5995     0.1671     1.7375 </r>
       <r>     0.6802     0.1611     1.7508 </r>
       <r>     0.7609     0.1548     1.7635 </r>
       <r>     0.8416     0.1483     1.7758 </r>
       <r>     0.9223     0.1417     1.7875 </r>
       <r>     1.0030     0.1355     1.7986 </r>
       <r>     1.0837     0.1296     1.8093 </r>
       <r>     1.1644     0.1203     1.8195 </r>
       <r>     1.2451     0.1100     1.8288 </r>
       <r>     1.3258     0.1022     1.8373 </r>
       <r>     1.4065     0.0968     1.8453 </r>
       <r>     1.4872     0.1957     1.8556 </r>
       <r>     1.5679     0.4266     1.8805 </r>
       <r>     1.6486     0.6856     1.9252 </r>
       <r>     1.7293     0.6264     1.9793 </r>
       <r>     1.8100     0.5613     2.0269 </r>
       <r>     1.8907     0.5422     2.0711 </r>
       <r>     1.9714     0.5400     2.1147 </r>
       <r>     2.0521     0.5435     2.1584 </r>
       <r>     2.1328     0.5510     2.2026 </r>
       <r>     2.2135     0.5611     2.2475 </r>
       <r>     2.2942     0.6102     2.2924 </r>
       <r>     2.3749     0.5291     2.3449 </r>
       <r>     2.4556     0.5423     2.3883 </r>
       <r>     2.5363     0.5515     2.4324 </r>
       <r>     2.6170     0.5709     2.4776 </r>
       <r>     2.6977     0.5989     2.5248 </r>
       <r>     2.7784     0.6364     2.5745 </r>
       <r>     2.8591     0.6825     2.6278 </r>
       <r>     2.9398     0.7217     2.6845 </r>
       <r>     3.0205     0.8019     2.7449 </r>
       <r>     3.1012     0.8023     2.8149 </r>
       <r>     3.1819     0.7409     2.8757 </r>
       <r>     3.2626     0.7311     2.9351 </r>
       <r>     3.3433     0.7211     2.9937 </r>
       <r>     3.4240     0.7120     3.0516 </r>
       <r>     3.5047     0.6945     3.1083 </r>
       <r>     3.5854     0.6869     3.1638 </r>
       <r>     3.6661     0.6947     3.2196 </r>
       <r>     3.7468     0.6950     3.2757 </r>
       <r>     3.8275     0.6880     3.3316 </r>
       <r>     3.9082     0.6761     3.3867 </r>
       <r>     3.9889     0.6613     3.4406 </r>
       <r>     4.0696     0.6441     3.4933 </r>
       <r>     4.1503     0.6249     3.5445 </r>
       <r>     4.2310     0.6223     3.5945 </r>
       <r>     4.3117     0.6274     3.6450 </r>
       <r>     4.3924     0.6178     3.6954 </r>
       <r>     4.4731     0.5788     3.7440 </r>
       <r>     4.5538     0.4904     3.7876 </r>
       <r>     4.6345     0.3855     3.8225 </r>
       <r>     4.7152     0.3394     3.8516 </r>
       <r>     4.7959     0.3002     3.8774 </r>
       <r>     4.8766     0.2604     3.9000 </r>
       <r>     4.9573     0.2198     3.9194 </r>
       <r>     5.0380     0.1868     3.9356 </r>
       <r>     5.1187     0.1630     3.9497 </r>
       <r>     5.1994     0.1429     3.9621 </r>
       <r>     5.2801     0.1266     3.9729 </r>
       <r>     5.3608     0.1139     3.9826 </r>
       <r>     5.4415     0.1050     3.9914 </r>
       <r>     5.5222     0.0391     3.9969 </r>
       <r>     5.6029     0.0172     3.9991 </r>
       <r>     5.6835     0.0042     3.9999 </r>
       <r>     5.7642     0.0000     4.0000 </r>
       <r>     5.8449     0.0000     4.0000 </r>
       <r>     5.9256     0.0000     4.0000 </r>
       <r>     6.0063     0.0000     4.0000 </r>
       <r>     6.0870     0.0000     4.0000 </r>
       <r>     6.1677     0.0000     4.0000 </r>
       <r>     6.2484     0.0000     4.0000 </r>
       <r>     6.3291     0.0147     4.0003 </r>
       <r>     6.4098     0.0617     4.0035 </r>
       <r>     6.4905     0.0813     4.0094 </r>
       <r>     6.5712     0.0834     4.0159 </r>
       <r>     6.6519     0.1053     4.0235 </r>
       <r>     6.7326     0.1294     4.0329 </r>
       <r>     6.8133     0.1557     4.0444 </r>
       <r>     6.8940     0.1811     4.0580 </r>
       <r>     6.9747     0.2045     4.0736 </r>
       <r>     7.0554     0.2285     4.0910 </r>
       <r>     7.1361     0.2535     4.1105 </r>
       <r>     7.2168     0.2777     4.1319 </r>
       <r>     7.2975     0.3095     4.1555 </r>
       <r>     7.3782     0.3543     4.1822 </r>
       <r>     7.4589     0.4076     4.2129 </r>
       <r>     7.5396     0.4688     4.2482 </r>
       <r>     7.6203     0.5398     4.2889 </r>
       <r>     7.7010     0.6234     4.3361 </r>
       <r>     7.7817     0.7229     4.3900 </r>
       <r>     7.8624     0.8697     4.4541 </r>
       <r>     7.9431     0.9489     4.5283 </r>
       <r>     8.0238     0.9733     4.6060 </r>
       <r>     8.1045     0.9945     4.6852 </r>
       <r>     8.1852     1.0779     4.7684 </r>
       <r>     8.2659     1.0336     4.8543 </r>
       <r>     8.3466     0.9238     4.9339 </r>
       <r>     8.4273     0.7237     5.0009 </r>
       <r>     8.5080     0.5494     5.0517 </r>
       <r>     8.5887     0.3384     5.0879 </r>
       <r>     8.6694     0.2537     5.1113 </r>
       <r>     8.7501     0.2595     5.1312 </r>
       <r>     8.8308     0.3142     5.1544 </r>
       <r>     8.9115     0.3854     5.1824 </r>
       <r>     8.9922     0.4812     5.2172 </r>
       <r>     9.0729     0.6253     5.2611 </r>
       <r>     9.1536     0.9805     5.3242 </r>
       <r>     9.2343     1.4173     5.4231 </r>
       <r>     9.3150     1.6972     5.5520 </r>
       <r>     9.3957     1.2245     5.6680 </r>
       <r>     9.4764     0.8745     5.7511 </r>
       <r>     9.5571     0.7307     5.8149 </r>
       <r>     9.6378     0.6952     5.8721 </r>
       <r>     9.7185     0.6679     5.9271 </r>
       <r>     9.7992     0.6334     5.9797 </r>
       <r>     9.8799     0.6394     6.0308 </r>
       <r>     9.9606     0.9327     6.0883 </r>
       <r>    10.0413     0.7119     6.1543 </r>
       <r>    10.1220     0.5449     6.2046 </r>
       <r>    10.2027     0.4509     6.2440 </r>
       <r>    10.2834     0.4422     6.2799 </r>
       <r>    10.3641     0.4490     6.3158 </r>
       <r>    10.4448     0.4501     6.3524 </r>
       <r>    10.5255     0.4311     6.3879 </r>
       <r>    10.6062     0.4163     6.4221 </r>
       <r>    10.6869     0.4053     6.4552 </r>
       <r>    10.7676     0.5304     6.4924 </r>
       <r>    10.8483     0.6954     6.5414 </r>
       <r>    10.9290     0.8725     6.6065 </r>
       <r>    11.0097     0.7347     6.6695 </r>
       <r>    11.0904     0.7025     6.7276 </r>
       <r>    11.1711     0.6553     6.7824 </r>
       <r>    11.2518     0.6326     6.8343 </r>
       <r>    11.3325     0.6028     6.8842 </r>
       <r>    11.4132     0.5593     6.9312 </r>
       <r>    11.4939     0.5072     6.9741 </r>
       <r>    11.5746     0.4914     7.0141 </r>
       <r>    11.6553     0.4985     7.0544 </r>
       <r>    11.7360     0.4710     7.0934 </r>
       <r>    11.8167     0.4481     7.1305 </r>
       <r>    11.8974     0.4222     7.1657 </r>
       <r>    11.9781     0.3980     7.1986 </r>
       <r>    12.0588     0.4087     7.2311 </r>
       <r>    12.1395     0.4198     7.2645 </r>
       <r>    12.2202     0.4313     7.2989 </r>
       <r>    12.3009     0.4430     7.3341 </r>
       <r>    12.3816     0.4551     7.3704 </r>
       <r>    12.4623     0.4676     7.4076 </r>
       <r>    12.5430     0.4803     7.4459 </r>
       <r>    12.6237     0.4934     7.4851 </r>
       <r>    12.7044     0.5229     7.5257 </r>
       <r>    12.7851     0.5560     7.5698 </r>
       <r>    12.8658     0.5377     7.6140 </r>
       <r>    12.9465     0.5123     7.6564 </r>
       <r>    13.0272     0.4799     7.6965 </r>
       <r>    13.1079     0.4314     7.7335 </r>
       <r>    13.1886     0.4115     7.7672 </r>
       <r>    13.2693     0.3900     7.7996 </r>
       <r>    13.3500     0.3485     7.8296 </r>
       <r>    13.4307     0.2791     7.8551 </r>
       <r>    13.5114     0.2140     7.8746 </r>
       <r>    13.5921     0.1989     7.8911 </r>
       <r>    13.6728     0.1894     7.9068 </r>
       <r>    13.7535     0.1844     7.9218 </r>
       <r>    13.8342     0.1766     7.9365 </r>
       <r>    13.9149     0.1484     7.9497 </r>
       <r>    13.9956     0.1006     7.9599 </r>
       <r>    14.0763     0.0594     7.9658 </r>
       <r>    14.1570     0.0540     7.9704 </r>
       <r>    14.2377     0.0488     7.9746 </r>
       <r>    14.3184     0.0439     7.9783 </r>
       <r>    14.3991     0.0393     7.9817 </r>
       <r>    14.4798     0.0349     7.9846 </r>
       <r>    14.5605     0.0307     7.9873 </r>
       <r>    14.6412     0.0269     7.9896 </r>
       <r>    14.7219     0.0233     7.9916 </r>
       <r>    14.8026     0.0199     7.9934 </r>
       <r>    14.8833     0.0168     7.9949 </r>
       <r>    14.9640     0.0140     7.9961 </r>
       <r>    15.0447     0.0114     7.9971 </r>
       <r>    15.1254     0.0091     7.9980 </r>
       <r>    15.2061     0.0071     7.9986 </r>
       <r>    15.2868     0.0053     7.9991 </r>
       <r>    15.3675     0.0037     7.9995 </r>
       <r>    15.4482     0.0025     7.9997 </r>
       <r>    15.5289     0.0015     7.9999 </r>
       <r>    15.6096     0.0007     8.0000 </r>
       <r>    15.6903     0.0002     8.0000 </r>
       <r>    15.7710     0.0000     8.0000 </r>
       <r>    15.8517     0.0000     8.0000 </r>
       <r>    15.9324     0.0000     8.0000 </r>
       <r>    16.0131     0.0000     8.0000 </r>
       <r>    16.0938     0.0000     8.0000 </r>
       <r>    16.1745     0.0000     8.0000 </r>
       <r>    16.2552     0.0000     8.0000 </r>
       <r>    16.3359     0.0000     8.0000 </r>
       <r>    16.4166     0.0000     8.0000 </r>
       <r>    16.4973     0.0000     8.0000 </r>
       <r>    16.5780     0.0000     8.0000 </r>
       <r>    16.6587     0.0000     8.0000 </r>
       <r>    16.7394     0.0000     8.0000 </r>
       <r>    16.8201     0.0000     8.0000 </r>
       <r>    16.9008     0.0000     8.0000 </r>
      </set>
      <set comment="spin 2">
       <r>    -7.3091     0.0000     0.0000 </r>
       <r>    -7.2284     0.0000     0.0000 </r>
       <r>    -7.1477     0.0000     0.0000 </r>
       <r>    -7.0670     0.0000     0.0000 </r>
       <r>    -6.9863     0.0000     0.0000 </r>
       <r>    -6.9056     0.0000     0.0000 </r>
       <r>    -6.8249     0.0000     0.0000 </r>
       <r>    -6.7442     0.0000     0.0000 </r>
       <r>    -6.6635     0.0000     0.0000 </r>
       <r>    -6.5828     0.0000     0.0000 </r>
       <r>    -6.5021     0.0000     0.0000 </r>
       <r>    -6.4214     0.0000     0.0000 </r>
       <r>    -6.3407     0.0000     0.0000 </r>
       <r>    -6.2600     0.0000     0.0000 </r>
       <r>    -6.1793     0.0018     0.0000 </r>
       <r>    -6.0986     0.0249     0.0009 </r>
       <r>    -6.0179     0.0747     0.0047 </r>
       <r>    -5.9372     0.0749     0.0110 </r>
       <r>    -5.8565     0.0886     0.0176 </r>
       <r>    -5.7758     0.1032     0.0253 </r>
       <r>    -5.6951     0.1189     0.0343 </r>
       <r>    -5.6144     0.1339     0.0445 </r>
       <r>    -5.5337     0.1433     0.0557 </r>
       <r>    -5.4530     0.1473     0.0675 </r>
       <r>    -5.3723     0.1558     0.0797 </r>
       <r>    -5.2916     0.1657     0.0927 </r>
       <r>    -5.2109     0.1758     0.1064 </r>
       <r>    -5.1302     0.1862     0.1210 </r>
       <r>    -5.0495     0.1969     0.1365 </r>
       <r>    -4.9688     0.2079     0.1528 </r>
       <r>    -4.8881     0.2147     0.1699 </r>
       <r>    -4.8074     0.2235     0.1876 </r>
       <r>    -4.7267     0.2325     0.2060 </r>
       <r>    -4.6460     0.2419     0.2251 </r>
       <r>    -4.5653     0.2521     0.2450 </r>
       <r>    -4.4846     0.2638     0.2658 </r>
       <r>    -4.4039     0.2766     0.2876 </r>
       <r>    -4.3232     0.2908     0.3105 </r>
       <r>    -4.2425     0.3059     0.3346 </r>
       <r>    -4.1618     0.3219     0.3599 </r>
       <r>    -4.0811     0.3396     0.3866 </r>
       <r>    -4.0004     0.3638     0.4148 </r>
       <r>    -3.9197     0.4368     0.4468 </r>
       <r>    -3.8390     0.5319     0.4864 </r>
       <r>    -3.7583     0.4207     0.5246 </r>
       <r>    -3.6776     0.4156     0.5584 </r>
       <r>    -3.5969     0.4113     0.5917 </r>
       <r>    -3.5162     0.4076     0.6248 </r>
       <r>    -3.4355     0.4005     0.6575 </r>
       <r>    -3.3548     0.3739     0.6889 </r>
       <r>    -3.2741     0.3483     0.7176 </r>
       <r>    -3.1934     0.3523     0.7460 </r>
       <r>    -3.1127     0.3474     0.7743 </r>
       <r>    -3.0320     0.3351     0.8018 </r>
       <r>    -2.9513     0.3215     0.8283 </r>
       <r>    -2.8706     0.3132     0.8538 </r>
       <r>    -2.7899     0.3053     0.8788 </r>
       <r>    -2.7092     0.2853     0.9028 </r>
       <r>    -2.6285     0.2498     0.9244 </r>
       <r>    -2.5478     0.2141     0.9431 </r>
       <r>    -2.4671     0.1783     0.9590 </r>
       <r>    -2.3864     0.1436     0.9720 </r>
       <r>    -2.3057     0.1110     0.9822 </r>
       <r>    -2.2250     0.0807     0.9899 </r>
       <r>    -2.1443     0.0526     0.9953 </r>
       <r>    -2.0636     0.0267     0.9985 </r>
       <r>    -1.9829     0.0109     0.9999 </r>
       <r>    -1.9022     0.0175     1.0008 </r>
       <r>    -1.8215     0.0409     1.0032 </r>
       <r>    -1.7408     0.0669     1.0075 </r>
       <r>    -1.6601     0.0952     1.0140 </r>
       <r>    -1.5794     0.1260     1.0229 </r>
       <r>    -1.4987     0.1591     1.0344 </r>
       <r>    -1.4180     0.1949     1.0487 </r>
       <r>    -1.3373     0.2347     1.0660 </r>
       <r>    -1.2566     0.2787     1.0867 </r>
       <r>    -1.1759     0.3345     1.1112 </r>
       <r>    -1.0952     0.4857     1.1445 </r>
       <r>    -1.0145     0.7684     1.1904 </r>
       <r>    -0.9338     0.8558     1.2586 </r>
       <r>    -0.8531     0.6443     1.3201 </r>
       <r>    -0.7724     0.5063     1.3657 </r>
       <r>    -0.6917     0.4291     1.4032 </r>
       <r>    -0.6110     0.3926     1.4361 </r>
       <r>    -0.5303     0.3675     1.4668 </r>
       <r>    -0.4496     0.3440     1.4955 </r>
       <r>    -0.3689     0.3220     1.5223 </r>
       <r>    -0.2882     0.3014     1.5475 </r>
       <r>    -0.2075     0.2824     1.5710 </r>
       <r>    -0.1268     0.2584     1.5929 </r>
       <r>    -0.0461     0.2343     1.6127 </r>
       <r>     0.0346     0.2192     1.6310 </r>
       <r>     0.1153     0.2067     1.6481 </r>
       <r>     0.1960     0.1969     1.6644 </r>
       <r>     0.2767     0.1897     1.6800 </r>
       <r>     0.3574     0.1839     1.6950 </r>
       <r>     0.4381     0.1783     1.7097 </r>
       <r>     0.5188     0.1728     1.7238 </r>
       <r>     0.5995     0.1671     1.7375 </r>
       <r>     0.6802     0.1611     1.7508 </r>
       <r>     0.7609     0.1548     1.7635 </r>
       <r>     0.8416     0.1483     1.7758 </r>
       <r>     0.9223     0.1417     1.7875 </r>
       <r>     1.0030     0.1355     1.7986 </r>
       <r>     1.0837     0.1296     1.8093 </r>
       <r>     1.1644     0.1203     1.8195 </r>
       <r>     1.2451     0.1100     1.8288 </r>
       <r>     1.3258     0.1022     1.8373 </r>
       <r>     1.4065     0.0968     1.8453 </r>
       <r>     1.4872     0.1957     1.8556 </r>
       <r>     1.5679     0.4266     1.8805 </r>
       <r>     1.6486     0.6856     1.9252 </r>
       <r>     1.7293     0.6264     1.9793 </r>
       <r>     1.8100     0.5613     2.0269 </r>
       <r>     1.8907     0.5422     2.0711 </r>
       <r>     1.9714     0.5400     2.1147 </r>
       <r>     2.0521     0.5435     2.1584 </r>
       <r>     2.1328     0.5510     2.2026 </r>
       <r>     2.2135     0.5611     2.2475 </r>
       <r>     2.2942     0.6102     2.2924 </r>
       <r>     2.3749     0.5291     2.3449 </r>
       <r>     2.4556     0.5423     2.3883 </r>
       <r>     2.5363     0.5515     2.4324 </r>
       <r>     2.6170     0.5709     2.4776 </r>
       <r>     2.6977     0.5989     2.5248 </r>
       <r>     2.7784     0.6364     2.5745 </r>
       <r>     2.8591     0.6825     2.6278 </r>
       <r>     2.9398     0.7217     2.6845 </r>
       <r>     3.0205     0.8019     2.7449 </r>
       <r>     3.1012     0.8023     2.8149 </r>
       <r>     3.1819     0.7409     2.8757 </r>
       <r>     3.2626     0.7311     2.9351 </r>
       <r>     3.3433     0.7211     2.9937 </r>
       <r>     3.4240     0.7120     3.0516 </r>
       <r>     3.5047     0.6945     3.1083 </r>
       <r>     3.5854     0.6869     3.1638 </r>
       <r>     3.6661     0.6947     3.2196 </r>
       <r>     3.7468     0.6950     3.2757 </r>
       <r>     3.8275     0.6880     3.3316 </r>
       <r>     3.9082     0.6761     3.3867 </r>
       <r>     3.9889     0.6613     3.4406 </r>
       <r>     4.0696     0.6441     3.4933 </r>
       <r>     4.1503     0.6249     3.5445 </r>
       <r>     4.2310     0.6223     3.5945 </r>
       <r>     4.3117     0.6274     3.6450 </r>
       <r>     4.3924     0.6178     3.6954 </r>
       <r>     4.4731     0.5788     3.7440 </r>
       <r>     4.5538     0.4904     3.7876 </r>
       <r>     4.6345     0.3855     3.8225 </r>
       <r>     4.7152     0.3394     3.8516 </r>
       <r>     4.7959     0.3002     3.8774 </r>
       <r>     4.8766     0.2604     3.9000 </r>
       <r>     4.9573     0.2198     3.9194 </r>
       <r>     5.0380     0.1868     3.9356 </r>
       <r>     5.1187     0.1630     3.9497 </r>
       <r>     5.1994     0.1429     3.9621 </r>
       <r>     5.2801     0.1266     3.9729 </r>
       <r>     5.3608     0.1139     3.9826 </r>
       <r>     5.4415     0.1050     3.9914 </r>
       <r>     5.5222     0.0391     3.9969 </r>
       <r>     5.6029     0.0172     3.9991 </r>
       <r>     5.6835     0.0042     3.9999 </r>
       <r>     5.7642     0.0000     4.0000 </r>
       <r>     5.8449     0.0000     4.0000 </r>
       <r>     5.9256     0.0000     4.0000 </r>
       <r>     6.0063     0.0000     4.0000 </r>
       <r>     6.0870     0.0000     4.0000 </r>
       <r>     6.1677     0.0000     4.0000 </r>
       <r>     6.2484     0.0000     4.0000 </r>
       <r>     6.3291     0.0147     4.0003 </r>
       <r>     6.4098     0.0617     4.0035 </r>
       <r>     6.4905     0.0813     4.0094 </r>
       <r>     6.5712     0.0834     4.0159 </r>
       <r>     6.6519     0.1053     4.0235 </r>
       <r>     6.7326     0.1294     4.0329 </r>
       <r>     6.8133     0.1557     4.0444 </r>
       <r>     6.8940     0.1811     4.0580 </r>
       <r>     6.9747     0.2045     4.0736 </r>
       <r>     7.0554     0.2285     4.0910 </r>
       <r>     7.1361     0.2535     4.1105 </r>
       <r>     7.2168     0.2777     4.1319 </r>
       <r>     7.2975     0.3095     4.1555 </r>
       <r>     7.3782     0.3543     4.1822 </r>
       <r>     7.4589     0.4076     4.2129 </r>
       <r>     7.5396     0.4688     4.2482 </r>
       <r>     7.6203     0.5398     4.2889 </r>
       <r>     7.7010     0.6234     4.3361 </r>
       <r>     7.7817     0.7229     4.3900 </r>
       <r>     7.8624     0.8697     4.4542 </r>
       <r>     7.9431     0.9489     4.5283 </r>
       <r>     8.0238     0.9733     4.6060 </r>
       <r>     8.1045     0.9945     4.6852 </r>
       <r>     8.1852     1.0779     4.7684 </r>
       <r>     8.2659     1.0336     4.8543 </r>
       <r>     8.3466     0.9238     4.9339 </r>
       <r>     8.4273     0.7237     5.0009 </r>
       <r>     8.5080     0.5494     5.0517 </r>
       <r>     8.5887     0.3384     5.0879 </r>
       <r>     8.6694     0.2537     5.1113 </r>
       <r>     8.7501     0.2595     5.1312 </r>
       <r>     8.8308     0.3142     5.1544 </r>
       <r>     8.9115     0.3854     5.1824 </r>
       <r>     8.9922     0.4812     5.2172 </r>
       <r>     9.0729     0.6253     5.2611 </r>
       <r>     9.1536     0.9805     5.3242 </r>
       <r>     9.2343     1.4173     5.4231 </r>
       <r>     9.3150     1.6972     5.5520 </r>
       <r>     9.3957     1.2244     5.6680 </r>
       <r>     9.4764     0.8745     5.7511 </r>
       <r>     9.5571     0.7307     5.8149 </r>
       <r>     9.6378     0.6952     5.8721 </r>
       <r>     9.7185     0.6679     5.9271 </r>
       <r>     9.7992     0.6334     5.9797 </r>
       <r>     9.8799     0.6394     6.0308 </r>
       <r>     9.9606     0.9327     6.0883 </r>
       <r>    10.0413     0.7119     6.1543 </r>
       <r>    10.1220     0.5449     6.2046 </r>
       <r>    10.2027     0.4509     6.2440 </r>
       <r>    10.2834     0.4422     6.2799 </r>
       <r>    10.3641     0.4490     6.3158 </r>
       <r>    10.4448     0.4501     6.3524 </r>
       <r>    10.5255     0.4311     6.3879 </r>
       <r>    10.6062     0.4163     6.4221 </r>
       <r>    10.6869     0.4053     6.4552 </r>
       <r>    10.7676     0.5304     6.4924 </r>
       <r>    10.8483     0.6954     6.5414 </r>
       <r>    10.9290     0.8725     6.6065 </r>
       <r>    11.0097     0.7347     6.6695 </r>
       <r>    11.0904     0.7025     6.7276 </r>
       <r>    11.1711     0.6553     6.7824 </r>
       <r>    11.2518     0.6326     6.8343 </r>
       <r>    11.3325     0.6028     6.8842 </r>
       <r>    11.4132     0.5593     6.9312 </r>
       <r>    11.4939     0.5072     6.9741 </r>
       <r>    11.5746     0.4914     7.0141 </r>
       <r>    11.6553     0.4985     7.0544 </r>
       <r>    11.7360     0.4710     7.0935 </r>
       <r>    11.8167     0.4481     7.1305 </r>
       <r>    11.8974     0.4222     7.1657 </r>
       <r>    11.9781     0.3980     7.1986 </r>
       <r>    12.0588     0.4087     7.2311 </r>
       <r>    12.1395     0.4198     7.2645 </r>
       <r>    12.2202     0.4313     7.2989 </r>
       <r>    12.3009     0.4430     7.3341 </r>
       <r>    12.3816     0.4551     7.3704 </r>
       <r>    12.4623     0.4676     7.4076 </r>
       <r>    12.5430     0.4803     7.4459 </r>
       <r>    12.6237     0.4934     7.4851 </r>
       <r>    12.7044     0.5229     7.5257 </r>
       <r>    12.7851     0.5560     7.5698 </r>
       <r>    12.8658     0.5378     7.6140 </r>
       <r>    12.9465     0.5123     7.6564 </r>
       <r>    13.0272     0.4799     7.6965 </r>
       <r>    13.1079     0.4314     7.7335 </r>
       <r>    13.1886     0.4115     7.7672 </r>
       <r>    13.2693     0.3900     7.7996 </r>
       <r>    13.3500     0.3485     7.8296 </r>
       <r>    13.4307     0.2791     7.8551 </r>
       <r>    13.5114     0.2140     7.8746 </r>
       <r>    13.5921     0.1989     7.8911 </r>
       <r>    13.6728     0.1894     7.9068 </r>
       <r>    13.7535     0.1844     7.9218 </r>
       <r>    13.8342     0.1766     7.9365 </r>
       <r>    13.9149     0.1484     7.9497 </r>
       <r>    13.9956     0.1006     7.9599 </r>
       <r>    14.0763     0.0594     7.9658 </r>
       <r>    14.1570     0.0540     7.9704 </r>
       <r>    14.2377     0.0488     7.9746 </r>
       <r>    14.3184     0.0439     7.9783 </r>
       <r>    14.3991     0.0393     7.9817 </r>
       <r>    14.4798     0.0349     7.9846 </r>
       <r>    14.5605     0.0307     7.9873 </r>
       <r>    14.6412     0.0269     7.9896 </r>
       <r>    14.7219     0.0233     7.9916 </r>
       <r>    14.8026     0.0199     7.9934 </r>
       <r>    14.8833     0.0168     7.9949 </r>
       <r>    14.9640     0.0140     7.9961 </r>
       <r>    15.0447     0.0114     7.9971 </r>
       <r>    15.1254     0.0091     7.9980 </r>
       <r>    15.2061     0.0071     7.9986 </r>
       <r>    15.2868     0.0053     7.9991 </r>
       <r>    15.3675     0.0037     7.9995 </r>
       <r>    15.4482     0.0025     7.9997 </r>
       <r>    15.5289     0.0015     7.9999 </r>
       <r>    15.6096     0.0007     8.0000 </r>
       <r>    15.6903     0.0002     8.0000 </r>
       <r>    15.7710     0.0000     8.0000 </r>
       <r>    15.8517     0.0000     8.0000 </r>
       <r>    15.9324     0.0000     8.0000 </r>
       <r>    16.0131     0.0000     8.0000 </r>
       <r>    16.0938     0.0000     8.0000 </r>
[...]
       </set>
       <set comment="band 5">
        <r>  0.0514  0.0015  0.0372  0.0015  0.0000  0.0000  0.0000  0.0000  0.0000 </r>
        <r>  0.0514  0.0015  0.0372  0.0015  0.0000  0.0000  0.0000  0.0000  0.0000 </r>
       </set>
       <set comment="band 6">
        <r>  0.0397  0.0194  0.0232  0.0194  0.0000  0.0000  0.0000  0.0000  0.0000 </r>
        <r>  0.0397  0.0194  0.0232  0.0194  0.0000  0.0000  0.0000  0.0000  0.0000 </r>
       </set>
       <set comment="band 7">
        <r>  0.0000  0.0686  0.0000  0.0686  0.0000  0.0000  0.0000  0.0000  0.0000 </r>
        <r>  0.0000  0.0686  0.0000  0.0686  0.0000  0.0000  0.0000  0.0000  0.0000 </r>
       </set>
       <set comment="band 8">
        <r>  0.0292  0.0575  0.0359  0.0575  0.0000  0.0000  0.0000  0.0000  0.0000 </r>
        <r>  0.0292  0.0575  0.0359  0.0575  0.0000  0.0000  0.0000  0.0000  0.0000 </r>
       </set>
      </set>
      <set comment="kpoint 20">
       <set comment="band 1">
        <r>  0.2137  0.0048  0.0230  0.0048  0.0000  0.0000  0.0000  0.0000  0.0000 </r>
        <r>  0.2137  0.0048  0.0230  0.0048  0.0000  0.0000  0.0000  0.0000  0.0000 </r>
       </set>
       <set comment="band 2">
        <r>  0.1834  0.0056  0.0439  0.0056  0.0000  0.0000  0.0000  0.0000  0.0000 </r>
        <r>  0.1834  0.0056  0.0439  0.0056  0.0000  0.0000  0.0000  0.0000  0.0000 </r>
       </set>
       <set comment="band 3">
        <r>  0.0000  0.0556  0.0427  0.0556  0.0000  0.0000  0.0000  0.0000  0.0000 </r>
        <r>  0.0000  0.0556  0.0427  0.0556  0.0000  0.0000  0.0000  0.0000  0.0000 </r>
       </set>
       <set comment="band 4">
        <r>  0.0000  0.1000  0.0000  0.1000  0.0000  0.0000  0.0000  0.0000  0.0000 </r>
        <r>  0.0000  0.1000  0.0000  0.1000  0.0000  0.0000  0.0000  0.0000  0.0000 </r>
       </set>
       <set comment="band 5">
        <r>  0.0530  0.0009  0.0378  0.0009  0.0000  0.0000  0.0000  0.0000  0.0000 </r>
        <r>  0.0530  0.0009  0.0378  0.0009  0.0000  0.0000  0.0000  0.0000  0.0000 </r>
       </set>
       <set comment="band 6">
        <r>  0.0237  0.0367  0.0125  0.0367  0.0000  0.0000  0.0000  0.0000  0.0000 </r>
        <r>  0.0237  0.0367  0.0125  0.0367  0.0000  0.0000  0.0000  0.0000  0.0000 </r>
       </set>
       <set comment="band 7">
        <r>  0.0000  0.0791  0.0000  0.0791  0.0000  0.0000  0.0000  0.0000  0.0000 </r>
        <r>  0.0000  0.0791  0.0000  0.0791  0.0000  0.0000  0.0000  0.0000  0.0000 </r>
       </set>
       <set comment="band 8">
        <r>  0.0332  0.0000  0.1047  0.0000  0.0000  0.0000  0.0000  0.0000  0.0000 </r>
        <r>  0.0330  0.0000  0.1050  0.0000  0.0000  0.0000  0.0000  0.0000  0.0000 </r>
       </set>
      </set>
      <set comment="kpoint 21">
       <set comment="band 1">
        <r>  0.1986  0.0000  0.0440  0.0000  0.0000  0.0000  0.0000  0.0000  0.0000 </r>
        <r>  0.1877  0.0000  0.0466  0.0000  0.0000  0.0000  0.0000  0.0000  0.0000 </r>
       </set>
       <set comment="band 2">
        <r>  0.1877  0.0000  0.0466  0.0000  0.0000  0.0000  0.0000  0.0000  0.0000 </r>
        <r>  0.1986  0.0000  0.0440  0.0000  0.0000  0.0000  0.0000  0.0000  0.0000 </r>
       </set>
       <set comment="band 3">
        <r>  0.0000  0.0984  0.0000  0.0984  0.0000  0.0000  0.0000  0.0000  0.0000 </r>
        <r>  0.0000  0.0984  0.0000  0.0984  0.0000  0.0000  0.0000  0.0000  0.0000 </r>
       </set>
       <set comment="band 4">
        <r>  0.0000  0.0984  0.0000  0.0984  0.0000  0.0000  0.0000  0.0000  0.0000 </r>
        <r>  0.0000  0.0984  0.0000  0.0984  0.0000  0.0000  0.0000  0.0000  0.0000 </r>
       </set>
       <set comment="band 5">
        <r>  0.0523  0.0000  0.0339  0.0000  0.0000  0.0000  0.0000  0.0000  0.0000 </r>
        <r>  0.0523  0.0000  0.0340  0.0000  0.0000  0.0000  0.0000  0.0000  0.0000 </r>
       </set>
       <set comment="band 6">
        <r>  0.0523  0.0000  0.0340  0.0000  0.0000  0.0000  0.0000  0.0000  0.0000 </r>
        <r>  0.0523  0.0000  0.0339  0.0000  0.0000  0.0000  0.0000  0.0000  0.0000 </r>
       </set>
       <set comment="band 7">
        <r>  0.0000  0.2204  0.0000  0.0198  0.0000  0.0000  0.0000  0.0000  0.0000 </r>
        <r>  0.0000  0.0198  0.0000  0.2204  0.0000  0.0000  0.0000  0.0000  0.0000 </r>
       </set>
       <set comment="band 8">
        <r>  0.0000  0.0198  0.0000  0.2204  0.0000  0.0000  0.0000  0.0000  0.0000 </r>
        <r>  0.0000  0.2204  0.0000  0.0198  0.0000  0.0000  0.0000  0.0000  0.0000 </r>
       </set>
      </set>
      <set comment="kpoint 22">
       <set comment="band 1">
        <r>  0.2075  0.0023  0.0111  0.0004  0.0000  0.0000  0.0000  0.0000  0.0000 </r>
        <r>  0.2075  0.0023  0.0111  0.0004  0.0000  0.0000  0.0000  0.0000  0.0000 </r>
       </set>
       <set comment="band 2">
        <r>  0.1434  0.0191  0.0522  0.0277  0.0000  0.0000  0.0000  0.0000  0.0000 </r>
        <r>  0.1434  0.0191  0.0522  0.0277  0.0000  0.0000  0.0000  0.0000  0.0000 </r>
       </set>
       <set comment="band 3">
        <r>  0.0114  0.0491  0.0197  0.0993  0.0000  0.0000  0.0000  0.0000  0.0000 </r>
        <r>  0.0114  0.0491  0.0197  0.0993  0.0000  0.0000  0.0000  0.0000  0.0000 </r>
       </set>
       <set comment="band 4">
        <r>  0.0085  0.1073  0.0627  0.0277  0.0000  0.0000  0.0000  0.0000  0.0000 </r>
        <r>  0.0085  0.1073  0.0627  0.0277  0.0000  0.0000  0.0000  0.0000  0.0000 </r>
       </set>
       <set comment="band 5">
        <r>  0.0282  0.0218  0.0582  0.0281  0.0000  0.0000  0.0000  0.0000  0.0000 </r>
        <r>  0.0282  0.0218  0.0582  0.0281  0.0000  0.0000  0.0000  0.0000  0.0000 </r>
       </set>
       <set comment="band 6">
        <r>  0.0934  0.0004  0.0332  0.0466  0.0000  0.0000  0.0000  0.0000  0.0000 </r>
        <r>  0.0934  0.0004  0.0332  0.0466  0.0000  0.0000  0.0000  0.0000  0.0000 </r>
       </set>
       <set comment="band 7">
        <r>  0.0030  0.0573  0.0004  0.0224  0.0000  0.0000  0.0000  0.0000  0.0000 </r>
        <r>  0.0030  0.0573  0.0004  0.0224  0.0000  0.0000  0.0000  0.0000  0.0000 </r>
       </set>
       <set comment="band 8">
        <r>  0.0069  0.0623  0.0098  0.0804  0.0000  0.0000  0.0000  0.0000  0.0000 </r>
        <r>  0.0069  0.0623  0.0098  0.0804  0.0000  0.0000  0.0000  0.0000  0.0000 </r>
       </set>
      </set>
      <set comment="kpoint 23">
       <set comment="band 1">
        <r>  0.2091  0.0038  0.0146  0.0023  0.0000  0.0000  0.0000  0.0000  0.0000 </r>
        <r>  0.2091  0.0038  0.0146  0.0023  0.0000  0.0000  0.0000  0.0000  0.0000 </r>
       </set>
       <set comment="band 2">
        <r>  0.1440  0.0192  0.0312  0.0337  0.0000  0.0000  0.0000  0.0000  0.0000 </r>
        <r>  0.1440  0.0192  0.0312  0.0337  0.0000  0.0000  0.0000  0.0000  0.0000 </r>
       </set>
       <set comment="band 3">
        <r>  0.0299  0.0371  0.0374  0.0786  0.0000  0.0000  0.0000  0.0000  0.0000 </r>
        <r>  0.0299  0.0371  0.0374  0.0786  0.0000  0.0000  0.0000  0.0000  0.0000 </r>
       </set>
       <set comment="band 4">
        <r>  0.0041  0.1025  0.0612  0.0284  0.0000  0.0000  0.0000  0.0000  0.0000 </r>
        <r>  0.0041  0.1025  0.0612  0.0284  0.0000  0.0000  0.0000  0.0000  0.0000 </r>
       </set>
       <set comment="band 5">
        <r>  0.0410  0.0230  0.0416  0.0225  0.0000  0.0000  0.0000  0.0000  0.0000 </r>
        <r>  0.0410  0.0230  0.0416  0.0225  0.0000  0.0000  0.0000  0.0000  0.0000 </r>
       </set>
       <set comment="band 6">
        <r>  0.0415  0.0399  0.0090  0.0411  0.0000  0.0000  0.0000  0.0000  0.0000 </r>
        <r>  0.0415  0.0399  0.0090  0.0411  0.0000  0.0000  0.0000  0.0000  0.0000 </r>
       </set>
       <set comment="band 7">
        <r>  0.0370  0.0348  0.0245  0.0277  0.0000  0.0000  0.0000  0.0000  0.0000 </r>
        <r>  0.0370  0.0348  0.0245  0.0277  0.0000  0.0000  0.0000  0.0000  0.0000 </r>
       </set>
       <set comment="band 8">
        <r>  0.0148  0.0407  0.0206  0.0613  0.0000  0.0000  0.0000  0.0000  0.0000 </r>
        <r>  0.0148  0.0407  0.0206  0.0613  0.0000  0.0000  0.0000  0.0000  0.0000 </r>
       </set>
      </set>
      <set comment="kpoint 24">
       <set comment="band 1">
        <r>  0.2197  0.0031  0.0092  0.0092  0.0000  0.0000  0.0000  0.0000  0.0000 </r>
        <r>  0.2197  0.0031  0.0092  0.0092  0.0000  0.0000  0.0000  0.0000  0.0000 </r>
       </set>
       <set comment="band 2">
        <r>  0.1318  0.0211  0.0299  0.0299  0.0000  0.0000  0.0000  0.0000  0.0000 </r>
        <r>  0.1318  0.0211  0.0299  0.0299  0.0000  0.0000  0.0000  0.0000  0.0000 </r>
       </set>
       <set comment="band 3">
        <r>  0.0400  0.0290  0.0593  0.0593  0.0000  0.0000  0.0000  0.0000  0.0000 </r>
        <r>  0.0400  0.0290  0.0593  0.0593  0.0000  0.0000  0.0000  0.0000  0.0000 </r>
       </set>
       <set comment="band 4">
        <r>  0.0009  0.1046  0.0432  0.0432  0.0000  0.0000  0.0000  0.0000  0.0000 </r>
        <r>  0.0009  0.1046  0.0432  0.0432  0.0000  0.0000  0.0000  0.0000  0.0000 </r>
       </set>
       <set comment="band 5">
        <r>  0.0801  0.0145  0.0327  0.0327  0.0000  0.0000  0.0000  0.0000  0.0000 </r>
        <r>  0.0801  0.0145  0.0327  0.0327  0.0000  0.0000  0.0000  0.0000  0.0000 </r>
       </set>
       <set comment="band 6">
        <r>  0.0079  0.0457  0.0185  0.0185  0.0000  0.0000  0.0000  0.0000  0.0000 </r>
        <r>  0.0079  0.0457  0.0185  0.0185  0.0000  0.0000  0.0000  0.0000  0.0000 </r>
       </set>
       <set comment="band 7">
        <r>  0.0228  0.0418  0.0384  0.0384  0.0000  0.0000  0.0000  0.0000  0.0000 </r>
        <r>  0.0228  0.0418  0.0384  0.0384  0.0000  0.0000  0.0000  0.0000  0.0000 </r>
       </set>
       <set comment="band 8">
        <r>  0.0159  0.0626  0.0087  0.0088  0.0000  0.0000  0.0000  0.0000  0.0000 </r>
        <r>  0.0157  0.0629  0.0089  0.0090  0.0000  0.0000  0.0000  0.0000  0.0000 </r>
       </set>
      </set>
      <set comment="kpoint 25">
       <set comment="band 1">
        <r>  0.2038  0.0012  0.0239  0.0014  0.0000  0.0000  0.0000  0.0000  0.0000 </r>
        <r>  0.2038  0.0012  0.0239  0.0014  0.0000  0.0000  0.0000  0.0000  0.0000 </r>
       </set>
       <set comment="band 2">
        <r>  0.1824  0.0028  0.0508  0.0141  0.0000  0.0000  0.0000  0.0000  0.0000 </r>
        <r>  0.1824  0.0028  0.0508  0.0141  0.0000  0.0000  0.0000  0.0000  0.0000 </r>
       </set>
       <set comment="band 3">
        <r>  0.0092  0.0632  0.0154  0.0870  0.0000  0.0000  0.0000  0.0000  0.0000 </r>
        <r>  0.0092  0.0632  0.0154  0.0870  0.0000  0.0000  0.0000  0.0000  0.0000 </r>
       </set>
       <set comment="band 4">
        <r>  0.0007  0.0940  0.0293  0.0575  0.0000  0.0000  0.0000  0.0000  0.0000 </r>
        <r>  0.0007  0.0940  0.0293  0.0575  0.0000  0.0000  0.0000  0.0000  0.0000 </r>
       </set>
       <set comment="band 5">
        <r>  0.0376  0.0256  0.0364  0.0218  0.0000  0.0000  0.0000  0.0000  0.0000 </r>
        <r>  0.0376  0.0256  0.0364  0.0218  0.0000  0.0000  0.0000  0.0000  0.0000 </r>
       </set>
       <set comment="band 6">
        <r>  0.0379  0.0232  0.0195  0.0100  0.0000  0.0000  0.0000  0.0000  0.0000 </r>
        <r>  0.0379  0.0232  0.0195  0.0100  0.0000  0.0000  0.0000  0.0000  0.0000 </r>
       </set>
       <set comment="band 7">
        <r>  0.0348  0.0566  0.0207  0.0403  0.0000  0.0000  0.0000  0.0000  0.0000 </r>
        <r>  0.0348  0.0566  0.0207  0.0403  0.0000  0.0000  0.0000  0.0000  0.0000 </r>
       </set>
       <set comment="band 8">
        <r>  0.0024  0.0544  0.0081  0.0964  0.0000  0.0000  0.0000  0.0000  0.0000 </r>
        <r>  0.0024  0.0544  0.0081  0.0964  0.0000  0.0000  0.0000  0.0000  0.0000 </r>
       </set>
      </set>
      <set comment="kpoint 26">
       <set comment="band 1">
        <r>  0.2104  0.0013  0.0231  0.0071  0.0000  0.0000  0.0000  0.0000  0.0000 </r>
        <r>  0.2104  0.0013  0.0231  0.0071  0.0000  0.0000  0.0000  0.0000  0.0000 </r>
       </set>
       <set comment="band 2">
        <r>  0.1841  0.0048  0.0347  0.0183  0.0000  0.0000  0.0000  0.0000  0.0000 </r>
        <r>  0.1841  0.0048  0.0347  0.0183  0.0000  0.0000  0.0000  0.0000  0.0000 </r>
       </set>
       <set comment="band 3">
        <r>  0.0077  0.0558  0.0437  0.0539  0.0000  0.0000  0.0000  0.0000  0.0000 </r>
        <r>  0.0077  0.0558  0.0437  0.0539  0.0000  0.0000  0.0000  0.0000  0.0000 </r>
       </set>
       <set comment="band 4">
        <r>  0.0019  0.0850  0.0221  0.0688  0.0000  0.0000  0.0000  0.0000  0.0000 </r>
        <r>  0.0019  0.0850  0.0221  0.0688  0.0000  0.0000  0.0000  0.0000  0.0000 </r>
       </set>
       <set comment="band 5">
        <r>  0.0383  0.0316  0.0275  0.0125  0.0000  0.0000  0.0000  0.0000  0.0000 </r>
        <r>  0.0383  0.0316  0.0275  0.0125  0.0000  0.0000  0.0000  0.0000  0.0000 </r>
       </set>
       <set comment="band 6">
        <r>  0.0155  0.0587  0.0086  0.0182  0.0000  0.0000  0.0000  0.0000  0.0000 </r>
        <r>  0.0155  0.0587  0.0086  0.0182  0.0000  0.0000  0.0000  0.0000  0.0000 </r>
       </set>
       <set comment="band 7">
        <r>  0.0457  0.0298  0.0336  0.0439  0.0000  0.0000  0.0000  0.0000  0.0000 </r>
        <r>  0.0457  0.0298  0.0336  0.0439  0.0000  0.0000  0.0000  0.0000  0.0000 </r>
       </set>
       <set comment="band 8">
        <r>  0.0238  0.0486  0.0380  0.0319  0.0000  0.0000  0.0000  0.0000  0.0000 </r>
        <r>  0.0238  0.0486  0.0380  0.0319  0.0000  0.0000  0.0000  0.0000  0.0000 </r>
       </set>
      </set>
      <set comment="kpoint 27">
       <set comment="band 1">
        <r>  0.2112  0.0038  0.0077  0.0164  0.0000  0.0000  0.0000  0.0000  0.0000 </r>
        <r>  0.2112  0.0038  0.0077  0.0164  0.0000  0.0000  0.0000  0.0000  0.0000 </r>
       </set>
       <set comment="band 2">
        <r>  0.1797  0.0061  0.0358  0.0212  0.0000  0.0000  0.0000  0.0000  0.0000 </r>
        <r>  0.1797  0.0061  0.0358  0.0212  0.0000  0.0000  0.0000  0.0000  0.0000 </r>
       </set>
       <set comment="band 3">
        <r>  0.0066  0.0511  0.0663  0.0338  0.0000  0.0000  0.0000  0.0000  0.0000 </r>
        <r>  0.0066  0.0511  0.0663  0.0338  0.0000  0.0000  0.0000  0.0000  0.0000 </r>
       </set>
       <set comment="band 4">
        <r>  0.0038  0.0865  0.0192  0.0740  0.0000  0.0000  0.0000  0.0000  0.0000 </r>
        <r>  0.0038  0.0865  0.0192  0.0740  0.0000  0.0000  0.0000  0.0000  0.0000 </r>
       </set>
       <set comment="band 5">
        <r>  0.0374  0.0389  0.0297  0.0083  0.0000  0.0000  0.0000  0.0000  0.0000 </r>
        <r>  0.0374  0.0389  0.0297  0.0083  0.0000  0.0000  0.0000  0.0000  0.0000 </r>
       </set>
       <set comment="band 6">
        <r>  0.0179  0.0546  0.0282  0.0244  0.0000  0.0000  0.0000  0.0000  0.0000 </r>
        <r>  0.0179  0.0546  0.0282  0.0244  0.0000  0.0000  0.0000  0.0000  0.0000 </r>
       </set>
       <set comment="band 7">
        <r>  0.0448  0.0343  0.0278  0.0198  0.0000  0.0000  0.0000  0.0000  0.0000 </r>
        <r>  0.0448  0.0343  0.0278  0.0198  0.0000  0.0000  0.0000  0.0000  0.0000 </r>
       </set>
       <set comment="band 8">
        <r>  0.0180  0.0203  0.0135  0.0673  0.0000  0.0000  0.0000  0.0000  0.0000 </r>
        <r>  0.0180  0.0203  0.0135  0.0673  0.0000  0.0000  0.0000  0.0000  0.0000 </r>
       </set>
      </set>
      <set comment="kpoint 28">
       <set comment="band 1">
        <r>  0.1959  0.0000  0.0397  0.0048  0.0000  0.0000  0.0000  0.0000  0.0000 </r>
        <r>  0.2010  0.0000  0.0387  0.0046  0.0000  0.0000  0.0000  0.0000  0.0000 </r>
       </set>
       <set comment="band 2">
        <r>  0.2010  0.0000  0.0387  0.0046  0.0000  0.0000  0.0000  0.0000  0.0000 </r>
        <r>  0.1959  0.0000  0.0397  0.0048  0.0000  0.0000  0.0000  0.0000  0.0000 </r>
       </set>
       <set comment="band 3">
        <r>  0.0029  0.0780  0.0166  0.0758  0.0000  0.0000  0.0000  0.0000  0.0000 </r>
        <r>  0.0029  0.0780  0.0166  0.0757  0.0000  0.0000  0.0000  0.0000  0.0000 </r>
       </set>
       <set comment="band 4">
        <r>  0.0029  0.0780  0.0166  0.0757  0.0000  0.0000  0.0000  0.0000  0.0000 </r>
        <r>  0.0029  0.0780  0.0166  0.0758  0.0000  0.0000  0.0000  0.0000  0.0000 </r>
       </set>
       <set comment="band 5">
        <r>  0.0398  0.0263  0.0240  0.0158  0.0000  0.0000  0.0000  0.0000  0.0000 </r>
        <r>  0.0398  0.0263  0.0240  0.0158  0.0000  0.0000  0.0000  0.0000  0.0000 </r>
       </set>
       <set comment="band 6">
        <r>  0.0398  0.0263  0.0240  0.0158  0.0000  0.0000  0.0000  0.0000  0.0000 </r>
        <r>  0.0398  0.0263  0.0240  0.0158  0.0000  0.0000  0.0000  0.0000  0.0000 </r>
       </set>
       <set comment="band 7">
        <r>  0.0194  0.0560  0.0313  0.0367  0.0000  0.0000  0.0000  0.0000  0.0000 </r>
        <r>  0.0231  0.0664  0.0264  0.0309  0.0000  0.0000  0.0000  0.0000  0.0000 </r>
       </set>
       <set comment="band 8">
        <r>  0.0231  0.0664  0.0264  0.0309  0.0000  0.0000  0.0000  0.0000  0.0000 </r>
        <r>  0.0194  0.0560  0.0313  0.0367  0.0000  0.0000  0.0000  0.0000  0.0000 </r>
       </set>
      </set>
      <set comment="kpoint 29">
       <set comment="band 1">
        <r>  0.2051  0.0000  0.0210  0.0210  0.0000  0.0000  0.0000  0.0000  0.0000 </r>
        <r>  0.2052  0.0000  0.0210  0.0210  0.0000  0.0000  0.0000  0.0000  0.0000 </r>
       </set>
       <set comment="band 2">
        <r>  0.2052  0.0000  0.0210  0.0210  0.0000  0.0000  0.0000  0.0000  0.0000 </r>
        <r>  0.2051  0.0000  0.0210  0.0210  0.0000  0.0000  0.0000  0.0000  0.0000 </r>
       </set>
       <set comment="band 3">
        <r>  0.0000  0.0684  0.0455  0.0455  0.0000  0.0000  0.0000  0.0000  0.0000 </r>
        <r>  0.0000  0.0684  0.0455  0.0455  0.0000  0.0000  0.0000  0.0000  0.0000 </r>
       </set>
       <set comment="band 4">
        <r>  0.0000  0.0684  0.0455  0.0455  0.0000  0.0000  0.0000  0.0000  0.0000 </r>
        <r>  0.0000  0.0684  0.0455  0.0455  0.0000  0.0000  0.0000  0.0000  0.0000 </r>
       </set>
       <set comment="band 5">
        <r>  0.0000  0.0872  0.0001  0.0001  0.0000  0.0000  0.0000  0.0000  0.0000 </r>
        <r>  0.0000  0.0873  0.0001  0.0001  0.0000  0.0000  0.0000  0.0000  0.0000 </r>
       </set>
       <set comment="band 6">
        <r>  0.0000  0.0873  0.0001  0.0001  0.0000  0.0000  0.0000  0.0000  0.0000 </r>
        <r>  0.0000  0.0872  0.0001  0.0001  0.0000  0.0000  0.0000  0.0000  0.0000 </r>
       </set>
       <set comment="band 7">
        <r>  0.0618  0.0000  0.0515  0.0515  0.0000  0.0000  0.0000  0.0000  0.0000 </r>
        <r>  0.0618  0.0000  0.0515  0.0515  0.0000  0.0000  0.0000  0.0000  0.0000 </r>
       </set>
       <set comment="band 8">
        <r>  0.0618  0.0000  0.0515  0.0515  0.0000  0.0000  0.0000  0.0000  0.0000 </r>
        <r>  0.0618  0.0000  0.0515  0.0515  0.0000  0.0000  0.0000  0.0000  0.0000 </r>
       </set>
      </set>
     </set>
    </set>
   </array>
  </projected>
 </calculation>
 <structure name="finalpos" >
  <crystal>
   <varray name="basis" >
    <v>      -0.00000000       2.71803466       2.71803466 </v>
    <v>       2.71803466      -0.00000000       2.71803466 </v>
    <v>       2.71803466       2.71803466      -0.00000000 </v>
   </varray>
   <i name="volume">     40.16011677 </i>
   <varray name="rec_basis" >
    <v>      -0.18395645       0.18395645       0.18395645 </v>
    <v>       0.18395645      -0.18395645       0.18395645 </v>
    <v>       0.18395645       0.18395645      -0.18395645 </v>
   </varray>
  </crystal>
  <varray name="positions" >
   <v>       0.00000000       0.00000000       0.00000000 </v>
   <v>       0.25000000       0.25000000       0.25000000 </v>
  </varray>
 </structure>
</modeling>
