ESCALE ; pCOHP file generated by LOBSTER. Energy is shifted such that the Fermi level lies at 0 eV.
        69          2        201   8.49319e-01   1.08996e+01   5.87444e+00
Average
No.1:Si2->Si1(2.3537064179834077)
No.1:Si2[3s]->Si1[3s](2.3537064179834077)
No.1:Si2[3p_y]->Si1[3s](2.3537064179834077)
No.1:Si2[3p_z]->Si1[3s](2.3537064179834077)
No.1:Si2[3p_x]->Si1[3s](2.3537064179834077)
No.1:Si2[3s]->Si1[3p_y](2.3537064179834077)
No.1:Si2[3p_y]->Si1[3p_y](2.3537064179834077)
No.1:Si2[3p_z]->Si1[3p_y](2.3537064179834077)
No.1:Si2[3p_x]->Si1[3p_y](2.3537064179834077)
No.1:Si2[3s]->Si1[3p_z](2.3537064179834077)
No.1:Si2[3p_y]->Si1[3p_z](2.3537064179834077)
No.1:Si2[3p_z]->Si1[3p_z](2.3537064179834077)
No.1:Si2[3p_x]->Si1[3p_z](2.3537064179834077)
No.1:Si2[3s]->Si1[3p_x](2.3537064179834077)
No.1:Si2[3p_y]->Si1[3p_x](2.3537064179834077)
No.1:Si2[3p_z]->Si1[3p_x](2.3537064179834077)
No.1:Si2[3p_x]->Si1[3p_x](2.3537064179834077)
No.2:Si2->Si1(2.3537064179834077)
No.2:Si2[3s]->Si1[3s](2.3537064179834077)
No.2:Si2[3p_y]->Si1[3s](2.3537064179834077)
No.2:Si2[3p_z]->Si1[3s](2.3537064179834077)
No.2:Si2[3p_x]->Si1[3s](2.3537064179834077)
No.2:Si2[3s]->Si1[3p_y](2.3537064179834077)
No.2:Si2[3p_y]->Si1[3p_y](2.3537064179834077)
No.2:Si2[3p_z]->Si1[3p_y](2.3537064179834077)
No.2:Si2[3p_x]->Si1[3p_y](2.3537064179834077)
No.2:Si2[3s]->Si1[3p_z](2.3537064179834077)
No.2:Si2[3p_y]->Si1[3p_z](2.3537064179834077)
No.2:Si2[3p_z]->Si1[3p_z](2.3537064179834077)
No.2:Si2[3p_x]->Si1[3p_z](2.3537064179834077)
No.2:Si2[3s]->Si1[3p_x](2.3537064179834077)
No.2:Si2[3p_y]->Si1[3p_x](2.3537064179834077)
No.2:Si2[3p_z]->Si1[3p_x](2.3537064179834077)
No.2:Si2[3p_x]->Si1[3p_x](2.3537064179834077)
No.3:Si2->Si1(2.3537064179834077)
No.3:Si2[3s]->Si1[3s](2.3537064179834077)
No.3:Si2[3p_y]->Si1[3s](2.3537064179834077)
No.3:Si2[3p_z]->Si1[3s](2.3537064179834077)
No.3:Si2[3p_x]->Si1[3s](2.3537064179834077)
No.3:Si2[3s]->Si1[3p_y](2.3537064179834077)
No.3:Si2[3p_y]->Si1[3p_y](2.3537064179834077)
No.3:Si2[3p_z]->Si1[3p_y](2.3537064179834077)
No.3:Si2[3p_x]->Si1[3p_y](2.3537064179834077)
No.3:Si2[3s]->Si1[3p_z](2.3537064179834077)
No.3:Si2[3p_y]->Si1[3p_z](2.3537064179834077)
No.3:Si2[3p_z]->Si1[3p_z](2.3537064179834077)
No.3:Si2[3p_x]->Si1[3p_z](2.3537064179834077)
No.3:Si2[3s]->Si1[3p_x](2.3537064179834077)
No.3:Si2[3p_y]->Si1[3p_x](2.3537064179834077)
No.3:Si2[3p_z]->Si1[3p_x](2.3537064179834077)
No.3:Si2[3p_x]->Si1[3p_x](2.3537064179834077)
No.4:Si2->Si1(2.3537064179834077)
No.4:Si2[3s]->Si1[3s](2.3537064179834077)
No.4:Si2[3p_y]->Si1[3s](2.3537064179834077)
No.4:Si2[3p_z]->Si1[3s](2.3537064179834077)
No.4:Si2[3p_x]->Si1[3s](2.3537064179834077)
No.4:Si2[3s]->Si1[3p_y](2.3537064179834077)
No.4:Si2[3p_y]->Si1[3p_y](2.3537064179834077)
No.4:Si2[3p_z]->Si1[3p_y](2.3537064179834077)
No.4:Si2[3p_x]->Si1[3p_y](2.3537064179834077)
No.4:Si2[3s]->Si1[3p_z](2.3537064179834077)
No.4:Si2[3p_y]->Si1[3p_z](2.3537064179834077)
No.4:Si2[3p_z]->Si1[3p_z](2.3537064179834077)
No.4:Si2[3p_x]->Si1[3p_z](2.3537064179834077)
No.4:Si2[3s]->Si1[3p_x](2.3537064179834077)
No.4:Si2[3p_y]->Si1[3p_x](2.3537064179834077)
No.4:Si2[3p_z]->Si1[3p_x](2.3537064179834077)
No.4:Si2[3p_x]->Si1[3p_x](2.3537064179834077)
-5.02513  0.00000 -0.16723  0.00000 -1.41796  0.00000 -0.14703  0.00000 -0.19711  0.00000 -0.19810  0.00000 -0.19798  0.00000 -0.19644  0.00000  0.00111  0.00000 -0.01534  0.00000 -0.01449  0.00000 -0.19569  0.00000 -0.01509  0.00000  0.00118  0.00000 -0.01625  0.00000 -0.19674  0.00000 -0.01446  0.00000 -0.01648  0.00000  0.00094  0.00000 -1.41658  0.00000 -0.14572  0.00000 -0.19745  0.00000 -0.19841  0.00000 -0.19722  0.00000 -0.19700  0.00000  0.00090  0.00000 -0.01497  0.00000 -0.01667  0.00000 -0.19553  0.00000 -0.01468  0.00000  0.00097  0.00000 -0.01465  0.00000 -0.19564  0.00000 -0.01660  0.00000 -0.01488  0.00000  0.00097  0.00000 -1.42886  0.00000 -0.14844  0.00000 -0.19831  0.00000 -0.19886  0.00000 -0.19745  0.00000 -0.19651  0.00000  0.00114  0.00000 -0.01669  0.00000 -0.01724  0.00000 -0.19516  0.00000 -0.01641  0.00000  0.00121  0.00000 -0.01661  0.00000 -0.19661  0.00000 -0.01729  0.00000 -0.01693  0.00000  0.00130  0.00000 -1.42238  0.00000 -0.14892  0.00000 -0.19777  0.00000 -0.19941  0.00000 -0.19815  0.00000 -0.19589  0.00000  0.00123  0.00000 -0.01686  0.00000 -0.01492  0.00000 -0.19528  0.00000 -0.01656  0.00000  0.00128  0.00000 -0.01525  0.00000 -0.19668  0.00000 -0.01493  0.00000 -0.01555  0.00000  0.00129  0.00000 -0.16723  0.00000 -1.42043  0.00000 -0.14834  0.00000 -0.19625  0.00000 -0.19813  0.00000 -0.19827  0.00000 -0.19620  0.00000  0.00130  0.00000 -0.01507  0.00000 -0.01505  0.00000 -0.19755  0.00000 -0.01507  0.00000  0.00114  0.00000 -0.01641  0.00000 -0.19642  0.00000 -0.01495  0.00000 -0.01630  0.00000  0.00117  0.00000 -1.41700  0.00000 -0.14610  0.00000 -0.19770  0.00000 -0.19798  0.00000 -0.19919  0.00000 -0.19545  0.00000  0.00097  0.00000 -0.01448  0.00000 -0.01674  0.00000 -0.19700  0.00000 -0.01457  0.00000  0.00091  0.00000 -0.01511  0.00000 -0.19418  0.00000 -0.01658  0.00000 -0.01487  0.00000  0.00107  0.00000 -1.42739  0.00000 -0.14787  0.00000 -0.20113  0.00000 -0.19844  0.00000 -0.19850  0.00000 -0.19497  0.00000  0.00100  0.00000 -0.01673  0.00000 -0.01685  0.00000 -0.19451  0.00000 -0.01689  0.00000  0.00122  0.00000 -0.01650  0.00000 -0.19499  0.00000 -0.01700  0.00000 -0.01648  0.00000  0.00127  0.00000 -1.42097  0.00000 -0.14781  0.00000 -0.19922  0.00000 -0.19898  0.00000 -0.19846  0.00000 -0.19554  0.00000  0.00100  0.00000 -0.01692  0.00000 -0.01468  0.00000 -0.19385  0.00000 -0.01686  0.00000  0.00132  0.00000 -0.01539  0.00000 -0.19644  0.00000 -0.01476  0.00000 -0.01552  0.00000  0.00115
-4.97487 -0.00427 -0.16744 -0.02636 -1.41929  0.00690 -0.14668 -0.00505 -0.19736 -0.00508 -0.19835 -0.00508 -0.19823 -0.00504 -0.19669 -0.00058  0.00108  0.00161 -0.01526  0.00247 -0.01437 -0.00501 -0.19595  0.00159 -0.01501 -0.00030  0.00117 -0.00491 -0.01650 -0.00505 -0.19699  0.00247 -0.01434 -0.00495 -0.01673 -0.00037  0.00092 -0.03176 -1.41818  0.00683 -0.14538 -0.00505 -0.19770 -0.00509 -0.19867 -0.00506 -0.19747 -0.00505 -0.19725 -0.00046  0.00088  0.00158 -0.01489 -0.00629 -0.01698 -0.00501 -0.19578  0.00156 -0.01460 -0.00025  0.00096  0.00110 -0.01460 -0.00502 -0.19589 -0.00628 -0.01692  0.00111 -0.01482 -0.00038  0.00095 -0.05851 -1.43180  0.00698 -0.14809 -0.00508 -0.19856 -0.00511 -0.19912 -0.00506 -0.19771 -0.00504 -0.19677 -0.00059  0.00111 -0.00543 -0.01696 -0.00644 -0.01756 -0.00501 -0.19541 -0.00538 -0.01668 -0.00031  0.00120 -0.00499 -0.01686 -0.00504 -0.19686 -0.00645 -0.01761 -0.00505 -0.01718 -0.00052  0.00128 -0.02839 -1.42381  0.00701 -0.14857 -0.00508 -0.19802 -0.00512 -0.19967 -0.00508 -0.19841 -0.00503 -0.19614 -0.00064  0.00119 -0.00547 -0.01713  0.00253 -0.01480 -0.00500 -0.19553 -0.00542 -0.01683 -0.00033  0.00126  0.00113 -0.01519 -0.00504 -0.19693  0.00253 -0.01481  0.00114 -0.01549 -0.00051  0.00126 -0.00427 -0.16744 -0.02539 -1.42171  0.00698 -0.14799 -0.00504 -0.19651 -0.00507 -0.19839 -0.00509 -0.19853 -0.00504 -0.19645 -0.00083  0.00125  0.00232 -0.01496  0.00186 -0.01496 -0.00506 -0.19781  0.00232 -0.01496 -0.00034  0.00113 -0.00447 -0.01664 -0.00504 -0.19668  0.00185 -0.01486 -0.00445 -0.01653 -0.00029  0.00115 -0.03019 -1.41851  0.00685 -0.14575 -0.00507 -0.19796 -0.00507 -0.19824 -0.00511 -0.19944 -0.00501 -0.19570 -0.00062  0.00094  0.00225 -0.01436 -0.00570 -0.01702 -0.00505 -0.19725  0.00226 -0.01446 -0.00027  0.00089  0.00062 -0.01508 -0.00498 -0.19443 -0.00567 -0.01686  0.00062 -0.01484 -0.00026  0.00105 -0.05740 -1.43028  0.00695 -0.14752 -0.00515 -0.20139 -0.00510 -0.19870 -0.00509 -0.19876 -0.00499 -0.19522 -0.00063  0.00096 -0.00611 -0.01704 -0.00572 -0.01714 -0.00500 -0.19476 -0.00614 -0.01720 -0.00037  0.00121 -0.00451 -0.01673 -0.00500 -0.19524 -0.00574 -0.01729 -0.00450 -0.01671 -0.00031  0.00125 -0.03208 -1.42258  0.00695 -0.14746 -0.00511 -0.19948 -0.00511 -0.19924 -0.00509 -0.19872 -0.00501 -0.19579 -0.00063  0.00097 -0.00616 -0.01723  0.00182 -0.01459 -0.00497 -0.19410 -0.00615 -0.01717 -0.00040  0.00130  0.00063 -0.01536 -0.00503 -0.19669  0.00183 -0.01467  0.00064 -0.01549 -0.00028  0.00114
-4.92462 -0.00418 -0.16765 -0.02581 -1.42058  0.00676 -0.14634 -0.00495 -0.19761 -0.00498 -0.19860 -0.00497 -0.19848 -0.00493 -0.19694 -0.00056  0.00105  0.00158 -0.01518  0.00243 -0.01425 -0.00491 -0.19619  0.00156 -0.01493 -0.00030  0.00115 -0.00481 -0.01674 -0.00494 -0.19724  0.00242 -0.01421 -0.00485 -0.01697 -0.00036  0.00090 -0.03110 -1.41974  0.00669 -0.14504 -0.00495 -0.19795 -0.00498 -0.19892 -0.00495 -0.19772 -0.00494 -0.19750 -0.00045  0.00085  0.00155 -0.01481 -0.00617 -0.01729 -0.00490 -0.19603  0.00153 -0.01453 -0.00024  0.00095  0.00108 -0.01454 -0.00492 -0.19614 -0.00615 -0.01722  0.00109 -0.01477 -0.00037  0.00093 -0.05732 -1.43468  0.00684 -0.14775 -0.00498 -0.19881 -0.00500 -0.19937 -0.00495 -0.19796 -0.00493 -0.19701 -0.00058  0.00108 -0.00532 -0.01723 -0.00631 -0.01788 -0.00490 -0.19565 -0.00527 -0.01695 -0.00031  0.00118 -0.00489 -0.01711 -0.00494 -0.19711 -0.00632 -0.01793 -0.00494 -0.01743 -0.00050  0.00125 -0.02780 -1.42520  0.00686 -0.14822 -0.00497 -0.19827 -0.00501 -0.19992 -0.00497 -0.19866 -0.00493 -0.19639 -0.00063  0.00116 -0.00536 -0.01740  0.00248 -0.01467 -0.00490 -0.19578 -0.00531 -0.01710 -0.00032  0.00124  0.00110 -0.01514 -0.00494 -0.19718  0.00248 -0.01468  0.00112 -0.01544 -0.00050  0.00124 -0.00418 -0.16765 -0.02486 -1.42296  0.00683 -0.14765 -0.00493 -0.19675 -0.00497 -0.19864 -0.00498 -0.19878 -0.00493 -0.19670 -0.00082  0.00121  0.00227 -0.01484  0.00182 -0.01487 -0.00496 -0.19806  0.00227 -0.01484 -0.00033  0.00111 -0.00438 -0.01686 -0.00493 -0.19692  0.00182 -0.01477 -0.00436 -0.01675 -0.00028  0.00114 -0.02957 -1.42000  0.00671 -0.14542 -0.00497 -0.19821 -0.00496 -0.19849 -0.00500 -0.19969 -0.00491 -0.19595 -0.00060  0.00091  0.00221 -0.01425 -0.00559 -0.01730 -0.00494 -0.19750  0.00222 -0.01435 -0.00026  0.00088  0.00061 -0.01505 -0.00487 -0.19468 -0.00556 -0.01714  0.00061 -0.01481 -0.00026  0.00104 -0.05623 -1.43310  0.00681 -0.14718 -0.00504 -0.20165 -0.00499 -0.19895 -0.00499 -0.19901 -0.00488 -0.19546 -0.00062  0.00093 -0.00598 -0.01734 -0.00560 -0.01742 -0.00489 -0.19501 -0.00602 -0.01750 -0.00036  0.00119 -0.00442 -0.01695 -0.00490 -0.19549 -0.00563 -0.01757 -0.00441 -0.01693 -0.00031  0.00124 -0.03141 -1.42416  0.00680 -0.14711 -0.00500 -0.19973 -0.00500 -0.19949 -0.00498 -0.19897 -0.00491 -0.19604 -0.00062  0.00093 -0.00604 -0.01753  0.00179 -0.01450 -0.00487 -0.19435 -0.00603 -0.01748 -0.00039  0.00128  0.00062 -0.01532 -0.00493 -0.19694  0.00179 -0.01458  0.00063 -0.01546 -0.00028  0.00112
-4.87437 -0.00409 -0.16786 -0.02529 -1.42185  0.00662 -0.14601 -0.00485 -0.19785 -0.00487 -0.19885 -0.00487 -0.19873 -0.00483 -0.19718 -0.00055  0.00103  0.00154 -0.01510  0.00238 -0.01413 -0.00481 -0.19643  0.00153 -0.01485 -0.00029  0.00114 -0.00471 -0.01698 -0.00484 -0.19748  0.00237 -0.01410 -0.00475 -0.01721 -0.00035  0.00088 -0.03048 -1.42127  0.00655 -0.14471 -0.00485 -0.19819 -0.00488 -0.19917 -0.00485 -0.19797 -0.00484 -0.19774 -0.00044  0.00083  0.00151 -0.01474 -0.00604 -0.01760 -0.00480 -0.19627  0.00150 -0.01445 -0.00024  0.00094  0.00106 -0.01449 -0.00482 -0.19638 -0.00603 -0.01753  0.00107 -0.01472 -0.00036  0.00091 -0.05616 -1.43750  0.00670 -0.14741 -0.00488 -0.19906 -0.00490 -0.19962 -0.00485 -0.19820 -0.00484 -0.19726 -0.00057  0.00105 -0.00521 -0.01749 -0.00618 -0.01819 -0.00480 -0.19589 -0.00517 -0.01721 -0.00030  0.00117 -0.00479 -0.01735 -0.00484 -0.19735 -0.00619 -0.01824 -0.00484 -0.01768 -0.00049  0.00123 -0.02724 -1.42657  0.00673 -0.14788 -0.00487 -0.19852 -0.00491 -0.20017 -0.00487 -0.19890 -0.00483 -0.19663 -0.00061  0.00113 -0.00526 -0.01767  0.00243 -0.01455 -0.00480 -0.19602 -0.00520 -0.01736 -0.00032  0.00123  0.00108 -0.01508 -0.00484 -0.19742  0.00243 -0.01456  0.00109 -0.01538 -0.00049  0.00121 -0.00409 -0.16786 -0.02435 -1.42418  0.00669 -0.14731 -0.00483 -0.19700 -0.00487 -0.19888 -0.00488 -0.19902 -0.00484 -0.19694 -0.00080  0.00117  0.00222 -0.01473  0.00179 -0.01478 -0.00486 -0.19830  0.00223 -0.01473 -0.00033  0.00109 -0.00429 -0.01707 -0.00483 -0.19717  0.00178 -0.01468 -0.00427 -0.01696 -0.00028  0.00112 -0.02897 -1.42146  0.00657 -0.14509 -0.00487 -0.19845 -0.00486 -0.19873 -0.00490 -0.19994 -0.00481 -0.19619 -0.00059  0.00088  0.00216 -0.01414 -0.00547 -0.01758 -0.00484 -0.19775  0.00217 -0.01424 -0.00026  0.00087  0.00060 -0.01502 -0.00478 -0.19492 -0.00544 -0.01741  0.00059 -0.01478 -0.00025  0.00103 -0.05510 -1.43587  0.00667 -0.14685 -0.00494 -0.20190 -0.00489 -0.19919 -0.00489 -0.19926 -0.00478 -0.19571 -0.00061  0.00090 -0.00586 -0.01764 -0.00549 -0.01770 -0.00479 -0.19525 -0.00590 -0.01780 -0.00035  0.00117 -0.00433 -0.01717 -0.00480 -0.19573 -0.00551 -0.01785 -0.00432 -0.01715 -0.00030  0.00122 -0.03078 -1.42571  0.00666 -0.14678 -0.00490 -0.19997 -0.00490 -0.19974 -0.00488 -0.19921 -0.00481 -0.19628 -0.00061  0.00090 -0.00592 -0.01783  0.00175 -0.01441 -0.00477 -0.19459 -0.00590 -0.01777 -0.00038  0.00126  0.00061 -0.01529 -0.00483 -0.19719  0.00176 -0.01449  0.00061 -0.01543 -0.00027  0.00111
-4.82412 -0.00401 -0.16806 -0.02477 -1.42310  0.00649 -0.14568 -0.00475 -0.19809 -0.00478 -0.19909 -0.00477 -0.19897 -0.00474 -0.19742 -0.00054  0.00100  0.00151 -0.01503  0.00233 -0.01401 -0.00471 -0.19667  0.00150 -0.01478 -0.00029  0.00112 -0.00462 -0.01721 -0.00474 -0.19772  0.00233 -0.01398 -0.00465 -0.01744 -0.00034  0.00087 -0.02985 -1.42277  0.00642 -0.14439 -0.00475 -0.19843 -0.00478 -0.19941 -0.00476 -0.19820 -0.00474 -0.19798 -0.00043  0.00081  0.00148 -0.01466 -0.00592 -0.01790 -0.00470 -0.19651  0.00147 -0.01438 -0.00023  0.00092  0.00103 -0.01444 -0.00472 -0.19662 -0.00590 -0.01782  0.00104 -0.01466 -0.00036  0.00090 -0.05502 -1.44027  0.00656 -0.14708 -0.00478 -0.19930 -0.00480 -0.19986 -0.00476 -0.19844 -0.00474 -0.19750 -0.00055  0.00102 -0.00511 -0.01775 -0.00606 -0.01850 -0.00470 -0.19613 -0.00506 -0.01746 -0.00029  0.00115 -0.00469 -0.01758 -0.00474 -0.19759 -0.00607 -0.01855 -0.00475 -0.01791 -0.00048  0.00120 -0.02669 -1.42791  0.00659 -0.14755 -0.00477 -0.19875 -0.00481 -0.20041 -0.00477 -0.19914 -0.00473 -0.19687 -0.00060  0.00110 -0.00515 -0.01792  0.00238 -0.01443 -0.00470 -0.19625 -0.00510 -0.01762 -0.00031  0.00121  0.00106 -0.01503 -0.00474 -0.19766  0.00238 -0.01444  0.00107 -0.01533 -0.00048  0.00119 -0.00401 -0.16806 -0.02386 -1.42538  0.00656 -0.14698 -0.00474 -0.19723 -0.00477 -0.19912 -0.00478 -0.19926 -0.00474 -0.19718 -0.00078  0.00113  0.00218 -0.01462  0.00175 -0.01469 -0.00476 -0.19854  0.00218 -0.01462 -0.00032  0.00108 -0.00420 -0.01728 -0.00474 -0.19741  0.00174 -0.01459 -0.00418 -0.01717 -0.00027  0.00111 -0.02838 -1.42288  0.00644 -0.14476 -0.00477 -0.19869 -0.00476 -0.19897 -0.00480 -0.20018 -0.00471 -0.19642 -0.00058  0.00085  0.00212 -0.01404 -0.00536 -0.01785 -0.00474 -0.19798  0.00213 -0.01413 -0.00025  0.00086  0.00059 -0.01499 -0.00468 -0.19515 -0.00533 -0.01768  0.00058 -0.01475 -0.00025  0.00102 -0.05397 -1.43859  0.00653 -0.14652 -0.00484 -0.20214 -0.00479 -0.19944 -0.00479 -0.19950 -0.00469 -0.19594 -0.00059  0.00087 -0.00574 -0.01792 -0.00538 -0.01797 -0.00470 -0.19549 -0.00578 -0.01809 -0.00034  0.00115 -0.00424 -0.01738 -0.00470 -0.19596 -0.00540 -0.01812 -0.00424 -0.01736 -0.00029  0.00121 -0.03015 -1.42722  0.00653 -0.14645 -0.00480 -0.20022 -0.00480 -0.19998 -0.00478 -0.19945 -0.00471 -0.19652 -0.00059  0.00087 -0.00579 -0.01812  0.00172 -0.01432 -0.00467 -0.19482 -0.00578 -0.01806 -0.00037  0.00124  0.00060 -0.01526 -0.00473 -0.19742  0.00172 -0.01440  0.00060 -0.01540 -0.00027  0.00110
-4.77387 -0.00393 -0.16826 -0.02426 -1.42432  0.00635 -0.14536 -0.00465 -0.19832 -0.00468 -0.19932 -0.00467 -0.19920 -0.00464 -0.19765 -0.00053  0.00097  0.00148 -0.01495  0.00228 -0.01390 -0.00461 -0.19690  0.00147 -0.01470 -0.00028  0.00111 -0.00452 -0.01744 -0.00465 -0.19795  0.00228 -0.01386 -0.00456 -0.01767 -0.00034  0.00085 -0.02924 -1.42424  0.00629 -0.14408 -0.00465 -0.19867 -0.00468 -0.19964 -0.00466 -0.19844 -0.00464 -0.19821 -0.00043  0.00079  0.00145 -0.01459 -0.00580 -0.01819 -0.00461 -0.19674  0.00144 -0.01430 -0.00023  0.00091  0.00101 -0.01439 -0.00462 -0.19685 -0.00578 -0.01812  0.00102 -0.01461 -0.00035  0.00088 -0.05388 -1.44297  0.00643 -0.14676 -0.00468 -0.19953 -0.00470 -0.20010 -0.00466 -0.19867 -0.00464 -0.19773 -0.00054  0.00099 -0.00500 -0.01800 -0.00593 -0.01879 -0.00461 -0.19636 -0.00496 -0.01771 -0.00029  0.00114 -0.00460 -0.01782 -0.00464 -0.19782 -0.00594 -0.01884 -0.00465 -0.01815 -0.00047  0.00118 -0.02614 -1.42923  0.00645 -0.14723 -0.00467 -0.19899 -0.00471 -0.20065 -0.00467 -0.19938 -0.00463 -0.19711 -0.00059  0.00107 -0.00504 -0.01818  0.00233 -0.01431 -0.00461 -0.19649 -0.00499 -0.01787 -0.00030  0.00120  0.00104 -0.01498 -0.00464 -0.19789  0.00233 -0.01432  0.00105 -0.01528 -0.00047  0.00116 -0.00393 -0.16826 -0.02337 -1.42655  0.00642 -0.14666 -0.00464 -0.19747 -0.00467 -0.19935 -0.00468 -0.19950 -0.00464 -0.19741 -0.00077  0.00109  0.00213 -0.01451  0.00171 -0.01460 -0.00466 -0.19878  0.00213 -0.01452 -0.00031  0.00106 -0.00411 -0.01749 -0.00464 -0.19764  0.00171 -0.01451 -0.00410 -0.01738 -0.00026  0.00110 -0.02779 -1.42428  0.00630 -0.14445 -0.00467 -0.19893 -0.00467 -0.19921 -0.00470 -0.20042 -0.00461 -0.19666 -0.00057  0.00083  0.00208 -0.01393 -0.00525 -0.01811 -0.00464 -0.19822  0.00208 -0.01403 -0.00025  0.00084  0.00058 -0.01496 -0.00458 -0.19538 -0.00522 -0.01794  0.00057 -0.01472 -0.00024  0.00100 -0.05286 -1.44124  0.00640 -0.14620 -0.00474 -0.20238 -0.00469 -0.19967 -0.00469 -0.19973 -0.00459 -0.19617 -0.00058  0.00084 -0.00563 -0.01821 -0.00526 -0.01823 -0.00460 -0.19572 -0.00566 -0.01837 -0.00034  0.00114 -0.00415 -0.01759 -0.00460 -0.19620 -0.00529 -0.01838 -0.00415 -0.01757 -0.00029  0.00119 -0.02953 -1.42870  0.00639 -0.14613 -0.00470 -0.20045 -0.00470 -0.20021 -0.00468 -0.19969 -0.00461 -0.19675 -0.00058  0.00085 -0.00568 -0.01840  0.00168 -0.01424 -0.00458 -0.19505 -0.00566 -0.01835 -0.00036  0.00122  0.00058 -0.01523 -0.00463 -0.19766  0.00169 -0.01432  0.00059 -0.01537 -0.00026  0.00108
-4.72362 -0.00385 -0.16845 -0.02376 -1.42551  0.00622 -0.14505 -0.00455 -0.19855 -0.00458 -0.19955 -0.00457 -0.19943 -0.00454 -0.19788 -0.00052  0.00095  0.00145 -0.01488  0.00223 -0.01378 -0.00452 -0.19713  0.00144 -0.01463 -0.00027  0.00109 -0.00443 -0.01766 -0.00455 -0.19818  0.00223 -0.01375 -0.00446 -0.01790 -0.00033  0.00083 -0.02863 -1.42568  0.00615 -0.14377 -0.00455 -0.19890 -0.00459 -0.19987 -0.00456 -0.19867 -0.00455 -0.19844 -0.00042  0.00077  0.00142 -0.01452 -0.00568 -0.01847 -0.00451 -0.19697  0.00141 -0.01423 -0.00022  0.00090  0.00099 -0.01434 -0.00453 -0.19708 -0.00566 -0.01840  0.00100 -0.01456 -0.00034  0.00086 -0.05276 -1.44563  0.00629 -0.14644 -0.00458 -0.19976 -0.00461 -0.20033 -0.00456 -0.19890 -0.00454 -0.19796 -0.00053  0.00097 -0.00490 -0.01824 -0.00581 -0.01909 -0.00451 -0.19659 -0.00485 -0.01795 -0.00028  0.00112 -0.00450 -0.01804 -0.00454 -0.19805 -0.00582 -0.01914 -0.00455 -0.01838 -0.00046  0.00115 -0.02559 -1.43051  0.00632 -0.14691 -0.00458 -0.19922 -0.00461 -0.20088 -0.00457 -0.19961 -0.00454 -0.19733 -0.00058  0.00104 -0.00494 -0.01843  0.00228 -0.01420 -0.00451 -0.19671 -0.00489 -0.01811 -0.00030  0.00118  0.00102 -0.01493 -0.00454 -0.19812  0.00228 -0.01421  0.00103 -0.01522 -0.00046  0.00114 -0.00385 -0.16845 -0.02288 -1.42770  0.00629 -0.14634 -0.00454 -0.19770 -0.00457 -0.19958 -0.00458 -0.19973 -0.00454 -0.19764 -0.00075  0.00106  0.00209 -0.01441  0.00168 -0.01452 -0.00456 -0.19900  0.00209 -0.01441 -0.00031  0.00105 -0.00403 -0.01769 -0.00454 -0.19787  0.00167 -0.01442 -0.00401 -0.01758 -0.00026  0.00108 -0.02721 -1.42565  0.00617 -0.14414 -0.00457 -0.19916 -0.00457 -0.19944 -0.00460 -0.20065 -0.00452 -0.19688 -0.00056  0.00080  0.00203 -0.01383 -0.00514 -0.01837 -0.00455 -0.19845  0.00204 -0.01392 -0.00024  0.00083  0.00056 -0.01493 -0.00449 -0.19561 -0.00511 -0.01820  0.00056 -0.01469 -0.00024  0.00099 -0.05176 -1.44384  0.00626 -0.14588 -0.00464 -0.20261 -0.00460 -0.19990 -0.00459 -0.19996 -0.00449 -0.19640 -0.00057  0.00082 -0.00551 -0.01848 -0.00516 -0.01849 -0.00450 -0.19594 -0.00554 -0.01865 -0.00033  0.00112 -0.00406 -0.01779 -0.00451 -0.19642 -0.00518 -0.01864 -0.00406 -0.01777 -0.00028  0.00118 -0.02891 -1.43016  0.00626 -0.14582 -0.00461 -0.20068 -0.00460 -0.20045 -0.00458 -0.19992 -0.00452 -0.19698 -0.00057  0.00082 -0.00556 -0.01868  0.00165 -0.01416 -0.00448 -0.19528 -0.00555 -0.01863 -0.00036  0.00120  0.00057 -0.01521 -0.00454 -0.19788  0.00165 -0.01424  0.00058 -0.01534 -0.00026  0.00107
-4.67337 -0.00376 -0.16864 -0.02326 -1.42668  0.00609 -0.14474 -0.00446 -0.19878 -0.00448 -0.19978 -0.00448 -0.19966 -0.00445 -0.19811 -0.00051  0.00092  0.00142 -0.01481  0.00219 -0.01367 -0.00442 -0.19735  0.00141 -0.01456 -0.00027  0.00108 -0.00433 -0.01788 -0.00445 -0.19841  0.00218 -0.01364 -0.00437 -0.01812 -0.00032  0.00082 -0.02803 -1.42709  0.00602 -0.14346 -0.00446 -0.19912 -0.00449 -0.20010 -0.00446 -0.19889 -0.00445 -0.19867 -0.00041  0.00075  0.00139 -0.01445 -0.00556 -0.01875 -0.00442 -0.19719  0.00138 -0.01416 -0.00022  0.00089  0.00097 -0.01429 -0.00443 -0.19730 -0.00554 -0.01868  0.00098 -0.01451 -0.00033  0.00084 -0.05165 -1.44822  0.00616 -0.14613 -0.00448 -0.19999 -0.00451 -0.20056 -0.00446 -0.19913 -0.00445 -0.19818 -0.00052  0.00094 -0.00480 -0.01848 -0.00569 -0.01937 -0.00442 -0.19681 -0.00475 -0.01819 -0.00028  0.00111 -0.00441 -0.01826 -0.00445 -0.19827 -0.00569 -0.01942 -0.00446 -0.01860 -0.00045  0.00113 -0.02505 -1.43177  0.00618 -0.14660 -0.00448 -0.19945 -0.00452 -0.20111 -0.00448 -0.19983 -0.00444 -0.19756 -0.00056  0.00101 -0.00483 -0.01867  0.00223 -0.01409 -0.00441 -0.19693 -0.00478 -0.01835 -0.00029  0.00117  0.00100 -0.01488 -0.00445 -0.19835  0.00223 -0.01410  0.00101 -0.01517 -0.00045  0.00112 -0.00377 -0.16864 -0.02240 -1.42883  0.00616 -0.14604 -0.00445 -0.19792 -0.00447 -0.19981 -0.00449 -0.19995 -0.00445 -0.19786 -0.00074  0.00102  0.00205 -0.01431  0.00164 -0.01443 -0.00447 -0.19923  0.00205 -0.01431 -0.00030  0.00103 -0.00394 -0.01789 -0.00445 -0.19809  0.00164 -0.01434 -0.00393 -0.01778 -0.00025  0.00107 -0.02664 -1.42698  0.00604 -0.14383 -0.00447 -0.19938 -0.00447 -0.19966 -0.00451 -0.20088 -0.00442 -0.19710 -0.00054  0.00077  0.00199 -0.01373 -0.00503 -0.01862 -0.00445 -0.19867  0.00200 -0.01382 -0.00024  0.00082  0.00055 -0.01491 -0.00439 -0.19583 -0.00501 -0.01845  0.00055 -0.01467 -0.00023  0.00098 -0.05067 -1.44639  0.00613 -0.14557 -0.00454 -0.20284 -0.00450 -0.20013 -0.00449 -0.20019 -0.00440 -0.19662 -0.00056  0.00079 -0.00539 -0.01875 -0.00505 -0.01875 -0.00441 -0.19617 -0.00542 -0.01892 -0.00032  0.00110 -0.00398 -0.01799 -0.00441 -0.19664 -0.00507 -0.01890 -0.00398 -0.01797 -0.00028  0.00116 -0.02830 -1.43158  0.00613 -0.14551 -0.00451 -0.20091 -0.00451 -0.20067 -0.00449 -0.20014 -0.00442 -0.19720 -0.00056  0.00079 -0.00544 -0.01896  0.00161 -0.01407 -0.00439 -0.19550 -0.00543 -0.01890 -0.00035  0.00119  0.00056 -0.01518 -0.00444 -0.19811  0.00162 -0.01415  0.00056 -0.01531 -0.00025  0.00106
-4.62312 -0.00368 -0.16883 -0.02276 -1.42783  0.00596 -0.14444 -0.00436 -0.19900 -0.00439 -0.20000 -0.00438 -0.19988 -0.00435 -0.19832 -0.00050  0.00090  0.00139 -0.01474  0.00214 -0.01357 -0.00433 -0.19757  0.00138 -0.01449 -0.00026  0.00107 -0.00424 -0.01809 -0.00436 -0.19863  0.00214 -0.01354 -0.00428 -0.01833 -0.00032  0.00080 -0.02743 -1.42847  0.00590 -0.14317 -0.00436 -0.19934 -0.00439 -0.20032 -0.00437 -0.19911 -0.00436 -0.19888 -0.00040  0.00073  0.00136 -0.01438 -0.00544 -0.01902 -0.00432 -0.19740  0.00135 -0.01410 -0.00021  0.00088  0.00095 -0.01424 -0.00434 -0.19752 -0.00542 -0.01895  0.00096 -0.01446 -0.00033  0.00083 -0.05055 -1.45076  0.00603 -0.14583 -0.00439 -0.20021 -0.00441 -0.20078 -0.00437 -0.19935 -0.00435 -0.19840 -0.00051  0.00092 -0.00469 -0.01872 -0.00556 -0.01965 -0.00432 -0.19703 -0.00465 -0.01843 -0.00027  0.00109 -0.00431 -0.01848 -0.00435 -0.19849 -0.00557 -0.01970 -0.00436 -0.01882 -0.00045  0.00111 -0.02452 -1.43300  0.00605 -0.14630 -0.00439 -0.19967 -0.00442 -0.20133 -0.00438 -0.20005 -0.00435 -0.19777 -0.00055  0.00099 -0.00473 -0.01891  0.00218 -0.01398 -0.00432 -0.19715 -0.00468 -0.01859 -0.00029  0.00115  0.00097 -0.01483 -0.00435 -0.19856  0.00218 -0.01399  0.00098 -0.01512 -0.00044  0.00110 -0.00368 -0.16883 -0.02192 -1.42993  0.00602 -0.14573 -0.00435 -0.19814 -0.00438 -0.20003 -0.00439 -0.20017 -0.00435 -0.19808 -0.00072  0.00098  0.00200 -0.01421  0.00161 -0.01435 -0.00437 -0.19945  0.00200 -0.01421 -0.00029  0.00102 -0.00386 -0.01808 -0.00435 -0.19831  0.00160 -0.01426 -0.00384 -0.01797 -0.00025  0.00106 -0.02608 -1.42830  0.00592 -0.14354 -0.00438 -0.19960 -0.00438 -0.19988 -0.00441 -0.20110 -0.00433 -0.19732 -0.00053  0.00074  0.00195 -0.01363 -0.00493 -0.01887 -0.00436 -0.19889  0.00195 -0.01372 -0.00023  0.00081  0.00054 -0.01488 -0.00430 -0.19604 -0.00490 -0.01870  0.00054 -0.01464 -0.00023  0.00097 -0.04959 -1.44888  0.00600 -0.14527 -0.00445 -0.20306 -0.00440 -0.20035 -0.00440 -0.20041 -0.00431 -0.19683 -0.00055  0.00076 -0.00528 -0.01902 -0.00494 -0.01899 -0.00431 -0.19638 -0.00531 -0.01919 -0.00032  0.00109 -0.00389 -0.01819 -0.00432 -0.19686 -0.00496 -0.01915 -0.00389 -0.01817 -0.00027  0.00115 -0.02770 -1.43297  0.00600 -0.14521 -0.00441 -0.20113 -0.00441 -0.20089 -0.00439 -0.20036 -0.00433 -0.19742 -0.00055  0.00076 -0.00532 -0.01922  0.00158 -0.01400 -0.00430 -0.19572 -0.00531 -0.01917 -0.00034  0.00117  0.00055 -0.01515 -0.00435 -0.19832  0.00158 -0.01408  0.00055 -0.01529 -0.00024  0.00105
-4.57286 -0.00360 -0.16901 -0.02227 -1.42894  0.00583 -0.14415 -0.00427 -0.19921 -0.00429 -0.20021 -0.00429 -0.20009 -0.00426 -0.19854 -0.00049  0.00087  0.00136 -0.01467  0.00209 -0.01346 -0.00423 -0.19778  0.00135 -0.01442 -0.00026  0.00105 -0.00415 -0.01830 -0.00427 -0.19884  0.00209 -0.01343 -0.00418 -0.01854 -0.00031  0.00079 -0.02684 -1.42982  0.00577 -0.14288 -0.00427 -0.19955 -0.00430 -0.20053 -0.00428 -0.19933 -0.00426 -0.19910 -0.00039  0.00071  0.00133 -0.01431 -0.00532 -0.01929 -0.00423 -0.19762  0.00132 -0.01403 -0.00021  0.00087  0.00093 -0.01419 -0.00424 -0.19773 -0.00531 -0.01922  0.00094 -0.01442 -0.00032  0.00081 -0.04946 -1.45325  0.00590 -0.14553 -0.00429 -0.20043 -0.00432 -0.20099 -0.00428 -0.19956 -0.00426 -0.19861 -0.00050  0.00089 -0.00459 -0.01895 -0.00545 -0.01993 -0.00423 -0.19724 -0.00455 -0.01865 -0.00026  0.00108 -0.00422 -0.01869 -0.00426 -0.19871 -0.00545 -0.01998 -0.00427 -0.01903 -0.00044  0.00109 -0.02399 -1.43421  0.00592 -0.14600 -0.00429 -0.19988 -0.00433 -0.20154 -0.00429 -0.20027 -0.00425 -0.19799 -0.00054  0.00096 -0.00463 -0.01914  0.00214 -0.01387 -0.00423 -0.19736 -0.00458 -0.01882 -0.00028  0.00114  0.00095 -0.01478 -0.00426 -0.19878  0.00214 -0.01388  0.00096 -0.01508 -0.00043  0.00107 -0.00361 -0.16901 -0.02145 -1.43101  0.00590 -0.14544 -0.00426 -0.19835 -0.00429 -0.20024 -0.00430 -0.20039 -0.00426 -0.19830 -0.00070  0.00095  0.00196 -0.01411  0.00157 -0.01427 -0.00428 -0.19966  0.00196 -0.01411 -0.00029  0.00100 -0.00378 -0.01827 -0.00426 -0.19852  0.00157 -0.01418 -0.00376 -0.01816 -0.00024  0.00105 -0.02551 -1.42958  0.00579 -0.14324 -0.00429 -0.19982 -0.00428 -0.20010 -0.00432 -0.20131 -0.00424 -0.19754 -0.00052  0.00072  0.00191 -0.01354 -0.00482 -0.01911 -0.00426 -0.19910  0.00191 -0.01363 -0.00023  0.00080  0.00053 -0.01485 -0.00421 -0.19626 -0.00479 -0.01894  0.00052 -0.01461 -0.00022  0.00096 -0.04852 -1.45132  0.00587 -0.14498 -0.00435 -0.20328 -0.00431 -0.20057 -0.00430 -0.20063 -0.00421 -0.19705 -0.00053  0.00073 -0.00516 -0.01928 -0.00483 -0.01924 -0.00422 -0.19660 -0.00519 -0.01945 -0.00031  0.00107 -0.00381 -0.01838 -0.00423 -0.19707 -0.00486 -0.01939 -0.00381 -0.01836 -0.00026  0.00114 -0.02711 -1.43433  0.00587 -0.14491 -0.00432 -0.20135 -0.00432 -0.20111 -0.00430 -0.20058 -0.00424 -0.19763 -0.00053  0.00073 -0.00521 -0.01949  0.00154 -0.01392 -0.00420 -0.19593 -0.00520 -0.01943 -0.00033  0.00115  0.00054 -0.01512 -0.00425 -0.19854  0.00155 -0.01400  0.00054 -0.01526 -0.00024  0.00103