ESCALE ; pCOOP file generated by LOBSTER. Energy is shifted such that the Fermi level lies at 0 eV.
        69          2        201   8.49319e-01   1.08996e+01   5.87444e+00
Average
No.1:Si2->Si1(2.3537064179834077)
No.1:Si2[3s]->Si1[3s](2.3537064179834077)
No.1:Si2[3p_y]->Si1[3s](2.3537064179834077)
No.1:Si2[3p_z]->Si1[3s](2.3537064179834077)
No.1:Si2[3p_x]->Si1[3s](2.3537064179834077)
No.1:Si2[3s]->Si1[3p_y](2.3537064179834077)
No.1:Si2[3p_y]->Si1[3p_y](2.3537064179834077)
No.1:Si2[3p_z]->Si1[3p_y](2.3537064179834077)
No.1:Si2[3p_x]->Si1[3p_y](2.3537064179834077)
No.1:Si2[3s]->Si1[3p_z](2.3537064179834077)
No.1:Si2[3p_y]->Si1[3p_z](2.3537064179834077)
No.1:Si2[3p_z]->Si1[3p_z](2.3537064179834077)
No.1:Si2[3p_x]->Si1[3p_z](2.3537064179834077)
No.1:Si2[3s]->Si1[3p_x](2.3537064179834077)
No.1:Si2[3p_y]->Si1[3p_x](2.3537064179834077)
No.1:Si2[3p_z]->Si1[3p_x](2.3537064179834077)
No.1:Si2[3p_x]->Si1[3p_x](2.3537064179834077)
No.2:Si2->Si1(2.3537064179834077)
No.2:Si2[3s]->Si1[3s](2.3537064179834077)
No.2:Si2[3p_y]->Si1[3s](2.3537064179834077)
No.2:Si2[3p_z]->Si1[3s](2.3537064179834077)
No.2:Si2[3p_x]->Si1[3s](2.3537064179834077)
No.2:Si2[3s]->Si1[3p_y](2.3537064179834077)
No.2:Si2[3p_y]->Si1[3p_y](2.3537064179834077)
No.2:Si2[3p_z]->Si1[3p_y](2.3537064179834077)
No.2:Si2[3p_x]->Si1[3p_y](2.3537064179834077)
No.2:Si2[3s]->Si1[3p_z](2.3537064179834077)
No.2:Si2[3p_y]->Si1[3p_z](2.3537064179834077)
No.2:Si2[3p_z]->Si1[3p_z](2.3537064179834077)
No.2:Si2[3p_x]->Si1[3p_z](2.3537064179834077)
No.2:Si2[3s]->Si1[3p_x](2.3537064179834077)
No.2:Si2[3p_y]->Si1[3p_x](2.3537064179834077)
No.2:Si2[3p_z]->Si1[3p_x](2.3537064179834077)
No.2:Si2[3p_x]->Si1[3p_x](2.3537064179834077)
No.3:Si2->Si1(2.3537064179834077)
No.3:Si2[3s]->Si1[3s](2.3537064179834077)
No.3:Si2[3p_y]->Si1[3s](2.3537064179834077)
No.3:Si2[3p_z]->Si1[3s](2.3537064179834077)
No.3:Si2[3p_x]->Si1[3s](2.3537064179834077)
No.3:Si2[3s]->Si1[3p_y](2.3537064179834077)
No.3:Si2[3p_y]->Si1[3p_y](2.3537064179834077)
No.3:Si2[3p_z]->Si1[3p_y](2.3537064179834077)
No.3:Si2[3p_x]->Si1[3p_y](2.3537064179834077)
No.3:Si2[3s]->Si1[3p_z](2.3537064179834077)
No.3:Si2[3p_y]->Si1[3p_z](2.3537064179834077)
No.3:Si2[3p_z]->Si1[3p_z](2.3537064179834077)
No.3:Si2[3p_x]->Si1[3p_z](2.3537064179834077)
No.3:Si2[3s]->Si1[3p_x](2.3537064179834077)
No.3:Si2[3p_y]->Si1[3p_x](2.3537064179834077)
No.3:Si2[3p_z]->Si1[3p_x](2.3537064179834077)
No.3:Si2[3p_x]->Si1[3p_x](2.3537064179834077)
No.4:Si2->Si1(2.3537064179834077)
No.4:Si2[3s]->Si1[3s](2.3537064179834077)
No.4:Si2[3p_y]->Si1[3s](2.3537064179834077)
No.4:Si2[3p_z]->Si1[3s](2.3537064179834077)
No.4:Si2[3p_x]->Si1[3s](2.3537064179834077)
No.4:Si2[3s]->Si1[3p_y](2.3537064179834077)
No.4:Si2[3p_y]->Si1[3p_y](2.3537064179834077)
No.4:Si2[3p_z]->Si1[3p_y](2.3537064179834077)
No.4:Si2[3p_x]->Si1[3p_y](2.3537064179834077)
No.4:Si2[3s]->Si1[3p_z](2.3537064179834077)
No.4:Si2[3p_y]->Si1[3p_z](2.3537064179834077)
No.4:Si2[3p_z]->Si1[3p_z](2.3537064179834077)
No.4:Si2[3p_x]->Si1[3p_z](2.3537064179834077)
No.4:Si2[3s]->Si1[3p_x](2.3537064179834077)
No.4:Si2[3p_y]->Si1[3p_x](2.3537064179834077)
No.4:Si2[3p_z]->Si1[3p_x](2.3537064179834077)
No.4:Si2[3p_x]->Si1[3p_x](2.3537064179834077)
-5.02513  0.00000  0.01165  0.00000  0.09845  0.00000  0.00427  0.00000  0.01531  0.00000  0.01527  0.00000  0.01528  0.00000  0.01527  0.00000 -0.00053  0.00000  0.00056  0.00000  0.00046  0.00000  0.01536  0.00000  0.00053  0.00000 -0.00046  0.00000  0.00095  0.00000  0.01525  0.00000  0.00045  0.00000  0.00097  0.00000 -0.00049  0.00000  0.09900  0.00000  0.00437  0.00000  0.01538  0.00000  0.01527  0.00000  0.01526  0.00000  0.01534  0.00000 -0.00052  0.00000  0.00054  0.00000  0.00105  0.00000  0.01538  0.00000  0.00052  0.00000 -0.00046  0.00000  0.00053  0.00000  0.01523  0.00000  0.00105  0.00000  0.00055  0.00000 -0.00049  0.00000  0.10039  0.00000  0.00416  0.00000  0.01530  0.00000  0.01515  0.00000  0.01532  0.00000  0.01527  0.00000 -0.00053  0.00000  0.00101  0.00000  0.00108  0.00000  0.01527  0.00000  0.00098  0.00000 -0.00047  0.00000  0.00097  0.00000  0.01529  0.00000  0.00109  0.00000  0.00099  0.00000 -0.00050  0.00000  0.09831  0.00000  0.00412  0.00000  0.01520  0.00000  0.01521  0.00000  0.01533  0.00000  0.01518  0.00000 -0.00053  0.00000  0.00101  0.00000  0.00048  0.00000  0.01534  0.00000  0.00099  0.00000 -0.00047  0.00000  0.00057  0.00000  0.01531  0.00000  0.00048  0.00000  0.00060  0.00000 -0.00050  0.00000  0.01165  0.00000  0.09819  0.00000  0.00417  0.00000  0.01522  0.00000  0.01536  0.00000  0.01525  0.00000  0.01520  0.00000 -0.00056  0.00000  0.00050  0.00000  0.00052  0.00000  0.01532  0.00000  0.00050  0.00000 -0.00048  0.00000  0.00095  0.00000  0.01525  0.00000  0.00051  0.00000  0.00094  0.00000 -0.00046  0.00000  0.09883  0.00000  0.00434  0.00000  0.01526  0.00000  0.01536  0.00000  0.01527  0.00000  0.01528  0.00000 -0.00055  0.00000  0.00047  0.00000  0.00102  0.00000  0.01534  0.00000  0.00048  0.00000 -0.00047  0.00000  0.00060  0.00000  0.01532  0.00000  0.00101  0.00000  0.00058  0.00000 -0.00046  0.00000  0.10041  0.00000  0.00421  0.00000  0.01534  0.00000  0.01517  0.00000  0.01523  0.00000  0.01543  0.00000 -0.00056  0.00000  0.00104  0.00000  0.00103  0.00000  0.01521  0.00000  0.00106  0.00000 -0.00048  0.00000  0.00093  0.00000  0.01529  0.00000  0.00104  0.00000  0.00093  0.00000 -0.00046  0.00000  0.09871  0.00000  0.00421  0.00000  0.01524  0.00000  0.01523  0.00000  0.01530  0.00000  0.01529  0.00000 -0.00056  0.00000  0.00105  0.00000  0.00051  0.00000  0.01527  0.00000  0.00105  0.00000 -0.00048  0.00000  0.00060  0.00000  0.01534  0.00000  0.00051  0.00000  0.00061  0.00000 -0.00046
-4.97487  0.00017  0.01166 -0.00123  0.09839 -0.00192  0.00417  0.00067  0.01535  0.00067  0.01530  0.00067  0.01531  0.00067  0.01530 -0.00055 -0.00056 -0.00085  0.00051 -0.00110  0.00040  0.00067  0.01540 -0.00085  0.00049 -0.00029 -0.00048  0.00093  0.00100  0.00067  0.01528 -0.00110  0.00040  0.00093  0.00102 -0.00043 -0.00052  0.00027  0.09902 -0.00192  0.00428  0.00067  0.01542  0.00067  0.01531  0.00067  0.01529  0.00067  0.01537 -0.00055 -0.00055 -0.00085  0.00050  0.00131  0.00112  0.00067  0.01541 -0.00085  0.00047 -0.00029 -0.00047 -0.00072  0.00050  0.00067  0.01526  0.00131  0.00111 -0.00072  0.00052 -0.00043 -0.00052  0.00740  0.10076 -0.00192  0.00406  0.00067  0.01533  0.00067  0.01519  0.00067  0.01535  0.00067  0.01530 -0.00055 -0.00056  0.00106  0.00106  0.00131  0.00115  0.00067  0.01531  0.00106  0.00104 -0.00029 -0.00048  0.00093  0.00101  0.00067  0.01532  0.00131  0.00115  0.00093  0.00104 -0.00043 -0.00053 -0.00073  0.09827 -0.00192  0.00403  0.00067  0.01524  0.00067  0.01524  0.00067  0.01536  0.00067  0.01522 -0.00055 -0.00056  0.00106  0.00107 -0.00110  0.00042  0.00067  0.01537  0.00106  0.00104 -0.00029 -0.00048 -0.00072  0.00053  0.00067  0.01534 -0.00110  0.00042 -0.00072  0.00056 -0.00043 -0.00053  0.00017  0.01166 -0.00152  0.09812 -0.00192  0.00407  0.00067  0.01526  0.00067  0.01540  0.00067  0.01529  0.00067  0.01523 -0.00066 -0.00060 -0.00104  0.00045 -0.00092  0.00047  0.00067  0.01536 -0.00104  0.00045 -0.00033 -0.00049  0.00080  0.00099  0.00067  0.01529 -0.00092  0.00046  0.00080  0.00098 -0.00028 -0.00048 -0.00020  0.09882 -0.00192  0.00425  0.00067  0.01529  0.00067  0.01539  0.00067  0.01530  0.00067  0.01531 -0.00066 -0.00059 -0.00104  0.00042  0.00113  0.00108  0.00067  0.01537 -0.00104  0.00042 -0.00033 -0.00049 -0.00059  0.00057  0.00067  0.01536  0.00113  0.00106 -0.00059  0.00055 -0.00028 -0.00047  0.00716  0.10077 -0.00192  0.00411  0.00067  0.01537  0.00067  0.01520  0.00067  0.01526  0.00067  0.01546 -0.00066 -0.00059  0.00125  0.00111  0.00113  0.00109  0.00067  0.01524  0.00125  0.00112 -0.00033 -0.00049  0.00080  0.00097  0.00067  0.01532  0.00113  0.00110  0.00080  0.00097 -0.00028 -0.00048  0.00028  0.09873 -0.00192  0.00411  0.00067  0.01527  0.00067  0.01526  0.00067  0.01534  0.00067  0.01532 -0.00066 -0.00059  0.00125  0.00111 -0.00092  0.00046  0.00067  0.01530  0.00125  0.00111 -0.00033 -0.00050 -0.00059  0.00057  0.00067  0.01537 -0.00092  0.00047 -0.00059  0.00058 -0.00028 -0.00048
-4.92462  0.00016  0.01167 -0.00121  0.09833 -0.00188  0.00408  0.00065  0.01538  0.00065  0.01533  0.00065  0.01535  0.00065  0.01533 -0.00054 -0.00059 -0.00083  0.00047 -0.00108  0.00035  0.00065  0.01543 -0.00083  0.00045 -0.00028 -0.00049  0.00091  0.00105  0.00065  0.01531 -0.00108  0.00035  0.00091  0.00107 -0.00042 -0.00054  0.00027  0.09903 -0.00188  0.00418  0.00065  0.01545  0.00065  0.01534  0.00065  0.01532  0.00065  0.01540 -0.00054 -0.00058 -0.00083  0.00046  0.00128  0.00118  0.00065  0.01545 -0.00083  0.00043 -0.00028 -0.00049 -0.00071  0.00046  0.00065  0.01529  0.00128  0.00118 -0.00071  0.00048 -0.00042 -0.00054  0.00725  0.10113 -0.00188  0.00397  0.00065  0.01536  0.00065  0.01522  0.00065  0.01539  0.00065  0.01534 -0.00054 -0.00059  0.00104  0.00111  0.00128  0.00121  0.00065  0.01534  0.00104  0.00109 -0.00028 -0.00049  0.00091  0.00106  0.00065  0.01536  0.00128  0.00122  0.00091  0.00109 -0.00042 -0.00055 -0.00071  0.09824 -0.00188  0.00393  0.00065  0.01527  0.00065  0.01527  0.00065  0.01539  0.00065  0.01525 -0.00054 -0.00059  0.00104  0.00112 -0.00108  0.00037  0.00065  0.01540  0.00104  0.00109 -0.00028 -0.00050 -0.00071  0.00050  0.00065  0.01537 -0.00108  0.00037 -0.00071  0.00053 -0.00042 -0.00055  0.00016  0.01167 -0.00149  0.09804 -0.00188  0.00398  0.00065  0.01529  0.00065  0.01543  0.00065  0.01532  0.00065  0.01526 -0.00065 -0.00063 -0.00102  0.00040 -0.00090  0.00043  0.00065  0.01539 -0.00102  0.00040 -0.00032 -0.00051  0.00078  0.00103  0.00065  0.01532 -0.00090  0.00042  0.00078  0.00102 -0.00027 -0.00049 -0.00020  0.09881 -0.00188  0.00415  0.00065  0.01533  0.00065  0.01542  0.00065  0.01533  0.00065  0.01535 -0.00065 -0.00062 -0.00102  0.00036  0.00111  0.00113  0.00065  0.01541 -0.00102  0.00037 -0.00032 -0.00050 -0.00058  0.00054  0.00065  0.01539  0.00111  0.00112 -0.00058  0.00052 -0.00027 -0.00049  0.00701  0.10112 -0.00188  0.00401  0.00065  0.01541  0.00065  0.01523  0.00065  0.01529  0.00065  0.01549 -0.00065 -0.00062  0.00122  0.00117  0.00111  0.00114  0.00065  0.01527  0.00122  0.00118 -0.00032 -0.00051  0.00078  0.00101  0.00065  0.01536  0.00111  0.00115  0.00078  0.00101 -0.00027 -0.00049  0.00027  0.09874 -0.00188  0.00402  0.00065  0.01531  0.00065  0.01529  0.00065  0.01537  0.00065  0.01536 -0.00065 -0.00062  0.00122  0.00118 -0.00090  0.00041  0.00065  0.01534  0.00122  0.00117 -0.00032 -0.00051 -0.00058  0.00054  0.00065  0.01540 -0.00090  0.00042 -0.00058  0.00056 -0.00027 -0.00049
-4.87437  0.00016  0.01168 -0.00118  0.09827 -0.00184  0.00399  0.00064  0.01541  0.00064  0.01536  0.00064  0.01538  0.00064  0.01537 -0.00053 -0.00061 -0.00082  0.00043 -0.00106  0.00030  0.00064  0.01546 -0.00082  0.00041 -0.00028 -0.00051  0.00089  0.00109  0.00064  0.01535 -0.00106  0.00029  0.00089  0.00111 -0.00041 -0.00056  0.00026  0.09904 -0.00184  0.00409  0.00064  0.01548  0.00064  0.01537  0.00064  0.01535  0.00064  0.01544 -0.00053 -0.00061 -0.00082  0.00042  0.00126  0.00125  0.00064  0.01548 -0.00082  0.00039 -0.00028 -0.00050 -0.00070  0.00043  0.00064  0.01533  0.00126  0.00124 -0.00070  0.00045 -0.00041 -0.00056  0.00710  0.10148 -0.00184  0.00388  0.00064  0.01539  0.00064  0.01525  0.00064  0.01542  0.00064  0.01537 -0.00053 -0.00061  0.00101  0.00116  0.00126  0.00128  0.00064  0.01537  0.00101  0.00114 -0.00028 -0.00051  0.00089  0.00110  0.00064  0.01539  0.00126  0.00128  0.00089  0.00113 -0.00041 -0.00057 -0.00070  0.09820 -0.00184  0.00384  0.00064  0.01530  0.00064  0.01530  0.00064  0.01543  0.00064  0.01528 -0.00053 -0.00062  0.00101  0.00117 -0.00106  0.00032  0.00064  0.01544  0.00101  0.00115 -0.00028 -0.00051 -0.00070  0.00046  0.00064  0.01541 -0.00106  0.00032 -0.00070  0.00049 -0.00041 -0.00057  0.00016  0.01168 -0.00146  0.09797 -0.00184  0.00389  0.00064  0.01532  0.00064  0.01546  0.00064  0.01535  0.00064  0.01530 -0.00064 -0.00066 -0.00100  0.00035 -0.00088  0.00038  0.00064  0.01542 -0.00100  0.00035 -0.00032 -0.00052  0.00077  0.00107  0.00064  0.01535 -0.00088  0.00037  0.00077  0.00106 -0.00026 -0.00050 -0.00019  0.09880 -0.00184  0.00406  0.00064  0.01536  0.00064  0.01545  0.00064  0.01536  0.00064  0.01538 -0.00064 -0.00065 -0.00100  0.00031  0.00108  0.00119  0.00064  0.01544 -0.00100  0.00032 -0.00032 -0.00052 -0.00057  0.00051  0.00064  0.01542  0.00108  0.00117 -0.00057  0.00049 -0.00026 -0.00050  0.00687  0.10147 -0.00184  0.00392  0.00064  0.01544  0.00064  0.01527  0.00064  0.01533  0.00064  0.01553 -0.00064 -0.00065  0.00120  0.00123  0.00108  0.00120  0.00064  0.01531  0.00120  0.00124 -0.00032 -0.00053  0.00077  0.00105  0.00064  0.01539  0.00108  0.00121  0.00077  0.00105 -0.00026 -0.00050  0.00027  0.09876 -0.00184  0.00393  0.00064  0.01534  0.00064  0.01532  0.00064  0.01540  0.00064  0.01539 -0.00064 -0.00065  0.00120  0.00124 -0.00088  0.00037  0.00064  0.01537  0.00120  0.00123 -0.00032 -0.00053 -0.00057  0.00052  0.00064  0.01544 -0.00088  0.00038 -0.00057  0.00053 -0.00026 -0.00050
-4.82412  0.00016  0.01168 -0.00116  0.09821 -0.00180  0.00390  0.00063  0.01544  0.00063  0.01540  0.00063  0.01541  0.00063  0.01540 -0.00052 -0.00064 -0.00080  0.00039 -0.00103  0.00024  0.00063  0.01549 -0.00080  0.00037 -0.00027 -0.00052  0.00088  0.00114  0.00063  0.01538 -0.00103  0.00024  0.00088  0.00116 -0.00040 -0.00058  0.00026  0.09906 -0.00180  0.00400  0.00063  0.01551  0.00063  0.01540  0.00063  0.01539  0.00063  0.01547 -0.00052 -0.00063 -0.00080  0.00038  0.00123  0.00131  0.00063  0.01551 -0.00080  0.00035 -0.00027 -0.00051 -0.00068  0.00039  0.00063  0.01536  0.00123  0.00130 -0.00068  0.00041 -0.00040 -0.00058  0.00696  0.10183 -0.00180  0.00379  0.00063  0.01543  0.00063  0.01528  0.00063  0.01545  0.00063  0.01540 -0.00052 -0.00064  0.00099  0.00121  0.00123  0.00134  0.00063  0.01540  0.00099  0.00119 -0.00027 -0.00052  0.00088  0.00115  0.00063  0.01542  0.00123  0.00134  0.00088  0.00118 -0.00040 -0.00059 -0.00069  0.09817 -0.00180  0.00375  0.00063  0.01533  0.00063  0.01534  0.00063  0.01546  0.00063  0.01531 -0.00052 -0.00064  0.00099  0.00122 -0.00103  0.00026  0.00063  0.01547  0.00099  0.00120 -0.00027 -0.00052 -0.00068  0.00043  0.00063  0.01544 -0.00103  0.00027 -0.00068  0.00046 -0.00040 -0.00059  0.00016  0.01168 -0.00143  0.09790 -0.00180  0.00379  0.00063  0.01535  0.00063  0.01549  0.00063  0.01538  0.00063  0.01533 -0.00062 -0.00069 -0.00098  0.00030 -0.00087  0.00034  0.00063  0.01545 -0.00098  0.00030 -0.00031 -0.00054  0.00075  0.00110  0.00063  0.01538 -0.00087  0.00033  0.00075  0.00109 -0.00026 -0.00052 -0.00019  0.09879 -0.00180  0.00397  0.00063  0.01539  0.00063  0.01549  0.00063  0.01540  0.00063  0.01541 -0.00062 -0.00068 -0.00098  0.00026  0.00106  0.00124  0.00063  0.01547 -0.00098  0.00027 -0.00031 -0.00053 -0.00056  0.00048  0.00063  0.01545  0.00106  0.00123 -0.00056  0.00046 -0.00026 -0.00051  0.00673  0.10181 -0.00180  0.00383  0.00063  0.01547  0.00063  0.01530  0.00063  0.01536  0.00063  0.01556 -0.00062 -0.00069  0.00117  0.00129  0.00106  0.00125  0.00063  0.01534  0.00117  0.00130 -0.00031 -0.00054  0.00075  0.00109  0.00063  0.01542  0.00106  0.00126  0.00075  0.00109 -0.00026 -0.00052  0.00026  0.09877 -0.00180  0.00384  0.00063  0.01537  0.00063  0.01536  0.00063  0.01543  0.00063  0.01542 -0.00062 -0.00069  0.00117  0.00129 -0.00087  0.00033  0.00063  0.01540  0.00117  0.00129 -0.00031 -0.00054 -0.00056  0.00049  0.00063  0.01547 -0.00087  0.00033 -0.00056  0.00050 -0.00026 -0.00052
-4.77387  0.00015  0.01169 -0.00113  0.09815 -0.00177  0.00381  0.00061  0.01547  0.00061  0.01543  0.00061  0.01544  0.00061  0.01543 -0.00051 -0.00066 -0.00078  0.00035 -0.00101  0.00019  0.00061  0.01552 -0.00078  0.00033 -0.00027 -0.00053  0.00086  0.00118  0.00061  0.01541 -0.00101  0.00019  0.00086  0.00120 -0.00040 -0.00060  0.00025  0.09907 -0.00177  0.00391  0.00061  0.01555  0.00061  0.01544  0.00061  0.01542  0.00061  0.01550 -0.00051 -0.00066 -0.00078  0.00034  0.00120  0.00137  0.00061  0.01554 -0.00078  0.00031 -0.00027 -0.00053 -0.00067  0.00036  0.00061  0.01539  0.00120  0.00136 -0.00067  0.00038 -0.00040 -0.00060  0.00681  0.10218 -0.00177  0.00370  0.00061  0.01546  0.00061  0.01531  0.00061  0.01548  0.00061  0.01543 -0.00051 -0.00067  0.00097  0.00126  0.00120  0.00140  0.00061  0.01544  0.00097  0.00124 -0.00027 -0.00054  0.00086  0.00119  0.00061  0.01545  0.00120  0.00140  0.00086  0.00122 -0.00040 -0.00061 -0.00067  0.09813 -0.00177  0.00366  0.00061  0.01536  0.00061  0.01537  0.00061  0.01549  0.00061  0.01534 -0.00051 -0.00067  0.00097  0.00127 -0.00101  0.00021  0.00061  0.01550  0.00097  0.00124 -0.00027 -0.00054 -0.00067  0.00040  0.00061  0.01547 -0.00101  0.00021 -0.00067  0.00042 -0.00040 -0.00061  0.00015  0.01169 -0.00140  0.09783 -0.00177  0.00371  0.00061  0.01538  0.00061  0.01553  0.00061  0.01542  0.00061  0.01536 -0.00061 -0.00072 -0.00096  0.00025 -0.00085  0.00030  0.00061  0.01548 -0.00096  0.00025 -0.00031 -0.00056  0.00074  0.00114  0.00061  0.01541 -0.00085  0.00029  0.00074  0.00113 -0.00025 -0.00053 -0.00019  0.09879 -0.00177  0.00388  0.00061  0.01542  0.00061  0.01552  0.00061  0.01543  0.00061  0.01544 -0.00061 -0.00071 -0.00096  0.00022  0.00104  0.00129  0.00061  0.01550 -0.00096  0.00023 -0.00031 -0.00055 -0.00054  0.00046  0.00061  0.01548  0.00104  0.00128 -0.00054  0.00044 -0.00025 -0.00052  0.00659  0.10214 -0.00177  0.00374  0.00061  0.01550  0.00061  0.01533  0.00061  0.01539  0.00061  0.01559 -0.00061 -0.00072  0.00115  0.00135  0.00104  0.00130  0.00061  0.01537  0.00115  0.00136 -0.00031 -0.00056  0.00074  0.00113  0.00061  0.01545  0.00104  0.00132  0.00074  0.00112 -0.00025 -0.00053  0.00026  0.09878 -0.00177  0.00375  0.00061  0.01540  0.00061  0.01539  0.00061  0.01546  0.00061  0.01545 -0.00061 -0.00072  0.00115  0.00135 -0.00085  0.00028  0.00061  0.01543  0.00115  0.00135 -0.00031 -0.00056 -0.00054  0.00046  0.00061  0.01550 -0.00085  0.00029 -0.00054  0.00047 -0.00025 -0.00053
-4.72362  0.00015  0.01170 -0.00111  0.09810 -0.00173  0.00372  0.00060  0.01550  0.00060  0.01546  0.00060  0.01547  0.00060  0.01546 -0.00050 -0.00069 -0.00077  0.00031 -0.00099  0.00014  0.00060  0.01555 -0.00077  0.00029 -0.00026 -0.00055  0.00084  0.00122  0.00060  0.01544 -0.00099  0.00014  0.00084  0.00124 -0.00039 -0.00062  0.00025  0.09908 -0.00173  0.00382  0.00060  0.01558  0.00060  0.01547  0.00060  0.01545  0.00060  0.01553 -0.00050 -0.00068 -0.00077  0.00030  0.00118  0.00143  0.00060  0.01557 -0.00077  0.00027 -0.00026 -0.00054 -0.00065  0.00033  0.00060  0.01542  0.00118  0.00142 -0.00065  0.00035 -0.00039 -0.00062  0.00667  0.10251 -0.00173  0.00361  0.00060  0.01549  0.00060  0.01534  0.00060  0.01551  0.00060  0.01546 -0.00050 -0.00069  0.00095  0.00131  0.00118  0.00146  0.00060  0.01547  0.00095  0.00129 -0.00026 -0.00055  0.00084  0.00123  0.00060  0.01548  0.00118  0.00146  0.00084  0.00126 -0.00039 -0.00063 -0.00066  0.09810 -0.00173  0.00357  0.00060  0.01539  0.00060  0.01540  0.00060  0.01552  0.00060  0.01537 -0.00050 -0.00069  0.00095  0.00132 -0.00099  0.00016  0.00060  0.01553  0.00095  0.00129 -0.00026 -0.00055 -0.00065  0.00036  0.00060  0.01550 -0.00099  0.00016 -0.00065  0.00039 -0.00039 -0.00063  0.00015  0.01170 -0.00137  0.09776 -0.00173  0.00362  0.00060  0.01541  0.00060  0.01556  0.00060  0.01545  0.00060  0.01539 -0.00060 -0.00075 -0.00094  0.00020 -0.00083  0.00025  0.00060  0.01551 -0.00094  0.00020 -0.00030 -0.00057  0.00072  0.00118  0.00060  0.01544 -0.00083  0.00025  0.00072  0.00117 -0.00025 -0.00054 -0.00018  0.09878 -0.00173  0.00379  0.00060  0.01545  0.00060  0.01555  0.00060  0.01546  0.00060  0.01547 -0.00060 -0.00074 -0.00094  0.00017  0.00102  0.00134  0.00060  0.01553 -0.00094  0.00018 -0.00030 -0.00056 -0.00053  0.00043  0.00060  0.01551  0.00102  0.00133 -0.00053  0.00041 -0.00025 -0.00054  0.00646  0.10246 -0.00173  0.00366  0.00060  0.01553  0.00060  0.01536  0.00060  0.01542  0.00060  0.01562 -0.00060 -0.00075  0.00113  0.00140  0.00102  0.00135  0.00060  0.01540  0.00113  0.00142 -0.00030 -0.00057  0.00072  0.00116  0.00060  0.01548  0.00102  0.00137  0.00072  0.00116 -0.00025 -0.00054  0.00025  0.09879 -0.00173  0.00366  0.00060  0.01543  0.00060  0.01542  0.00060  0.01550  0.00060  0.01548 -0.00060 -0.00075  0.00113  0.00141 -0.00083  0.00024  0.00060  0.01546  0.00113  0.00141 -0.00030 -0.00057 -0.00053  0.00043  0.00060  0.01553 -0.00083  0.00025 -0.00053  0.00045 -0.00025 -0.00054
-4.67337  0.00015  0.01171 -0.00109  0.09804 -0.00169  0.00364  0.00059  0.01553  0.00059  0.01549  0.00059  0.01550  0.00059  0.01549 -0.00049 -0.00071 -0.00075  0.00027 -0.00097  0.00009  0.00059  0.01558 -0.00075  0.00025 -0.00025 -0.00056  0.00082  0.00126  0.00059  0.01547 -0.00097  0.00009  0.00082  0.00128 -0.00038 -0.00064  0.00024  0.09909 -0.00169  0.00374  0.00059  0.01560  0.00059  0.01549  0.00059  0.01548  0.00059  0.01556 -0.00049 -0.00071 -0.00075  0.00026  0.00115  0.00149  0.00059  0.01560 -0.00075  0.00024 -0.00025 -0.00055 -0.00064  0.00029  0.00059  0.01545  0.00115  0.00148 -0.00064  0.00031 -0.00038 -0.00064  0.00653  0.10284 -0.00169  0.00353  0.00059  0.01552  0.00059  0.01537  0.00059  0.01554  0.00059  0.01549 -0.00049 -0.00072  0.00093  0.00136  0.00115  0.00152  0.00059  0.01550  0.00093  0.00133 -0.00025 -0.00056  0.00082  0.00128  0.00059  0.01551  0.00115  0.00152  0.00082  0.00130 -0.00038 -0.00065 -0.00064  0.09807 -0.00169  0.00349  0.00059  0.01542  0.00059  0.01543  0.00059  0.01555  0.00059  0.01540 -0.00049 -0.00072  0.00093  0.00136 -0.00097  0.00011  0.00059  0.01556  0.00093  0.00134 -0.00025 -0.00056 -0.00064  0.00033  0.00059  0.01553 -0.00097  0.00012 -0.00064  0.00036 -0.00038 -0.00065  0.00015  0.01171 -0.00135  0.09769 -0.00169  0.00353  0.00059  0.01544  0.00059  0.01559  0.00059  0.01547  0.00059  0.01542 -0.00059 -0.00078 -0.00092  0.00015 -0.00081  0.00021  0.00059  0.01554 -0.00092  0.00015 -0.00029 -0.00059  0.00070  0.00121  0.00059  0.01547 -0.00081  0.00020  0.00070  0.00120 -0.00024 -0.00055 -0.00018  0.09877 -0.00169  0.00371  0.00059  0.01548  0.00059  0.01558  0.00059  0.01549  0.00059  0.01550 -0.00059 -0.00077 -0.00092  0.00012  0.00100  0.00139  0.00059  0.01556 -0.00092  0.00013 -0.00029 -0.00058 -0.00052  0.00040  0.00059  0.01554  0.00100  0.00138 -0.00052  0.00038 -0.00024 -0.00055  0.00632  0.10278 -0.00169  0.00357  0.00059  0.01556  0.00059  0.01539  0.00059  0.01545  0.00059  0.01565 -0.00059 -0.00078  0.00110  0.00146  0.00100  0.00140  0.00059  0.01543  0.00110  0.00147 -0.00029 -0.00059  0.00070  0.00120  0.00059  0.01551  0.00100  0.00142  0.00070  0.00120 -0.00024 -0.00056  0.00025  0.09881 -0.00169  0.00358  0.00059  0.01546  0.00059  0.01545  0.00059  0.01552  0.00059  0.01551 -0.00059 -0.00078  0.00110  0.00146 -0.00081  0.00020  0.00059  0.01549  0.00110  0.00146 -0.00029 -0.00059 -0.00052  0.00041  0.00059  0.01556 -0.00081  0.00021 -0.00052  0.00042 -0.00024 -0.00055
-4.62312  0.00015  0.01171 -0.00106  0.09799 -0.00166  0.00355  0.00058  0.01556  0.00058  0.01551  0.00058  0.01553  0.00058  0.01552 -0.00048 -0.00074 -0.00073  0.00024 -0.00095  0.00005  0.00058  0.01561 -0.00073  0.00021 -0.00025 -0.00057  0.00080  0.00130  0.00058  0.01550 -0.00095  0.00004  0.00080  0.00132 -0.00037 -0.00066  0.00024  0.09911 -0.00166  0.00365  0.00058  0.01563  0.00058  0.01552  0.00058  0.01551  0.00058  0.01559 -0.00048 -0.00073 -0.00073  0.00022  0.00113  0.00154  0.00058  0.01563 -0.00073  0.00020 -0.00025 -0.00057 -0.00063  0.00026  0.00058  0.01548  0.00113  0.00154 -0.00063  0.00028 -0.00037 -0.00066  0.00639  0.10316 -0.00166  0.00344  0.00058  0.01555  0.00058  0.01540  0.00058  0.01557  0.00058  0.01552 -0.00048 -0.00074  0.00091  0.00140  0.00113  0.00157  0.00058  0.01552  0.00091  0.00138 -0.00025 -0.00057  0.00080  0.00132  0.00058  0.01554  0.00113  0.00158  0.00080  0.00134 -0.00037 -0.00067 -0.00063  0.09804 -0.00166  0.00341  0.00058  0.01545  0.00058  0.01546  0.00058  0.01558  0.00058  0.01543 -0.00048 -0.00074  0.00091  0.00141 -0.00095  0.00007  0.00058  0.01559  0.00091  0.00139 -0.00025 -0.00058 -0.00063  0.00030  0.00058  0.01556 -0.00095  0.00007 -0.00063  0.00033 -0.00037 -0.00067  0.00015  0.01171 -0.00132  0.09762 -0.00166  0.00345  0.00058  0.01547  0.00058  0.01561  0.00058  0.01550  0.00058  0.01545 -0.00057 -0.00081 -0.00090  0.00011 -0.00080  0.00017  0.00058  0.01557 -0.00090  0.00011 -0.00029 -0.00060  0.00069  0.00125  0.00058  0.01550 -0.00080  0.00016  0.00069  0.00124 -0.00024 -0.00057 -0.00017  0.09876 -0.00166  0.00363  0.00058  0.01551  0.00058  0.01561  0.00058  0.01551  0.00058  0.01553 -0.00057 -0.00080 -0.00090  0.00008  0.00098  0.00144  0.00058  0.01559 -0.00090  0.00009 -0.00029 -0.00059 -0.00051  0.00038  0.00058  0.01557  0.00098  0.00143 -0.00051  0.00036 -0.00024 -0.00056  0.00618  0.10309 -0.00166  0.00349  0.00058  0.01559  0.00058  0.01542  0.00058  0.01548  0.00058  0.01568 -0.00057 -0.00080  0.00108  0.00151  0.00098  0.00145  0.00058  0.01546  0.00108  0.00153 -0.00029 -0.00060  0.00069  0.00123  0.00058  0.01554  0.00098  0.00147  0.00069  0.00123 -0.00024 -0.00057  0.00024  0.09882 -0.00166  0.00349  0.00058  0.01549  0.00058  0.01548  0.00058  0.01555  0.00058  0.01554 -0.00057 -0.00080  0.00108  0.00152 -0.00080  0.00016  0.00058  0.01552  0.00108  0.00151 -0.00029 -0.00060 -0.00051  0.00038  0.00058  0.01559 -0.00080  0.00017 -0.00051  0.00039 -0.00024 -0.00056
-4.57286  0.00014  0.01172 -0.00104  0.09793 -0.00162  0.00347  0.00056  0.01559  0.00056  0.01554  0.00056  0.01556  0.00056  0.01555 -0.00047 -0.00076 -0.00072  0.00020 -0.00093 -0.00000  0.00056  0.01564 -0.00072  0.00018 -0.00024 -0.00058  0.00079  0.00134  0.00056  0.01552 -0.00093 -0.00000  0.00079  0.00136 -0.00036 -0.00067  0.00023  0.09912 -0.00162  0.00357  0.00056  0.01566  0.00056  0.01555  0.00056  0.01553  0.00056  0.01562 -0.00047 -0.00076 -0.00072  0.00019  0.00111  0.00160  0.00056  0.01566 -0.00072  0.00016 -0.00024 -0.00058 -0.00061  0.00023  0.00056  0.01551  0.00111  0.00159 -0.00061  0.00025 -0.00036 -0.00067  0.00626  0.10347 -0.00162  0.00336  0.00056  0.01557  0.00056  0.01543  0.00056  0.01560  0.00056  0.01555 -0.00047 -0.00076  0.00089  0.00145  0.00111  0.00163  0.00056  0.01555  0.00089  0.00143 -0.00024 -0.00059  0.00079  0.00136  0.00056  0.01557  0.00111  0.00163  0.00079  0.00138 -0.00036 -0.00068 -0.00062  0.09801 -0.00162  0.00332  0.00056  0.01548  0.00056  0.01548  0.00056  0.01560  0.00056  0.01546 -0.00047 -0.00077  0.00089  0.00146 -0.00093  0.00002  0.00056  0.01561  0.00089  0.00143 -0.00024 -0.00059 -0.00061  0.00027  0.00056  0.01558 -0.00093  0.00002 -0.00061  0.00030 -0.00036 -0.00068  0.00014  0.01172 -0.00129  0.09756 -0.00162  0.00337  0.00056  0.01550  0.00056  0.01564  0.00056  0.01553  0.00056  0.01547 -0.00056 -0.00084 -0.00088  0.00007 -0.00078  0.00013  0.00056  0.01560 -0.00088  0.00007 -0.00028 -0.00061  0.00068  0.00128  0.00056  0.01553 -0.00078  0.00013  0.00068  0.00127 -0.00023 -0.00058 -0.00017  0.09875 -0.00162  0.00354  0.00056  0.01554  0.00056  0.01563  0.00056  0.01554  0.00056  0.01556 -0.00056 -0.00083 -0.00088  0.00003  0.00095  0.00149  0.00056  0.01562 -0.00088  0.00004 -0.00028 -0.00061 -0.00050  0.00035  0.00056  0.01560  0.00095  0.00148 -0.00050  0.00033 -0.00023 -0.00057  0.00605  0.10339 -0.00162  0.00341  0.00056  0.01562  0.00056  0.01545  0.00056  0.01551  0.00056  0.01571 -0.00056 -0.00083  0.00106  0.00157  0.00095  0.00150  0.00056  0.01549  0.00106  0.00158 -0.00028 -0.00062  0.00068  0.00127  0.00056  0.01557  0.00095  0.00151  0.00068  0.00127 -0.00023 -0.00058  0.00024  0.09883 -0.00162  0.00341  0.00056  0.01552  0.00056  0.01550  0.00056  0.01558  0.00056  0.01557 -0.00056 -0.00083  0.00106  0.00157 -0.00078  0.00012  0.00056  0.01555  0.00106  0.00157 -0.00028 -0.00062 -0.00050  0.00036  0.00056  0.01561 -0.00078  0.00013 -0.00050  0.00037 -0.00023 -0.00058