   2    2    1    2
  4.0150871e+01   3.8435865e-10   3.8435865e-10   3.8435865e-10   5.0000000e-16
            1.000000e-04
  CAR
 DOS and projected DOS file by LOBSTER. Energy is shifted such that the Fermi level lies at 0 eV.
     10.89957050       0.84931924   201       5.87444487       1.00000000
-5.02513  0.00000  0.00000  1.87077  1.87077
-4.97487  0.07642  0.07642  1.87461  1.87461
-4.92462  0.07485  0.07485  1.87837  1.87837
-4.87437  0.07334  0.07334  1.88206  1.88206
-4.82412  0.07184  0.07184  1.88567  1.88567
-4.77387  0.07036  0.07036  1.88920  1.88920
-4.72362  0.06890  0.06890  1.89267  1.89267
-4.67337  0.06745  0.06745  1.89606  1.89606
-4.62312  0.06601  0.06601  1.89937  1.89937
-4.57286  0.06459  0.06459  1.90262  1.90262
-4.52261  0.06319  0.06319  1.90579  1.90579
-4.47236  0.94843  0.94843  1.95345  1.95345
-4.42211  0.28975  0.28975  1.96801  1.96801
-4.37186  0.29838  0.29838  1.98301  1.98301
-4.32161  0.30653  0.30653  1.99841  1.99841
-4.27136  0.31419  0.31419  2.01420  2.01420
-4.22111  0.32137  0.32137  2.03035  2.03035
-4.17085  0.32805  0.32805  2.04683  2.04683
-4.12060  0.33426  0.33426  2.06363  2.06363
-4.07035  0.33997  0.33997  2.08072  2.08072
-4.02010  0.34520  0.34520  2.09806  2.09806
-3.96985  0.34994  0.34994  2.11565  2.11565
-3.91960  0.35420  0.35420  2.13345  2.13345
-3.86935  0.35797  0.35797  2.15143  2.15143
-3.81910  0.36126  0.36126  2.16959  2.16959
-3.76884  0.36406  0.36406  2.18788  2.18788
-3.71859  0.36637  0.36637  2.20629  2.20629
-3.66834  0.36819  0.36819  2.22480  2.22480
-3.61809  0.36953  0.36953  2.24336  2.24336
-3.56784  0.37038  0.37038  2.26198  2.26198
-3.51759  0.37075  0.37075  2.28061  2.28061
-3.46734  0.37063  0.37063  2.29923  2.29923
-3.41709  0.37003  0.37003  2.31783  2.31783
-3.36683  0.36893  0.36893  2.33637  2.33637
-3.31658  0.36736  0.36736  2.35483  2.35483
-3.26633  0.36529  0.36529  2.37318  2.37318
-3.21608  0.36274  0.36274  2.39141  2.39141
-3.16583  0.35970  0.35970  2.40949  2.40949
-3.11558  0.35618  0.35618  2.42738  2.42738
-3.06533  0.35217  0.35217  2.44508  2.44508
-3.01508  0.34768  0.34768  2.46255  2.46255
-2.96482  0.34269  0.34269  2.47977  2.47977
-2.91457  0.33722  0.33722  2.49672  2.49672
-2.86432  0.33127  0.33127  2.51337  2.51337
-2.81407  0.32483  0.32483  2.52969  2.52969
-2.76382  0.31790  0.31790  2.54566  2.54566
-2.71357  0.31049  0.31049  2.56127  2.56127
-2.66332  0.30259  0.30259  2.57647  2.57647
-2.61307  0.29420  0.29420  2.59126  2.59126
-2.56281  0.28533  0.28533  2.60559  2.60559
-2.51256  0.27597  0.27597  2.61946  2.61946
-2.46231  0.26613  0.26613  2.63284  2.63284
-2.41206  0.35668  0.35668  2.65076  2.65076
-2.36181  0.61207  0.61207  2.68152  2.68152
-2.31156  0.90442  0.90442  2.72696  2.72696
-2.26131  1.23271  1.23271  2.78891  2.78891
-2.21106  1.59696  1.59696  2.86916  2.86916
-2.16080  1.99715  1.99715  2.96952  2.96952
-2.11055  2.07955  2.07955  3.07402  3.07402
-2.06030  0.92205  0.92205  3.12035  3.12035
-2.01005  0.91862  0.91862  3.16651  3.16651
-1.95980  0.91295  0.91295  3.21239  3.21239
-1.90955  0.90504  0.90504  3.25787  3.25787
-1.85930  0.89489  0.89489  3.30284  3.30284
-1.80905  0.88250  0.88250  3.34719  3.34719
-1.75879  0.86787  0.86787  3.39080  3.39080
-1.70854  0.85099  0.85099  3.43356  3.43356
-1.65829  0.83188  0.83188  3.47536  3.47536
-1.60804  0.81053  0.81053  3.51610  3.51610
-1.55779  0.78694  0.78694  3.55564  3.55564
-1.50754  0.76111  0.76111  3.59389  3.59389
-1.45729  0.73303  0.73303  3.63072  3.63072
-1.40704  0.70272  0.70272  3.66603  3.66603
-1.35678  0.67017  0.67017  3.69971  3.69971
-1.30653  0.63538  0.63538  3.73164  3.73164
-1.25628  0.59835  0.59835  3.76171  3.76171
-1.20603  0.55907  0.55907  3.78980  3.78980
-1.15578  0.51756  0.51756  3.81581  3.81581
-1.10553  0.47381  0.47381  3.83962  3.83962
-1.05528  0.42781  0.42781  3.86112  3.86112
-1.00503  0.37987  0.37987  3.88021  3.88021
-0.95477  0.34002  0.34002  3.89729  3.89729
-0.90452  0.30604  0.30604  3.91267  3.91267
-0.85427  0.27386  0.27386  3.92643  3.92643
-0.80402  0.24346  0.24346  3.93867  3.93867
-0.75377  0.21485  0.21485  3.94946  3.94946
-0.70352  0.18803  0.18803  3.95891  3.95891
-0.65327  0.16300  0.16300  3.96710  3.96710
-0.60302  0.13975  0.13975  3.97413  3.97413
-0.55276  0.11830  0.11830  3.98007  3.98007
-0.50251  0.09863  0.09863  3.98503  3.98503
-0.45226  0.08075  0.08075  3.98909  3.98909
-0.40201  0.06466  0.06466  3.99234  3.99234
-0.35176  0.05035  0.05035  3.99487  3.99487
-0.30151  0.03784  0.03784  3.99677  3.99677
-0.25126  0.02711  0.02711  3.99813  3.99813
-0.20101  0.01817  0.01817  3.99904  3.99904
-0.15075  0.01102  0.01102  3.99960  3.99960
-0.10050  0.00566  0.00566  3.99988  3.99988
-0.05025  0.00208  0.00208  3.99999  3.99999
 0.00000  0.00030  0.00030  4.00000  4.00000
 0.05025  0.00000  0.00000  4.00000  4.00000
 0.10050  0.00000  0.00000  4.00000  4.00000
 0.15075  0.00000  0.00000  4.00000  4.00000
 0.20101  0.00000  0.00000  4.00000  4.00000
 0.25126  0.00000  0.00000  4.00000  4.00000
 0.30151  0.00000  0.00000  4.00000  4.00000
 0.35176  0.00000  0.00000  4.00000  4.00000
 0.40201  0.00000  0.00000  4.00000  4.00000
 0.45226  0.00000  0.00000  4.00000  4.00000
 0.50251  0.00000  0.00000  4.00000  4.00000
 0.55276  0.00000  0.00000  4.00000  4.00000
 0.60302  0.00775  0.00775  4.00039  4.00039
 0.65327  0.04422  0.04422  4.00261  4.00261
 0.70352  0.09150  0.09150  4.00721  4.00721
 0.75377  0.14795  0.14795  4.01464  4.01464
 0.80402  0.21358  0.21358  4.02538  4.02538
 0.85427  0.28840  0.28840  4.03987  4.03987
 0.90452  0.37240  0.37240  4.05858  4.05858
 0.95477  0.46558  0.46558  4.08198  4.08198
 1.00503  0.56794  0.56794  4.11052  4.11052
 1.05528  0.67948  0.67948  4.14466  4.14466
 1.10553  0.80020  0.80020  4.18487  4.18487
 1.15578  0.93010  0.93010  4.23161  4.23161
 1.20603  1.06918  1.06918  4.28534  4.28534
 1.25628  1.21745  1.21745  4.34652  4.34652
 1.30653  1.37489  1.37489  4.41561  4.41561
 1.35678  1.54152  1.54152  4.49307  4.49307
 1.40704  2.44301  2.44301  4.61584  4.61584
 1.45729  1.45822  1.45822  4.68911  4.68911
 1.50754  1.63310  1.63310  4.77118  4.77118
 1.55779  1.54389  1.54389  4.84876  4.84876
 1.60804  1.19060  1.19060  4.90859  4.90859
 1.65829  0.57507  0.57507  4.93749  4.93749
 1.70854  0.21832  0.21832  4.94846  4.94846
 1.75879  0.19116  0.19116  4.95807  4.95807
 1.80905  0.16579  0.16579  4.96640  4.96640
 1.85930  0.14309  0.14309  4.97359  4.97359
 1.90955  0.12448  0.12448  4.97984  4.97984
 1.95980  0.10949  0.10949  4.98535  4.98535
 2.01005  0.09809  0.09810  4.99027  4.99028
 2.06030  0.09031  0.09031  4.99481  4.99481
 2.11055  0.08613  0.08613  4.99914  4.99914
 2.16080  0.08556  0.08556  5.00344  5.00344
 2.21106  0.08859  0.08860  5.00789  5.00789
 2.26131  0.09523  0.09524  5.01268  5.01268
 2.31156  0.10548  0.10549  5.01798  5.01798
 2.36181  0.11934  0.11935  5.02398  5.02398
 2.41206  0.13680  0.13681  5.03085  5.03085
 2.46231  0.15786  0.15788  5.03878  5.03879
 2.51256  0.18179  0.18181  5.04792  5.04792
 2.56281  0.20510  0.20511  5.05822  5.05823
 2.61307  0.22678  0.22678  5.06962  5.06963
 2.66332  0.24681  0.24682  5.08202  5.08203
 2.71357  0.26521  0.26521  5.09535  5.09536
 2.76382  0.28198  0.28198  5.10952  5.10953
 2.81407  0.29710  0.29710  5.12445  5.12446
 2.86432  0.31059  0.31059  5.14006  5.14006
 2.91457  0.32245  0.32244  5.15626  5.15627
 2.96482  0.33267  0.33266  5.17298  5.17298
 3.01508  0.34125  0.34124  5.19013  5.19013
 3.06533  0.34819  0.34818  5.20762  5.20763
 3.11558  0.35350  0.35349  5.22539  5.22539
 3.16583  0.35717  0.35716  5.24333  5.24334
 3.21608  0.35920  0.35920  5.26139  5.26139
 3.26633  0.35960  0.35960  5.27946  5.27946
 3.31658  0.35837  0.35836  5.29746  5.29747
 3.36683  0.35551  0.35550  5.31533  5.31533
 3.41709  0.35340  0.35339  5.33309  5.33309
 3.46734  0.36722  0.36722  5.35154  5.35154
 3.51759  0.38374  0.38374  5.37082  5.37082
 3.56784  0.39955  0.39954  5.39090  5.39090
 3.61809  0.41464  0.41463  5.41174  5.41174
 3.66834  0.42901  0.42901  5.43330  5.43330
 3.71859  0.44267  0.44266  5.45554  5.45554
 3.76884  0.45561  0.45560  5.47844  5.47844
 3.81910  0.46783  0.46783  5.50194  5.50194
 3.86935  0.47934  0.47934  5.52603  5.52603
 3.91960  0.49014  0.49013  5.55066  5.55066
 3.96985  0.50022  0.50021  5.57580  5.57580
 4.02010  0.50958  0.50957  5.60141  5.60140
 4.07035  0.51823  0.51822  5.62745  5.62745
 4.12060  0.52616  0.52615  5.65389  5.65389
 4.17085  0.53337  0.53337  5.68069  5.68069
 4.22111  0.53987  0.53987  5.70782  5.70782
 4.27136  0.54565  0.54565  5.73524  5.73524
 4.32161  0.55072  0.55072  5.76291  5.76291
 4.37186  0.55507  0.55507  5.79081  5.79080
 4.42211  0.55871  0.55870  5.81888  5.81888
 4.47236  0.56163  0.56162  5.84710  5.84710
 4.52261  0.56383  0.56383  5.87544  5.87543
 4.57286  0.56532  0.56531  5.90384  5.90384
 4.62312  0.56609  0.56609  5.93229  5.93229
 4.67337  0.56614  0.56614  5.96074  5.96074
 4.72362  0.56549  0.56548  5.98916  5.98915
 4.77387  0.56411  0.56411  6.01750  6.01750
 4.82412  0.56202  0.56202  6.04575  6.04574
 4.87437  0.55921  0.55921  6.07385  6.07384
 4.92462  0.55569  0.55569  6.10177  6.10177
 4.97487  0.55145  0.55145  6.12948  6.12948
 5.02513  0.54649  0.54649  6.15694  6.15694
      5.02512563      -5.02512563   201       5.87444487       1.00000000; Z= 14; 3s 3p_y 3p_z 3p_x
-5.02513  0.00000  0.00000  0.00000  0.00000  0.00000  0.00000  0.00000  0.00000
-4.97487  0.01131  0.01131  0.01007  0.01101  0.00781  0.00818  0.00902  0.00771
-4.92462  0.01107  0.01107  0.00987  0.01079  0.00765  0.00802  0.00883  0.00755
-4.87437  0.01085  0.01085  0.00967  0.01057  0.00750  0.00786  0.00866  0.00740
-4.82412  0.01063  0.01063  0.00947  0.01035  0.00735  0.00770  0.00848  0.00725
-4.77387  0.01041  0.01041  0.00928  0.01014  0.00719  0.00754  0.00830  0.00710
-4.72362  0.01019  0.01019  0.00908  0.00993  0.00704  0.00738  0.00813  0.00695
-4.67337  0.00998  0.00998  0.00889  0.00972  0.00690  0.00723  0.00796  0.00680
-4.62312  0.00976  0.00976  0.00870  0.00951  0.00675  0.00707  0.00779  0.00666
-4.57286  0.00955  0.00955  0.00852  0.00931  0.00660  0.00692  0.00762  0.00652
-4.52261  0.00935  0.00935  0.00833  0.00911  0.00646  0.00677  0.00746  0.00637
-4.47236  0.01279  0.01259  0.15464  0.15783  0.15736  0.15390  0.15757  0.16231
-4.42211  0.00965  0.00961  0.04537  0.04428  0.04132  0.04117  0.05013  0.05224
-4.37186  0.00946  0.00942  0.04679  0.04566  0.04261  0.04257  0.05195  0.05400
-4.32161  0.00927  0.00923  0.04813  0.04697  0.04382  0.04390  0.05368  0.05566
-4.27136  0.00908  0.00904  0.04940  0.04820  0.04496  0.04516  0.05531  0.05721
-4.22111  0.00890  0.00886  0.05058  0.04936  0.04604  0.04634  0.05684  0.05867
-4.17085  0.00871  0.00867  0.05169  0.05045  0.04704  0.04745  0.05827  0.06003
-4.12060  0.00853  0.00849  0.05272  0.05146  0.04797  0.04848  0.05961  0.06129
-4.07035  0.00835  0.00831  0.05366  0.05240  0.04884  0.04945  0.06085  0.06245
-4.02010  0.00817  0.00812  0.05454  0.05326  0.04963  0.05034  0.06199  0.06350
-3.96985  0.00799  0.00794  0.05533  0.05405  0.05035  0.05115  0.06304  0.06446
-3.91960  0.00781  0.00777  0.05604  0.05476  0.05100  0.05190  0.06398  0.06532
-3.86935  0.00763  0.00759  0.05667  0.05540  0.05158  0.05257  0.06483  0.06608
-3.81910  0.00746  0.00741  0.05723  0.05596  0.05210  0.05316  0.06558  0.06674
-3.76884  0.00728  0.00724  0.05771  0.05645  0.05254  0.05369  0.06624  0.06729
-3.71859  0.00711  0.00707  0.05810  0.05687  0.05291  0.05414  0.06679  0.06775
-3.66834  0.00694  0.00690  0.05842  0.05721  0.05321  0.05452  0.06725  0.06811
-3.61809  0.00677  0.00673  0.05866  0.05747  0.05344  0.05482  0.06761  0.06837
-3.56784  0.00660  0.00656  0.05883  0.05767  0.05360  0.05505  0.06788  0.06853
-3.51759  0.00643  0.00639  0.05891  0.05778  0.05369  0.05521  0.06804  0.06858
-3.46734  0.00627  0.00623  0.05891  0.05782  0.05371  0.05530  0.06811  0.06854
-3.41709  0.00610  0.00606  0.05884  0.05779  0.05367  0.05531  0.06808  0.06840
-3.36683  0.00594  0.00590  0.05868  0.05769  0.05355  0.05525  0.06795  0.06816
-3.31658  0.00578  0.00574  0.05845  0.05750  0.05336  0.05512  0.06773  0.06781
-3.26633  0.00562  0.00558  0.05814  0.05725  0.05310  0.05491  0.06741  0.06737
-3.21608  0.00546  0.00542  0.05775  0.05692  0.05277  0.05463  0.06699  0.06683
-3.16583  0.00530  0.00527  0.05728  0.05651  0.05237  0.05428  0.06647  0.06619
-3.11558  0.00515  0.00511  0.05674  0.05603  0.05190  0.05386  0.06585  0.06544
-3.06533  0.00499  0.00496  0.05611  0.05548  0.05136  0.05336  0.06514  0.06460
-3.01508  0.00484  0.00481  0.05540  0.05485  0.05075  0.05279  0.06433  0.06366
-2.96482  0.00469  0.00465  0.05462  0.05415  0.05006  0.05214  0.06342  0.06262
-2.91457  0.00454  0.00451  0.05376  0.05337  0.04931  0.05142  0.06242  0.06147
-2.86432  0.00439  0.00436  0.05282  0.05252  0.04849  0.05063  0.06131  0.06023
-2.81407  0.00424  0.00421  0.05180  0.05159  0.04760  0.04977  0.06011  0.05889
-2.76382  0.00410  0.00407  0.05070  0.05059  0.04664  0.04883  0.05881  0.05744
-2.71357  0.00395  0.00392  0.04952  0.04951  0.04561  0.04782  0.05742  0.05590
-2.66332  0.00381  0.00378  0.04827  0.04836  0.04451  0.04674  0.05592  0.05426
-2.61307  0.00367  0.00364  0.04693  0.04714  0.04334  0.04558  0.05433  0.05252
-2.56281  0.00353  0.00350  0.04552  0.04584  0.04209  0.04436  0.05264  0.05067
-2.51256  0.00339  0.00336  0.04402  0.04447  0.04078  0.04305  0.05086  0.04873
-2.46231  0.00325  0.00323  0.04245  0.04302  0.03940  0.04168  0.04897  0.04669
-2.41206  0.00312  0.00309  0.05810  0.06092  0.05802  0.06014  0.06007  0.05566
-2.36181  0.00300  0.00297  0.10187  0.10957  0.10842  0.10999  0.09369  0.08494
-2.31156  0.00287  0.00285  0.15177  0.16368  0.16443  0.16522  0.13405  0.12184
-2.26131  0.00276  0.00273  0.20762  0.22306  0.22586  0.22563  0.18100  0.16627
-2.21106  0.00264  0.00262  0.26941  0.28772  0.29271  0.29122  0.23456  0.21822
-2.16080  0.00252  0.00251  0.33716  0.35764  0.36499  0.36198  0.29472  0.27768
-2.11055  0.00241  0.00239  0.34908  0.35880  0.36476  0.36107  0.32430  0.31870
-2.06030  0.00230  0.00228  0.15506  0.15886  0.16385  0.16002  0.14057  0.14101
-2.01005  0.00219  0.00218  0.15447  0.15759  0.16299  0.15883  0.14037  0.14182
-1.95980  0.00209  0.00207  0.15350  0.15597  0.16175  0.15730  0.13982  0.14218
-1.90955  0.00199  0.00197  0.15214  0.15400  0.16013  0.15544  0.13892  0.14211
-1.85930  0.00188  0.00187  0.15038  0.15168  0.15813  0.15325  0.13767  0.14160
-1.80905  0.00178  0.00177  0.14823  0.14900  0.15575  0.15072  0.13607  0.14065
-1.75879  0.00169  0.00167  0.14569  0.14598  0.15299  0.14786  0.13411  0.13927
-1.70854  0.00159  0.00158  0.14276  0.14260  0.14985  0.14467  0.13181  0.13745
-1.65829  0.00150  0.00149  0.13944  0.13887  0.14633  0.14114  0.12915  0.13519
-1.60804  0.00141  0.00140  0.13573  0.13479  0.14243  0.13727  0.12615  0.13249
-1.55779  0.00132  0.00131  0.13163  0.13036  0.13815  0.13308  0.12279  0.12936
-1.50754  0.00123  0.00122  0.12713  0.12558  0.13348  0.12855  0.11909  0.12579
-1.45729  0.00115  0.00114  0.12224  0.12044  0.12844  0.12368  0.11503  0.12178
-1.40704  0.00107  0.00106  0.11697  0.11496  0.12302  0.11848  0.11062  0.11733
-1.35678  0.00099  0.00098  0.11130  0.10912  0.11721  0.11295  0.10587  0.11245
-1.30653  0.00091  0.00090  0.10524  0.10294  0.11103  0.10708  0.10076  0.10713
-1.25628  0.00083  0.00083  0.09878  0.09640  0.10446  0.10088  0.09530  0.10137
-1.20603  0.00076  0.00075  0.09194  0.08951  0.09751  0.09435  0.08949  0.09518
-1.15578  0.00069  0.00068  0.08471  0.08226  0.09019  0.08748  0.08333  0.08854
-1.10553  0.00062  0.00062  0.07708  0.07467  0.08248  0.08028  0.07682  0.08147
-1.05528  0.00055  0.00055  0.06906  0.06673  0.07439  0.07274  0.06996  0.07397
-1.00503  0.00049  0.00048  0.06071  0.05849  0.06597  0.06491  0.06277  0.06606
-0.95477  0.00043  0.00043  0.05413  0.05210  0.05903  0.05822  0.05642  0.05926
-0.90452  0.00039  0.00039  0.04872  0.04689  0.05313  0.05240  0.05078  0.05334
-0.85427  0.00035  0.00035  0.04360  0.04196  0.04754  0.04689  0.04544  0.04773
-0.80402  0.00031  0.00031  0.03876  0.03730  0.04226  0.04169  0.04040  0.04243
-0.75377  0.00027  0.00027  0.03420  0.03292  0.03730  0.03679  0.03565  0.03744
-0.70352  0.00024  0.00024  0.02993  0.02881  0.03264  0.03220  0.03120  0.03277
-0.65327  0.00021  0.00021  0.02595  0.02497  0.02830  0.02791  0.02705  0.02841
-0.60302  0.00018  0.00018  0.02225  0.02141  0.02426  0.02393  0.02319  0.02436
-0.55276  0.00015  0.00015  0.01883  0.01813  0.02054  0.02026  0.01963  0.02062
-0.50251  0.00013  0.00013  0.01570  0.01511  0.01712  0.01689  0.01637  0.01719
-0.45226  0.00010  0.00010  0.01286  0.01237  0.01402  0.01383  0.01340  0.01407
-0.40201  0.00008  0.00008  0.01029  0.00991  0.01122  0.01107  0.01073  0.01127
-0.35176  0.00006  0.00006  0.00802  0.00772  0.00874  0.00862  0.00836  0.00878
-0.30151  0.00005  0.00005  0.00602  0.00580  0.00657  0.00648  0.00628  0.00659
-0.25126  0.00003  0.00003  0.00432  0.00415  0.00471  0.00464  0.00450  0.00472
-0.20101  0.00002  0.00002  0.00289  0.00278  0.00315  0.00311  0.00302  0.00317
-0.15075  0.00001  0.00001  0.00175  0.00169  0.00191  0.00189  0.00183  0.00192
-0.10050  0.00001  0.00001  0.00090  0.00087  0.00098  0.00097  0.00094  0.00099
-0.05025  0.00000  0.00000  0.00033  0.00032  0.00036  0.00036  0.00035  0.00036
 0.00000  0.00000  0.00000  0.00005  0.00005  0.00005  0.00005  0.00005  0.00005
 0.05025  0.00000  0.00000  0.00000  0.00000  0.00000  0.00000  0.00000  0.00000
 0.10050  0.00000  0.00000  0.00000  0.00000  0.00000  0.00000  0.00000  0.00000
 0.15075  0.00000  0.00000  0.00000  0.00000  0.00000  0.00000  0.00000  0.00000
 0.20101  0.00000  0.00000  0.00000  0.00000  0.00000  0.00000  0.00000  0.00000
 0.25126  0.00000  0.00000  0.00000  0.00000  0.00000  0.00000  0.00000  0.00000
 0.30151  0.00000  0.00000  0.00000  0.00000  0.00000  0.00000  0.00000  0.00000
 0.35176  0.00000  0.00000  0.00000  0.00000  0.00000  0.00000  0.00000  0.00000
 0.40201  0.00000  0.00000  0.00000  0.00000  0.00000  0.00000  0.00000  0.00000
 0.45226  0.00000  0.00000  0.00000  0.00000  0.00000  0.00000  0.00000  0.00000
 0.50251  0.00000  0.00000  0.00000  0.00000  0.00000  0.00000  0.00000  0.00000
 0.55276  0.00000  0.00000  0.00000  0.00000  0.00000  0.00000  0.00000  0.00000
 0.60302  0.00080  0.00080  0.00103  0.00103  0.00103  0.00103  0.00103  0.00103
 0.65327  0.00479  0.00479  0.00578  0.00581  0.00575  0.00575  0.00579  0.00576
 0.70352  0.01042  0.01042  0.01180  0.01188  0.01170  0.01170  0.01183  0.01174
 0.75377  0.01752  0.01752  0.01886  0.01904  0.01866  0.01867  0.01894  0.01874
 0.80402  0.02610  0.02609  0.02697  0.02729  0.02662  0.02664  0.02710  0.02677
 0.85427  0.03614  0.03614  0.03613  0.03662  0.03559  0.03562  0.03633  0.03582
 0.90452  0.04767  0.04767  0.04634  0.04703  0.04557  0.04561  0.04662  0.04589
 0.95477  0.06066  0.06066  0.05760  0.05852  0.05656  0.05661  0.05797  0.05699
 1.00503  0.07513  0.07513  0.06990  0.07110  0.06855  0.06862  0.07039  0.06912
 1.05528  0.09107  0.09107  0.08325  0.08476  0.08155  0.08164  0.08386  0.08226
 1.10553  0.10849  0.10849  0.09765  0.09950  0.09555  0.09567  0.09840  0.09644
 1.15578  0.12738  0.12738  0.11309  0.11533  0.11057  0.11071  0.11400  0.11163
 1.20603  0.14775  0.14775  0.12959  0.13224  0.12659  0.12675  0.13067  0.12785
 1.25628  0.16959  0.16959  0.14713  0.15024  0.14362  0.14381  0.14839  0.14509
 1.30653  0.19290  0.19290  0.16571  0.16931  0.16165  0.16187  0.16718  0.16336
 1.35678  0.21768  0.21768  0.18535  0.18948  0.18070  0.18095  0.18703  0.18265
 1.40704  0.32233  0.32233  0.30085  0.30554  0.29556  0.29585  0.30276  0.29779
 1.45729  0.24508  0.24508  0.16261  0.16790  0.15665  0.15698  0.16476  0.15916
 1.50754  0.29081  0.29081  0.17667  0.18259  0.17000  0.17036  0.17908  0.17280
 1.55779  0.28240  0.28240  0.16476  0.17135  0.15734  0.15774  0.16744  0.16046
 1.60804  0.21986  0.21986  0.12690  0.13419  0.11868  0.11912  0.12986  0.12213
 1.65829  0.10354  0.10354  0.06326  0.07129  0.05421  0.05470  0.06652  0.05801
 1.70854  0.03541  0.03541  0.02646  0.03424  0.01768  0.01815  0.02962  0.02136
 1.75879  0.03100  0.03100  0.02316  0.02998  0.01548  0.01589  0.02594  0.01871
 1.80905  0.02689  0.02689  0.02009  0.02600  0.01342  0.01378  0.02249  0.01622
 1.85930  0.02318  0.02318  0.01733  0.02242  0.01164  0.01194  0.01940  0.01402
 1.90955  0.02001  0.01999  0.01504  0.01940  0.01036  0.01063  0.01685  0.01224
 1.95980  0.01725  0.01721  0.01316  0.01692  0.00955  0.00983  0.01482  0.01084
 2.01005  0.01489  0.01484  0.01171  0.01495  0.00921  0.00953  0.01329  0.00980
 2.06030  0.01295  0.01287  0.01067  0.01352  0.00934  0.00974  0.01227  0.00913
 2.11055  0.01141  0.01132  0.01005  0.01261  0.00993  0.01045  0.01176  0.00883
 2.16080  0.01029  0.01017  0.00985  0.01222  0.01100  0.01167  0.01176  0.00890
 2.21106  0.00957  0.00942  0.01007  0.01236  0.01253  0.01340  0.01227  0.00933
 2.26131  0.00926  0.00909  0.01071  0.01303  0.01453  0.01563  0.01329  0.01014
 2.31156  0.00937  0.00916  0.01176  0.01422  0.01699  0.01837  0.01482  0.01131
 2.36181  0.00988  0.00964  0.01323  0.01593  0.01993  0.02161  0.01686  0.01285
 2.41206  0.01081  0.01052  0.01513  0.01817  0.02333  0.02536  0.01941  0.01476
 2.46231  0.01214  0.01182  0.01744  0.02094  0.02720  0.02962  0.02247  0.01703
 2.51256  0.01381  0.01345  0.02009  0.02413  0.03142  0.03425  0.02593  0.01961
 2.56281  0.01547  0.01506  0.02272  0.02727  0.03545  0.03864  0.02931  0.02220
 2.61307  0.01702  0.01656  0.02523  0.03021  0.03913  0.04260  0.03245  0.02469
 2.66332  0.01845  0.01795  0.02762  0.03297  0.04246  0.04613  0.03536  0.02710
 2.71357  0.01978  0.01922  0.02989  0.03553  0.04544  0.04924  0.03804  0.02943
 2.76382  0.02099  0.02038  0.03204  0.03791  0.04806  0.05193  0.04048  0.03166
 2.81407  0.02210  0.02143  0.03406  0.04009  0.05034  0.05419  0.04270  0.03382
 2.86432  0.02309  0.02236  0.03596  0.04208  0.05227  0.05603  0.04468  0.03588
 2.91457  0.02397  0.02319  0.03773  0.04388  0.05385  0.05744  0.04643  0.03786
 2.96482  0.02475  0.02389  0.03939  0.04549  0.05507  0.05843  0.04794  0.03976
 3.01508  0.02541  0.02449  0.04092  0.04691  0.05595  0.05900  0.04923  0.04157
 3.06533  0.02595  0.02497  0.04233  0.04814  0.05648  0.05914  0.05028  0.04329
 3.11558  0.02639  0.02533  0.04362  0.04918  0.05665  0.05885  0.05110  0.04493
 3.16583  0.02672  0.02559  0.04478  0.05003  0.05648  0.05815  0.05169  0.04648
 3.21608  0.02694  0.02573  0.04583  0.05068  0.05595  0.05701  0.05205  0.04795
 3.26633  0.02704  0.02576  0.04675  0.05115  0.05508  0.05545  0.05217  0.04932
 3.31658  0.02703  0.02567  0.04755  0.05142  0.05385  0.05347  0.05206  0.05062
 3.36683  0.02692  0.02547  0.04822  0.05151  0.05228  0.05107  0.05172  0.05183
 3.41709  0.02682  0.02528  0.04898  0.05171  0.05087  0.04884  0.05150  0.05311
 3.46734  0.02750  0.02587  0.05112  0.05396  0.05295  0.05069  0.05362  0.05549
 3.51759  0.02831  0.02658  0.05345  0.05653  0.05564  0.05330  0.05614  0.05801
 3.56784  0.02907  0.02725  0.05568  0.05898  0.05823  0.05579  0.05855  0.06042
 3.61809  0.02980  0.02788  0.05781  0.06133  0.06070  0.05818  0.06085  0.06274
 3.66834  0.03048  0.02848  0.05985  0.06355  0.06305  0.06045  0.06305  0.06495
 3.71859  0.03111  0.02904  0.06178  0.06566  0.06529  0.06262  0.06515  0.06705
 3.76884  0.03170  0.02956  0.06361  0.06766  0.06741  0.06468  0.06714  0.06906
 3.81910  0.03225  0.03004  0.06534  0.06954  0.06942  0.06662  0.06903  0.07096
 3.86935  0.03276  0.03048  0.06698  0.07131  0.07132  0.06846  0.07081  0.07277
 3.91960  0.03322  0.03088  0.06851  0.07296  0.07310  0.07019  0.07249  0.07447
 3.96985  0.03364  0.03125  0.06995  0.07449  0.07476  0.07181  0.07406  0.07607
 4.02010  0.03401  0.03158  0.07128  0.07592  0.07631  0.07331  0.07553  0.07756
 4.07035  0.03435  0.03186  0.07251  0.07722  0.07775  0.07471  0.07690  0.07896
 4.12060  0.03463  0.03211  0.07365  0.07841  0.07907  0.07600  0.07816  0.08025
 4.17085  0.03488  0.03232  0.07469  0.07949  0.08027  0.07718  0.07931  0.08144
 4.22111  0.03508  0.03250  0.07562  0.08045  0.08136  0.07825  0.08036  0.08253
 4.27136  0.03524  0.03263  0.07646  0.08130  0.08234  0.07921  0.08131  0.08352
 4.32161  0.03535  0.03273  0.07719  0.08203  0.08320  0.08006  0.08215  0.08440
 4.37186  0.03543  0.03278  0.07783  0.08265  0.08394  0.08079  0.08288  0.08519
 4.42211  0.03545  0.03280  0.07837  0.08315  0.08457  0.08142  0.08351  0.08587
 4.47236  0.03544  0.03278  0.07881  0.08354  0.08509  0.08194  0.08404  0.08645
 4.52261  0.03538  0.03272  0.07914  0.08381  0.08549  0.08235  0.08446  0.08693
 4.57286  0.03528  0.03263  0.07938  0.08397  0.08577  0.08266  0.08478  0.08730
 4.62312  0.03513  0.03249  0.07952  0.08401  0.08594  0.08285  0.08499  0.08758
 4.67337  0.03495  0.03232  0.07956  0.08394  0.08600  0.08293  0.08510  0.08775
 4.72362  0.03471  0.03211  0.07950  0.08375  0.08594  0.08290  0.08510  0.08782
 4.77387  0.03444  0.03186  0.07934  0.08345  0.08576  0.08276  0.08500  0.08779
 4.82412  0.03412  0.03157  0.07908  0.08303  0.08547  0.08251  0.08480  0.08765
 4.87437  0.03376  0.03124  0.07872  0.08250  0.08507  0.08215  0.08449  0.08742
 4.92462  0.03335  0.03087  0.07826  0.08185  0.08455  0.08169  0.08407  0.08708
 4.97487  0.03291  0.03047  0.07770  0.08109  0.08391  0.08111  0.08355  0.08664
 5.02513  0.03241  0.03002  0.07704  0.08021  0.08316  0.08042  0.08293  0.08610
      5.02512563      -5.02512563   201       5.87444487       1.00000000; Z= 14; 3s 3p_y 3p_z 3p_x
-5.02513  0.00000  0.00000  0.00000  0.00000  0.00000  0.00000  0.00000  0.00000
-4.97487  0.01131  0.01131  0.01007  0.01101  0.00781  0.00818  0.00902  0.00771
-4.92462  0.01107  0.01107  0.00987  0.01079  0.00765  0.00802  0.00883  0.00755
-4.87437  0.01085  0.01085  0.00967  0.01057  0.00750  0.00786  0.00866  0.00740
-4.82412  0.01063  0.01063  0.00947  0.01035  0.00735  0.00770  0.00848  0.00725
-4.77387  0.01041  0.01041  0.00928  0.01014  0.00719  0.00754  0.00830  0.00710
-4.72362  0.01019  0.01019  0.00908  0.00993  0.00704  0.00738  0.00813  0.00695
-4.67337  0.00998  0.00998  0.00889  0.00972  0.00690  0.00723  0.00796  0.00680
-4.62312  0.00976  0.00976  0.00870  0.00951  0.00675  0.00707  0.00779  0.00666
-4.57286  0.00955  0.00955  0.00852  0.00931  0.00660  0.00692  0.00762  0.00652
-4.52261  0.00935  0.00935  0.00833  0.00911  0.00646  0.00677  0.00746  0.00637
-4.47236  0.01352  0.01371  0.15445  0.15297  0.14771  0.15235  0.15040  0.14277
-4.42211  0.00979  0.00983  0.04631  0.04936  0.04619  0.04802  0.04100  0.03524
-4.37186  0.00961  0.00964  0.04778  0.05106  0.04781  0.04980  0.04238  0.03622
-4.32161  0.00942  0.00946  0.04917  0.05267  0.04935  0.05149  0.04369  0.03715
-4.27136  0.00923  0.00927  0.05048  0.05418  0.05079  0.05309  0.04493  0.03803
-4.22111  0.00905  0.00909  0.05171  0.05560  0.05215  0.05459  0.04610  0.03885
-4.17085  0.00886  0.00890  0.05286  0.05693  0.05342  0.05600  0.04720  0.03962
-4.12060  0.00868  0.00872  0.05393  0.05817  0.05460  0.05731  0.04822  0.04034
-4.07035  0.00850  0.00854  0.05491  0.05932  0.05569  0.05853  0.04918  0.04099
-4.02010  0.00832  0.00836  0.05581  0.06037  0.05669  0.05965  0.05006  0.04160
-3.96985  0.00814  0.00818  0.05663  0.06133  0.05761  0.06068  0.05086  0.04215
-3.91960  0.00796  0.00801  0.05737  0.06220  0.05843  0.06161  0.05160  0.04264
-3.86935  0.00779  0.00783  0.05803  0.06298  0.05917  0.06245  0.05226  0.04308
-3.81910  0.00761  0.00765  0.05860  0.06367  0.05982  0.06319  0.05286  0.04347
-3.76884  0.00744  0.00748  0.05910  0.06426  0.06038  0.06384  0.05338  0.04380
-3.71859  0.00727  0.00731  0.05951  0.06477  0.06085  0.06439  0.05382  0.04407
-3.66834  0.00709  0.00714  0.05984  0.06518  0.06123  0.06485  0.05420  0.04429
-3.61809  0.00692  0.00697  0.06009  0.06550  0.06153  0.06522  0.05450  0.04446
-3.56784  0.00676  0.00680  0.06026  0.06573  0.06173  0.06549  0.05473  0.04457
-3.51759  0.00659  0.00663  0.06034  0.06586  0.06185  0.06566  0.05489  0.04463
-3.46734  0.00642  0.00646  0.06034  0.06591  0.06188  0.06575  0.05498  0.04463
-3.41709  0.00626  0.00630  0.06027  0.06586  0.06182  0.06573  0.05500  0.04458
-3.36683  0.00609  0.00613  0.06011  0.06572  0.06167  0.06562  0.05494  0.04447
-3.31658  0.00593  0.00597  0.05986  0.06549  0.06144  0.06542  0.05481  0.04431
-3.26633  0.00577  0.00580  0.05954  0.06516  0.06111  0.06512  0.05461  0.04409
-3.21608  0.00561  0.00564  0.05914  0.06475  0.06070  0.06473  0.05434  0.04382
-3.16583  0.00545  0.00548  0.05865  0.06424  0.06020  0.06424  0.05399  0.04349
-3.11558  0.00529  0.00532  0.05808  0.06364  0.05961  0.06366  0.05357  0.04311
-3.06533  0.00513  0.00517  0.05743  0.06295  0.05893  0.06299  0.05308  0.04268
-3.01508  0.00498  0.00501  0.05670  0.06216  0.05816  0.06222  0.05252  0.04219
-2.96482  0.00482  0.00485  0.05588  0.06129  0.05730  0.06135  0.05189  0.04164
-2.91457  0.00467  0.00470  0.05499  0.06032  0.05636  0.06039  0.05118  0.04104
-2.86432  0.00451  0.00455  0.05401  0.05926  0.05533  0.05934  0.05041  0.04039
-2.81407  0.00436  0.00440  0.05295  0.05811  0.05420  0.05819  0.04956  0.03968
-2.76382  0.00421  0.00425  0.05181  0.05687  0.05299  0.05694  0.04863  0.03891
-2.71357  0.00407  0.00410  0.05059  0.05553  0.05169  0.05560  0.04764  0.03809
-2.66332  0.00392  0.00395  0.04928  0.05411  0.05031  0.05417  0.04657  0.03722
-2.61307  0.00377  0.00380  0.04790  0.05259  0.04883  0.05264  0.04543  0.03629
-2.56281  0.00363  0.00365  0.04643  0.05098  0.04727  0.05102  0.04422  0.03531
-2.51256  0.00348  0.00351  0.04488  0.04928  0.04561  0.04930  0.04294  0.03427