  COHP#       atomMU       atomNU     distance     translation      ICOHP (at) eF   for spin  1
      1          Si2          Si1      2.35371       0   0   0           -2.35715
      1       Si2_3s       Si1_3s      2.35371       0   0   0           -0.13633
      1     Si2_3p_y       Si1_3s      2.35371       0   0   0           -0.20540
      1     Si2_3p_z       Si1_3s      2.35371       0   0   0           -0.20877
      1     Si2_3p_x       Si1_3s      2.35371       0   0   0           -0.20535
      1       Si2_3s     Si1_3p_y      2.35371       0   0   0           -0.20634
      1     Si2_3p_y     Si1_3p_y      2.35371       0   0   0           -0.00979
      1     Si2_3p_z     Si1_3p_y      2.35371       0   0   0           -0.16288
      1     Si2_3p_x     Si1_3p_y      2.35371       0   0   0           -0.15824
      1       Si2_3s     Si1_3p_z      2.35371       0   0   0           -0.20368
      1     Si2_3p_y     Si1_3p_z      2.35371       0   0   0           -0.16245
      1     Si2_3p_z     Si1_3p_z      2.35371       0   0   0           -0.00980
      1     Si2_3p_x     Si1_3p_z      2.35371       0   0   0           -0.15812
      1       Si2_3s     Si1_3p_x      2.35371       0   0   0           -0.20546
      1     Si2_3p_y     Si1_3p_x      2.35371       0   0   0           -0.15820
      1     Si2_3p_z     Si1_3p_x      2.35371       0   0   0           -0.15847
      1     Si2_3p_x     Si1_3p_x      2.35371       0   0   0           -0.00786
      2          Si2          Si1      2.35371       1   0   0           -2.34548
      2       Si2_3s       Si1_3s      2.35371       1   0   0           -0.13488
      2     Si2_3p_y       Si1_3s      2.35371       1   0   0           -0.20628
      2     Si2_3p_z       Si1_3s      2.35371       1   0   0           -0.20925
      2     Si2_3p_x       Si1_3s      2.35371       1   0   0           -0.20538
      2       Si2_3s     Si1_3p_y      2.35371       1   0   0           -0.20739
      2     Si2_3p_y     Si1_3p_y      2.35371       1   0   0           -0.00774
      2     Si2_3p_z     Si1_3p_y      2.35371       1   0   0           -0.15822
      2     Si2_3p_x     Si1_3p_y      2.35371       1   0   0           -0.15841
      2       Si2_3s     Si1_3p_z      2.35371       1   0   0           -0.20351
      2     Si2_3p_y     Si1_3p_z      2.35371       1   0   0           -0.15772
      2     Si2_3p_z     Si1_3p_z      2.35371       1   0   0           -0.00791
      2     Si2_3p_x     Si1_3p_z      2.35371       1   0   0           -0.15846
      2       Si2_3s     Si1_3p_x      2.35371       1   0   0           -0.20501
      2     Si2_3p_y     Si1_3p_x      2.35371       1   0   0           -0.15829
      2     Si2_3p_z     Si1_3p_x      2.35371       1   0   0           -0.15889
      2     Si2_3p_x     Si1_3p_x      2.35371       1   0   0           -0.00815
      3          Si2          Si1      2.35371       0   1   0           -2.36981
      3       Si2_3s       Si1_3s      2.35371       0   1   0           -0.13790
      3     Si2_3p_y       Si1_3s      2.35371       0   1   0           -0.20603
      3     Si2_3p_z       Si1_3s      2.35371       0   1   0           -0.20820
      3     Si2_3p_x       Si1_3s      2.35371       0   1   0           -0.20590
      3       Si2_3s     Si1_3p_y      2.35371       0   1   0           -0.20538
      3     Si2_3p_y     Si1_3p_y      2.35371       0   1   0           -0.01003
      3     Si2_3p_z     Si1_3p_y      2.35371       0   1   0           -0.15951
      3     Si2_3p_x     Si1_3p_y      2.35371       0   1   0           -0.16216
      3       Si2_3s     Si1_3p_z      2.35371       0   1   0           -0.20132
      3     Si2_3p_y     Si1_3p_z      2.35371       0   1   0           -0.15907
      3     Si2_3p_z     Si1_3p_z      2.35371       0   1   0           -0.01009
      3     Si2_3p_x     Si1_3p_z      2.35371       0   1   0           -0.16198
      3       Si2_3s     Si1_3p_x      2.35371       0   1   0           -0.20622
      3     Si2_3p_y     Si1_3p_x      2.35371       0   1   0           -0.16223
      3     Si2_3p_z     Si1_3p_x      2.35371       0   1   0           -0.16245
      3     Si2_3p_x     Si1_3p_x      2.35371       0   1   0           -0.01135
      4          Si2          Si1      2.35371       0   0   1           -2.37412
      4       Si2_3s       Si1_3s      2.35371       0   0   1           -0.13843
      4     Si2_3p_y       Si1_3s      2.35371       0   0   1           -0.20487
      4     Si2_3p_z       Si1_3s      2.35371       0   0   1           -0.20932
      4     Si2_3p_x       Si1_3s      2.35371       0   0   1           -0.20647
      4       Si2_3s     Si1_3p_y      2.35371       0   0   1           -0.20399
      4     Si2_3p_y     Si1_3p_y      2.35371       0   0   1           -0.01094
      4     Si2_3p_z     Si1_3p_y      2.35371       0   0   1           -0.16137
      4     Si2_3p_x     Si1_3p_y      2.35371       0   0   1           -0.16226
      4       Si2_3s     Si1_3p_z      2.35371       0   0   1           -0.20179
      4     Si2_3p_y     Si1_3p_z      2.35371       0   0   1           -0.16089
      4     Si2_3p_z     Si1_3p_z      2.35371       0   0   1           -0.01071
      4     Si2_3p_x     Si1_3p_z      2.35371       0   0   1           -0.16160
      4       Si2_3s     Si1_3p_x      2.35371       0   0   1           -0.20592
      4     Si2_3p_y     Si1_3p_x      2.35371       0   0   1           -0.16224
      4     Si2_3p_z     Si1_3p_x      2.35371       0   0   1           -0.16210
      4     Si2_3p_x     Si1_3p_x      2.35371       0   0   1           -0.01119
  COHP#       atomMU       atomNU     distance     translation      ICOHP (at) eF   for spin  2
      1          Si2          Si1      2.35371       0   0   0           -2.36896
      1       Si2_3s       Si1_3s      2.35371       0   0   0           -0.13779
      1     Si2_3p_y       Si1_3s      2.35371       0   0   0           -0.20438
      1     Si2_3p_z       Si1_3s      2.35371       0   0   0           -0.20608
      1     Si2_3p_x       Si1_3s      2.35371       0   0   0           -0.20601
      1       Si2_3s     Si1_3p_y      2.35371       0   0   0           -0.20516
      1     Si2_3p_y     Si1_3p_y      2.35371       0   0   0           -0.01200
      1     Si2_3p_z     Si1_3p_y      2.35371       0   0   0           -0.16285
      1     Si2_3p_x     Si1_3p_y      2.35371       0   0   0           -0.16291
      1       Si2_3s     Si1_3p_z      2.35371       0   0   0           -0.20697
      1     Si2_3p_y     Si1_3p_z      2.35371       0   0   0           -0.16286
      1     Si2_3p_z     Si1_3p_z      2.35371       0   0   0           -0.00957
      1     Si2_3p_x     Si1_3p_z      2.35371       0   0   0           -0.15782
      1       Si2_3s     Si1_3p_x      2.35371       0   0   0           -0.20455
      1     Si2_3p_y     Si1_3p_x      2.35371       0   0   0           -0.16276
      1     Si2_3p_z     Si1_3p_x      2.35371       0   0   0           -0.15763
      1     Si2_3p_x     Si1_3p_x      2.35371       0   0   0           -0.00963
      2          Si2          Si1      2.35371       1   0   0           -2.34886
      2       Si2_3s       Si1_3s      2.35371       1   0   0           -0.13530
      2     Si2_3p_y       Si1_3s      2.35371       1   0   0           -0.20686
      2     Si2_3p_z       Si1_3s      2.35371       1   0   0           -0.20679
      2     Si2_3p_x       Si1_3s      2.35371       1   0   0           -0.20889
      2       Si2_3s     Si1_3p_y      2.35371       1   0   0           -0.20432
      2     Si2_3p_y     Si1_3p_y      2.35371       1   0   0           -0.00869
      2     Si2_3p_z     Si1_3p_y      2.35371       1   0   0           -0.15762
      2     Si2_3p_x     Si1_3p_y      2.35371       1   0   0           -0.16078
      2       Si2_3s     Si1_3p_z      2.35371       1   0   0           -0.20647
      2     Si2_3p_y     Si1_3p_z      2.35371       1   0   0           -0.15780
      2     Si2_3p_z     Si1_3p_z      2.35371       1   0   0           -0.00741
      2     Si2_3p_x     Si1_3p_z      2.35371       1   0   0           -0.15806
      2       Si2_3s     Si1_3p_x      2.35371       1   0   0           -0.20297
      2     Si2_3p_y     Si1_3p_x      2.35371       1   0   0           -0.16050
      2     Si2_3p_z     Si1_3p_x      2.35371       1   0   0           -0.15766
      2     Si2_3p_x     Si1_3p_x      2.35371       1   0   0           -0.00874
      3          Si2          Si1      2.35371       0   1   0           -2.36472
      3       Si2_3s       Si1_3s      2.35371       0   1   0           -0.13727
      3     Si2_3p_y       Si1_3s      2.35371       0   1   0           -0.21100
      3     Si2_3p_z       Si1_3s      2.35371       0   1   0           -0.20665
      3     Si2_3p_x       Si1_3s      2.35371       0   1   0           -0.20782
      3       Si2_3s     Si1_3p_y      2.35371       0   1   0           -0.20317
      3     Si2_3p_y     Si1_3p_y      2.35371       0   1   0           -0.00891
      3     Si2_3p_z     Si1_3p_y      2.35371       0   1   0           -0.15907
      3     Si2_3p_x     Si1_3p_y      2.35371       0   1   0           -0.15981
      3       Si2_3s     Si1_3p_z      2.35371       0   1   0           -0.20220
      3     Si2_3p_y     Si1_3p_z      2.35371       0   1   0           -0.15933
      3     Si2_3p_z     Si1_3p_z      2.35371       0   1   0           -0.01033
      3     Si2_3p_x     Si1_3p_z      2.35371       0   1   0           -0.16279
      3       Si2_3s     Si1_3p_x      2.35371       0   1   0           -0.20301
      3     Si2_3p_y     Si1_3p_x      2.35371       0   1   0           -0.16003
      3     Si2_3p_z     Si1_3p_x      2.35371       0   1   0           -0.16274
      3     Si2_3p_x     Si1_3p_x      2.35371       0   1   0           -0.01060
      4          Si2          Si1      2.35371       0   0   1           -2.36412
      4       Si2_3s       Si1_3s      2.35371       0   0   1           -0.13719
      4     Si2_3p_y       Si1_3s      2.35371       0   0   1           -0.20770
      4     Si2_3p_z       Si1_3s      2.35371       0   0   1           -0.20806
      4     Si2_3p_x       Si1_3s      2.35371       0   0   1           -0.20758
      4       Si2_3s     Si1_3p_y      2.35371       0   0   1           -0.20316
      4     Si2_3p_y     Si1_3p_y      2.35371       0   0   1           -0.00892
      4     Si2_3p_z     Si1_3p_y      2.35371       0   0   1           -0.16135
      4     Si2_3p_x     Si1_3p_y      2.35371       0   0   1           -0.15759
      4       Si2_3s     Si1_3p_z      2.35371       0   0   1           -0.20252
      4     Si2_3p_y     Si1_3p_z      2.35371       0   0   1           -0.16125
      4     Si2_3p_z     Si1_3p_z      2.35371       0   0   1           -0.01122
      4     Si2_3p_x     Si1_3p_z      2.35371       0   0   1           -0.16260
      4       Si2_3s     Si1_3p_x      2.35371       0   0   1           -0.20489
      4     Si2_3p_y     Si1_3p_x      2.35371       0   0   1           -0.15773
      4     Si2_3p_z     Si1_3p_x      2.35371       0   0   1           -0.16284
      4     Si2_3p_x     Si1_3p_x      2.35371       0   0   1           -0.00952
