 vasp.6.3.1 04May22 (build May  6 2022 16:02:18) complex
 executed on             LinuxGNU date 2023.02.28  11:57:07
 running   80 mpi-ranks, with    1 threads/rank
 distrk:  each k-point on   80 cores,    1 groups
 distr:  one band on NCORE=  20 cores,    4 groups


--------------------------------------------------------------------------------------------------------


 INCAR:
   ALGO = Normal
   EDIFF = 1e-07
   EDIFFG = -0.02
   ENAUG = 1360.0
   ENCUT = 700
   GGA = Ps
   IBRION = 2
   ISIF = 2
   ISMEAR = -5
   ISPIN = 2
   ISYM = 0
   LAECHG = False
   LASPH = True
   LCHARG = False
   LELF = False
   LMIXTAU = True
   LORBIT = 11
   LREAL = False
   LVTOT = True
   LWAVE = True
   MAGMOM = 2*0.0
   NBANDS = 8
   NELM = 200
   NPAR = 4
   NSW = 99
   PREC = Accurate
   SIGMA = 0.05

 POTCAR:    PAW_PBE Si 05Jan2001
 WARNING: For LVTOT=.TRUE., VASP.5.x writes the TOTAL local potential to the
     file LOCPOT. If you want only the Hartree contributions, use LVHAR=.TRUE.
     instead.

 POTCAR:    PAW_PBE Si 05Jan2001
   VRHFIN =Si: s2p2
   LEXCH  = PE
   EATOM  =   103.0669 eV,    7.5752 Ry

   TITEL  = PAW_PBE Si 05Jan2001
   LULTRA =        F    use ultrasoft PP ?
   IUNSCR =        1    unscreen: 0-lin 1-nonlin 2-no
   RPACOR =    1.500    partial core radius
   POMASS =   28.085; ZVAL   =    4.000    mass and valenz
   RCORE  =    1.900    outmost cutoff radius
   RWIGS  =    2.480; RWIGS  =    1.312    wigner-seitz radius (au A)
   ENMAX  =  245.345; ENMIN  =  184.009 eV
   ICORE  =        2    local potential
   LCOR   =        T    correct aug charges
   LPAW   =        T    paw PP
   EAUG   =  322.069
   DEXC   =    0.000
   RMAX   =    1.950    core radius for proj-oper
   RAUG   =    1.300    factor for augmentation sphere
   RDEP   =    1.993    radius for radial grids
   RDEPT  =    1.837    core radius for aug-charge

   Atomic configuration
    6 entries
     n  l   j            E        occ.
     1  0  0.50     -1785.8828   2.0000
     2  0  0.50      -139.4969   2.0000
     2  1  1.50       -95.5546   6.0000
     3  0  0.50       -10.8127   2.0000
     3  1  0.50        -4.0811   2.0000
     3  2  1.50        -4.0817   0.0000
   Description
     l       E           TYP  RCUT    TYP  RCUT
     0    -10.8127223     23  1.900
     0     -7.6451159     23  1.900
     1     -4.0811372     23  1.900
     1      2.4879257     23  1.900
     2     -4.0817478      7  1.900
  local pseudopotential read in
  partial core-charges read in
  partial kinetic energy density read in
  atomic valenz-charges read in
  non local Contribution for L=           0  read in
    real space projection operators read in
  non local Contribution for L=           0  read in
    real space projection operators read in
  non local Contribution for L=           1  read in
    real space projection operators read in
  non local Contribution for L=           1  read in
    real space projection operators read in
    PAW grid and wavefunctions read in

   number of l-projection  operators is LMAX  =           4
   number of lm-projection operators is LMMAX =           8

 -----------------------------------------------------------------------------
|                                                                             |
|               ----> ADVICE to this user running VASP <----                  |
|                                                                             |
|     You enforced a specific xc type in the INCAR file but a different       |
|     type was found in the POTCAR file.                                      |
|     I HOPE YOU KNOW WHAT YOU ARE DOING!                                     |
|                                                                             |
 -----------------------------------------------------------------------------

  PAW_PBE Si 05Jan2001                  :
 energy of atom  1       EATOM= -103.0669
 kinetic energy error for atom=    0.0003 (will be added to EATOM!!)


 POSCAR: Si2
  positions in direct lattice
  velocities in cartesian coordinates
 exchange correlation table for  LEXCH =       14
   RHO(1)=    0.500       N(1)  =     2000
   RHO(2)=  100.500       N(2)  =     4000



--------------------------------------------------------------------------------------------------------


 ion  position               nearest neighbor table
   1  0.000  0.000  0.000-   2 2.35   2 2.35   2 2.35   2 2.35
   2  0.250  0.250  0.250-   1 2.35   1 2.35   1 2.35   1 2.35


IMPORTANT INFORMATION: All symmetrisations will be switched off!
NOSYMM: (Re-)initialisation of all symmetry stuff for point group C_1.


----------------------------------------------------------------------------------------

                                     Primitive cell

  volume of cell :      40.1509

  direct lattice vectors                    reciprocal lattice vectors
    -0.000000000  2.717826068  2.717826068    -0.183970566  0.183970566  0.183970566
     2.717826068 -0.000000000  2.717826068     0.183970566 -0.183970566  0.183970566
     2.717826068  2.717826068  0.000000000     0.183970566  0.183970566 -0.183970566

  length of vectors
     3.843586486  3.843586486  3.843586486     0.318646367  0.318646367  0.318646367

  position of ions in fractional coordinates (direct lattice)
     0.000000000  0.000000000  0.000000000
     0.250000000  0.250000000  0.250000000

  ion indices of the primitive-cell ions
   primitive index   ion index
                 1           1
                 2           2

----------------------------------------------------------------------------------------



 KPOINTS: pymatgen with grid density = 100 / numbe

Automatic generation of k-mesh.
 Grid dimensions read from file:
 generate k-points for:    3    3    3

 Generating k-lattice:

  Cartesian coordinates                     Fractional coordinates (reciprocal lattice)
    -0.061323522  0.061323522  0.061323522     0.333333333 -0.000000000  0.000000000
     0.061323522 -0.061323522  0.061323522    -0.000000000  0.333333333 -0.000000000
     0.061323522  0.061323522 -0.061323522     0.000000000  0.000000000  0.333333333

  Length of vectors
     0.106215456  0.106215456  0.106215456

  Shift w.r.t. Gamma in fractional coordinates (k-lattice)
     0.000000000  0.000000000  0.000000000

 TETIRR: Found     78 inequivalent tetrahedra from      162

 Subroutine IBZKPT returns following result:
 ===========================================

 Found     14 irreducible k-points:

 Following reciprocal coordinates:
            Coordinates               Weight
  0.000000  0.000000  0.000000      1.000000
  0.333333  0.000000  0.000000      2.000000
  0.000000  0.333333  0.000000      2.000000
  0.000000  0.000000  0.333333      2.000000
  0.333333  0.333333  0.333333      2.000000
  0.333333  0.333333  0.000000      2.000000
  0.000000  0.333333  0.333333      2.000000
  0.333333  0.000000  0.333333      2.000000
 -0.333333  0.333333  0.000000      2.000000
  0.000000 -0.333333  0.333333      2.000000
  0.333333  0.000000 -0.333333      2.000000
  0.333333  0.333333 -0.333333      2.000000
 -0.333333  0.333333 -0.333333      2.000000
  0.333333 -0.333333 -0.333333      2.000000

 Following cartesian coordinates:
            Coordinates               Weight
  0.000000  0.000000  0.000000      1.000000
 -0.061324  0.061324  0.061324      2.000000
  0.061324 -0.061324  0.061324      2.000000
  0.061324  0.061324 -0.061324      2.000000
  0.061324  0.061324  0.061324      2.000000
  0.000000  0.000000  0.122647      2.000000
  0.122647  0.000000  0.000000      2.000000
  0.000000  0.122647  0.000000      2.000000
  0.122647 -0.122647  0.000000      2.000000
  0.000000  0.122647 -0.122647      2.000000
 -0.122647  0.000000  0.122647      2.000000
 -0.061324 -0.061324  0.183971      2.000000
  0.061324 -0.183971  0.061324      2.000000
 -0.183971  0.061324  0.061324      2.000000



--------------------------------------------------------------------------------------------------------




 Dimension of arrays:
   k-points           NKPTS =     14   k-points in BZ     NKDIM =     14   number of bands    NBANDS=      8
   number of dos      NEDOS =    301   number of ions     NIONS =      2
   non local maximal  LDIM  =      4   non local SUM 2l+1 LMDIM =      8
   total plane-waves  NPLWV =  46656
   max r-space proj   IRMAX =      1   max aug-charges    IRDMAX=  39047
   dimension x,y,z NGX =    36 NGY =   36 NGZ =   36
   dimension x,y,z NGXF=    72 NGYF=   72 NGZF=   72
   support grid    NGXF=    72 NGYF=   72 NGZF=   72
   ions per type =               2
   NGX,Y,Z   is equivalent  to a cutoff of  15.57, 15.57, 15.57 a.u.
   NGXF,Y,Z  is equivalent  to a cutoff of  31.14, 31.14, 31.14 a.u.

 SYSTEM =  unknown system
 POSCAR =  Si2

 Startparameter for this run:
   NWRITE =      2    write-flag & timer
   PREC   = accura    normal or accurate (medium, high low for compatibility)
   ISTART =      0    job   : 0-new  1-cont  2-samecut
   ICHARG =      2    charge: 1-file 2-atom 10-const
   ISPIN  =      2    spin polarized calculation?
   LNONCOLLINEAR =      F non collinear calculations
   LSORBIT =      F    spin-orbit coupling
   INIWAV =      1    electr: 0-lowe 1-rand  2-diag
   LASPH  =      T    aspherical Exc in radial PAW
 Electronic Relaxation 1
   ENCUT  =  700.0 eV  51.45 Ry    7.17 a.u.   8.29  8.29  8.29*2*pi/ulx,y,z
   ENINI  =  700.0     initial cutoff
   ENAUG  = 1360.0 eV  augmentation charge cutoff
   NELM   =    200;   NELMIN=  2; NELMDL= -5     # of ELM steps
   EDIFF  = 0.1E-06   stopping-criterion for ELM
   LREAL  =      F    real-space projection
   NLSPLINE    = F    spline interpolate recip. space projectors
   LCOMPAT=      F    compatible to vasp.4.4
   GGA_COMPAT  = T    GGA compatible to vasp.4.4-vasp.4.6
   LMAXPAW     = -100 max onsite density
   LMAXMIX     =    2 max onsite mixed and CHGCAR
   VOSKOWN=      0    Vosko Wilk Nusair interpolation
   ROPT   =    0.00000
 Ionic relaxation
   EDIFFG = -.2E-01   stopping-criterion for IOM
   NSW    =     99    number of steps for IOM
   NBLOCK =      1;   KBLOCK =     99    inner block; outer block
   IBRION =      2    ionic relax: 0-MD 1-quasi-New 2-CG
   NFREE  =      1    steps in history (QN), initial steepest desc. (CG)
   ISIF   =      2    stress and relaxation
   IWAVPR =     11    prediction:  0-non 1-charg 2-wave 3-comb
   ISYM   =      0    0-nonsym 1-usesym 2-fastsym
   LCORR  =      T    Harris-Foulkes like correction to forces

   POTIM  = 0.5000    time-step for ionic-motion
   TEIN   =    0.0    initial temperature
   TEBEG  =    0.0;   TEEND  =   0.0 temperature during run
   SMASS  =  -3.00    Nose mass-parameter (am)
   estimated Nose-frequenzy (Omega)   =  0.10E-29 period in steps = 0.13E+47 mass=  -0.338E-27a.u.
   SCALEE = 1.0000    scale energy and forces
   NPACO  =    256;   APACO  = 10.0  distance and # of slots for P.C.
   PSTRESS=    0.0 pullay stress

  Mass of Ions in am
   POMASS =  28.09
  Ionic Valenz
   ZVAL   =   4.00
  Atomic Wigner-Seitz radii
   RWIGS  =  -1.00
  virtual crystal weights
   VCA    =   1.00
   NELECT =       8.0000    total number of electrons
   NUPDOWN=      -1.0000    fix difference up-down

 DOS related values:
   EMIN   =  10.00;   EMAX   =-10.00  energy-range for DOS
   EFERMI =   0.00
   ISMEAR =    -5;   SIGMA  =   0.05  broadening in eV -4-tet -1-fermi 0-gaus

 Electronic relaxation 2 (details)
   IALGO  =     38    algorithm
   LDIAG  =      T    sub-space diagonalisation (order eigenvalues)
   LSUBROT=      F    optimize rotation matrix (better conditioning)
   TURBO    =      0    0=normal 1=particle mesh
   IRESTART =      0    0=no restart 2=restart with 2 vectors
   NREBOOT  =      0    no. of reboots
   NMIN     =      0    reboot dimension
   EREF     =   0.00    reference energy to select bands
   IMIX   =      4    mixing-type and parameters
     AMIX     =   0.40;   BMIX     =  1.00
     AMIX_MAG =   1.60;   BMIX_MAG =  1.00
     AMIN     =   0.10
     WC   =   100.;   INIMIX=   1;  MIXPRE=   1;  MAXMIX= -45

 Intra band minimization:
   WEIMIN = 0.0010     energy-eigenvalue tresh-hold
   EBREAK =  0.31E-08  absolut break condition
   DEPER  =   0.30     relativ break condition

   TIME   =   0.40     timestep for ELM

  volume/ion in A,a.u.               =      20.08       135.48
  Fermi-wavevector in a.u.,A,eV,Ry     =   0.956180  1.806919 12.439547  0.914281
  Thomas-Fermi vector in A             =   2.085085

 Write flags
   LWAVE        =      T    write WAVECAR
   LDOWNSAMPLE  =      F    k-point downsampling of WAVECAR
   LCHARG       =      F    write CHGCAR
   LVTOT        =      T    write LOCPOT, total local potential
   LVHAR        =      F    write LOCPOT, Hartree potential only
   LELF         =      F    write electronic localiz. function (ELF)
   LORBIT       =     11    0 simple, 1 ext, 2 COOP (PROOUT), +10 PAW based schemes


 Dipole corrections
   LMONO  =      F    monopole corrections only (constant potential shift)
   LDIPOL =      F    correct potential (dipole corrections)
   IDIPOL =      0    1-x, 2-y, 3-z, 4-all directions
   EPSILON=  1.0000000 bulk dielectric constant

 Exchange correlation treatment:
   GGA     =    PS    GGA type
   LEXCH   =    14    internal setting for exchange type
   LIBXC   =     F    Libxc
   VOSKOWN =     0    Vosko Wilk Nusair interpolation
   LHFCALC =     F    Hartree Fock is set to
   LHFONE  =     F    Hartree Fock one center treatment
   AEXX    =    0.0000 exact exchange contribution

 Linear response parameters
   LEPSILON=     F    determine dielectric tensor
   LRPA    =     F    only Hartree local field effects (RPA)
   LNABLA  =     F    use nabla operator in PAW spheres
   LVEL    =     F    velocity operator in full k-point grid
   CSHIFT  =0.1000    complex shift for real part using Kramers Kronig
   OMEGAMAX=  -1.0    maximum frequency
   DEG_THRESHOLD= 0.2000000E-02 threshold for treating states as degnerate
   RTIME   =   -0.100 relaxation time in fs
  (WPLASMAI=    0.000 imaginary part of plasma frequency in eV, 0.658/RTIME)
   DFIELD  = 0.0000000 0.0000000 0.0000000 field for delta impulse in time

  Optional k-point grid parameters
   LKPOINTS_OPT  =     F    use optional k-point grid
   KPOINTS_OPT_MODE=     1    mode for optional k-point grid

 Orbital magnetization related:
   ORBITALMAG=     F  switch on orbital magnetization
   LCHIMAG   =     F  perturbation theory with respect to B field
   DQ        =  0.001000  dq finite difference perturbation B field
   LLRAUG    =     F  two centre corrections for induced B field



--------------------------------------------------------------------------------------------------------


 conjugate gradient relaxation of ions
 charge density and potential will be updated during run
 spin polarized calculation
 Variant of blocked Davidson
 Davidson routine will perform the subspace rotation
 perform sub-space diagonalisation
    after iterative eigenvector-optimisation
 modified Broyden-mixing scheme, WC =      100.0
 initial mixing is a Kerker type mixing with AMIX =  0.4000 and BMIX =      1.0000
 Hartree-type preconditioning will be used
 using additional bands            4
 reciprocal scheme for non local part
 use partial core corrections
 calculate Harris-corrections to forces   (improved forces if not selfconsistent)
 use gradient corrections
 use of overlap-Matrix (Vanderbilt PP)
 Fermi weights with tetrahedron method with Bloechl corrections


--------------------------------------------------------------------------------------------------------


  energy-cutoff  :      700.00
  volume of cell :       40.15
      direct lattice vectors                 reciprocal lattice vectors
    -0.000000000  2.717826068  2.717826068    -0.183970566  0.183970566  0.183970566
     2.717826068 -0.000000000  2.717826068     0.183970566 -0.183970566  0.183970566
     2.717826068  2.717826068  0.000000000     0.183970566  0.183970566 -0.183970566

  length of vectors
     3.843586486  3.843586486  3.843586486     0.318646367  0.318646367  0.318646367



 k-points in units of 2pi/SCALE and weight: pymatgen with grid density = 100 / numbe
   0.00000000  0.00000000  0.00000000       0.037
  -0.06132352  0.06132352  0.06132352       0.074
   0.06132352 -0.06132352  0.06132352       0.074
   0.06132352  0.06132352 -0.06132352       0.074
   0.06132352  0.06132352  0.06132352       0.074
   0.00000000  0.00000000  0.12264704       0.074
   0.12264704  0.00000000  0.00000000       0.074
   0.00000000  0.12264704  0.00000000       0.074
   0.12264704 -0.12264704  0.00000000       0.074
   0.00000000  0.12264704 -0.12264704       0.074
  -0.12264704  0.00000000  0.12264704       0.074
  -0.06132352 -0.06132352  0.18397057       0.074
   0.06132352 -0.18397057  0.06132352       0.074
  -0.18397057  0.06132352  0.06132352       0.074

 k-points in reciprocal lattice and weights: pymatgen with grid density = 100 / numbe
   0.00000000  0.00000000  0.00000000       0.037
   0.33333333  0.00000000  0.00000000       0.074
   0.00000000  0.33333333  0.00000000       0.074
   0.00000000  0.00000000  0.33333333       0.074
   0.33333333  0.33333333  0.33333333       0.074
   0.33333333  0.33333333  0.00000000       0.074
   0.00000000  0.33333333  0.33333333       0.074
   0.33333333  0.00000000  0.33333333       0.074
  -0.33333333  0.33333333  0.00000000       0.074
   0.00000000 -0.33333333  0.33333333       0.074
   0.33333333  0.00000000 -0.33333333       0.074
   0.33333333  0.33333333 -0.33333333       0.074
  -0.33333333  0.33333333 -0.33333333       0.074
   0.33333333 -0.33333333 -0.33333333       0.074

 position of ions in fractional coordinates (direct lattice)
   0.00000000  0.00000000  0.00000000
   0.25000000  0.25000000  0.25000000

 position of ions in cartesian coordinates  (Angst):
   0.00000000  0.00000000  0.00000000
   1.35891303  1.35891303  1.35891303



--------------------------------------------------------------------------------------------------------


 k-point   1 :   0.0000 0.0000 0.0000  plane waves:    1687
 k-point   2 :   0.3333 0.0000 0.0000  plane waves:    1688
 k-point   3 :   0.0000 0.3333 0.0000  plane waves:    1688
 k-point   4 :   0.0000 0.0000 0.3333  plane waves:    1688
 k-point   5 :   0.3333 0.3333 0.3333  plane waves:    1688
 k-point   6 :   0.3333 0.3333 0.0000  plane waves:    1680
 k-point   7 :   0.0000 0.3333 0.3333  plane waves:    1680
 k-point   8 :   0.3333 0.0000 0.3333  plane waves:    1680
 k-point   9 :  -0.3333 0.3333 0.0000  plane waves:    1700
 k-point  10 :   0.0000-0.3333 0.3333  plane waves:    1700
 k-point  11 :   0.3333 0.0000-0.3333  plane waves:    1700
 k-point  12 :   0.3333 0.3333-0.3333  plane waves:    1700
 k-point  13 :  -0.3333 0.3333-0.3333  plane waves:    1700
 k-point  14 :   0.3333-0.3333-0.3333  plane waves:    1700

 maximum and minimum number of plane-waves per node :        96       66

 maximum number of plane-waves:      1700
 maximum index in each direction:
   IXMAX=    8   IYMAX=    8   IZMAX=    8
   IXMIN=   -8   IYMIN=   -8   IZMIN=   -8


 parallel 3D FFT for wavefunctions:
    minimum data exchange during FFTs selected (reduces bandwidth)
 parallel 3D FFT for charge:
    minimum data exchange during FFTs selected (reduces bandwidth)


 total amount of memory used by VASP MPI-rank0    31031. kBytes
=======================================================================

   base      :      30000. kBytes
   nonl-proj :         77. kBytes
   fftplans  :        276. kBytes
   grid      :        590. kBytes
   one-center:          6. kBytes
   wavefun   :         82. kBytes

     INWAV:  cpu time      0.0000: real time      0.0000
 Broyden mixing: mesh for mixing (old mesh)
   NGX = 17   NGY = 17   NGZ = 17
  (NGX  = 72   NGY  = 72   NGZ  = 72)
  gives a total of   4913 points

 initial charge density was supplied:
 charge density of overlapping atoms calculated
 number of electron       8.0000000 magnetization       0.0000000
 keeping initial charge density in first step


--------------------------------------------------------------------------------------------------------


 Maximum index for augmentation-charges         1261 (set IRDMAX)


--------------------------------------------------------------------------------------------------------


 First call to EWALD:  gamma=   0.518
 Maximum number of real-space cells 3x 3x 3
 Maximum number of reciprocal cells 3x 3x 3

    FEWALD:  cpu time      0.0014: real time      0.0014


--------------------------------------- Iteration      1(   1)  ---------------------------------------


    POTLOK:  cpu time      0.0230: real time      0.0231
    SETDIJ:  cpu time      0.4867: real time      0.4869
     EDDAV:  cpu time      0.1403: real time      0.1408
 BZINTS: Fermi energy:   10.280386;    8.000000 electrons
         Band energy: 0.233942E+02;  BLOECHL correction:   -0.463955
       DOS:  cpu time      0.0082: real time      0.0082
    --------------------------------------------
      LOOP:  cpu time      0.6582: real time      0.6590

 eigenvalue-minimisations  :   448
 total energy-change (2. order) : 0.9635808E+01  (-0.3916678E+03)
 number of electron       8.0000000 magnetization       0.0000000
 augmentation part        8.0000000 magnetization       0.0000000

 Free energy of the ion-electron system (eV)
  ---------------------------------------------------
  alpha Z        PSCENC =         3.35366378
  Ewald energy   TEWEN  =      -228.32585848
  -Hartree energ DENC   =       -11.04797219
  -exchange      EXHF   =         0.00000000
  -V(xc)+E(xc)   XCENC  =       -17.46635512
  PAW double counting   =       174.95707044     -140.38057629
  entropy T*S    EENTRO =         0.00000000
  eigenvalues    EBANDS =        23.39421069
  atomic energy  EATOM  =       205.15162554
  Solvation  Ediel_sol  =         0.00000000
  ---------------------------------------------------
  free energy    TOTEN  =         9.63580837 eV

  energy without entropy =        9.63580837  energy(sigma->0) =        9.63580837


--------------------------------------------------------------------------------------------------------




--------------------------------------- Iteration      1(   2)  ---------------------------------------


     EDDAV:  cpu time      0.2016: real time      0.2071
 BZINTS: Fermi energy:    5.288833;    8.000000 electrons
         Band energy: 0.299384E+01;  BLOECHL correction:   -0.000000
       DOS:  cpu time      0.0049: real time      0.0050
    --------------------------------------------
      LOOP:  cpu time      0.2065: real time      0.2120

 eigenvalue-minimisations  :   656
 total energy-change (2. order) :-0.2040037E+02  (-0.2027667E+02)
 number of electron       8.0000000 magnetization       0.0000000
 augmentation part        8.0000000 magnetization       0.0000000

 Free energy of the ion-electron system (eV)
  ---------------------------------------------------
  alpha Z        PSCENC =         3.35366378
  Ewald energy   TEWEN  =      -228.32585848
  -Hartree energ DENC   =       -11.04797219
  -exchange      EXHF   =         0.00000000
  -V(xc)+E(xc)   XCENC  =       -17.46635512
  PAW double counting   =       174.95707044     -140.38057629
  entropy T*S    EENTRO =         0.00000000
  eigenvalues    EBANDS =         2.99383888
  atomic energy  EATOM  =       205.15162554
  Solvation  Ediel_sol  =         0.00000000
  ---------------------------------------------------
  free energy    TOTEN  =       -10.76456344 eV

  energy without entropy =      -10.76456344  energy(sigma->0) =      -10.76456344


--------------------------------------------------------------------------------------------------------




--------------------------------------- Iteration      1(   3)  ---------------------------------------


     EDDAV:  cpu time      0.1678: real time      0.1679
 BZINTS: Fermi energy:    5.214899;    8.000000 electrons
         Band energy: 0.261257E+01;  BLOECHL correction:    0.000000
       DOS:  cpu time      0.0049: real time      0.0049
    --------------------------------------------
      LOOP:  cpu time      0.1727: real time      0.1728

 eigenvalue-minimisations  :   584
 total energy-change (2. order) :-0.3812658E+00  (-0.3812658E+00)
 number of electron       8.0000000 magnetization       0.0000000
 augmentation part        8.0000000 magnetization       0.0000000

 Free energy of the ion-electron system (eV)
  ---------------------------------------------------
  alpha Z        PSCENC =         3.35366378
  Ewald energy   TEWEN  =      -228.32585848
  -Hartree energ DENC   =       -11.04797219
  -exchange      EXHF   =         0.00000000
  -V(xc)+E(xc)   XCENC  =       -17.46635512
  PAW double counting   =       174.95707044     -140.38057629
  entropy T*S    EENTRO =         0.00000000
  eigenvalues    EBANDS =         2.61257304
  atomic energy  EATOM  =       205.15162554
  Solvation  Ediel_sol  =         0.00000000
  ---------------------------------------------------
  free energy    TOTEN  =       -11.14582928 eV

  energy without entropy =      -11.14582928  energy(sigma->0) =      -11.14582928


--------------------------------------------------------------------------------------------------------




--------------------------------------- Iteration      1(   4)  ---------------------------------------


     EDDAV:  cpu time      0.2158: real time      0.2160
 BZINTS: Fermi energy:    5.214319;    8.000000 electrons
         Band energy: 0.261073E+01;  BLOECHL correction:    0.000000
       DOS:  cpu time      0.0051: real time      0.0051
    --------------------------------------------
      LOOP:  cpu time      0.2208: real time      0.2211

 eigenvalue-minimisations  :   752
 total energy-change (2. order) :-0.1839534E-02  (-0.1839534E-02)
 number of electron       8.0000000 magnetization       0.0000000
 augmentation part        8.0000000 magnetization       0.0000000

 Free energy of the ion-electron system (eV)
  ---------------------------------------------------
  alpha Z        PSCENC =         3.35366378
  Ewald energy   TEWEN  =      -228.32585848
  -Hartree energ DENC   =       -11.04797219
  -exchange      EXHF   =         0.00000000
  -V(xc)+E(xc)   XCENC  =       -17.46635512
  PAW double counting   =       174.95707044     -140.38057629
  entropy T*S    EENTRO =         0.00000000
  eigenvalues    EBANDS =         2.61073351
  atomic energy  EATOM  =       205.15162554
  Solvation  Ediel_sol  =         0.00000000
  ---------------------------------------------------
  free energy    TOTEN  =       -11.14766881 eV

  energy without entropy =      -11.14766881  energy(sigma->0) =      -11.14766881


--------------------------------------------------------------------------------------------------------




--------------------------------------- Iteration      1(   5)  ---------------------------------------


     EDDAV:  cpu time      0.1690: real time      0.1691
 BZINTS: Fermi energy:    5.214000;    8.000000 electrons
         Band energy: 0.261073E+01;  BLOECHL correction:   -0.000000
       DOS:  cpu time      0.0049: real time      0.0049
    CHARGE:  cpu time      0.0119: real time      0.0119
    MIXING:  cpu time      0.0015: real time      0.0018
    --------------------------------------------
      LOOP:  cpu time      0.1873: real time      0.1877

 eigenvalue-minimisations  :   592
 total energy-change (2. order) :-0.2808959E-05  (-0.2792510E-05)
 number of electron       8.0000000 magnetization      -0.0000000
 augmentation part       -0.4576011 magnetization       0.0000001

 Broyden mixing:
  rms(total) = 0.51862E+00    rms(broyden)= 0.51862E+00
  rms(prec ) = 0.10486E+01
  weight for this iteration     100.00

 Free energy of the ion-electron system (eV)
  ---------------------------------------------------
  alpha Z        PSCENC =         3.35366378
  Ewald energy   TEWEN  =      -228.32585848
  -Hartree energ DENC   =       -11.04797219
  -exchange      EXHF   =         0.00000000
  -V(xc)+E(xc)   XCENC  =       -17.46635512
  PAW double counting   =       174.95707044     -140.38057629
  entropy T*S    EENTRO =         0.00000000
  eigenvalues    EBANDS =         2.61073070
  atomic energy  EATOM  =       205.15162554
  Solvation  Ediel_sol  =         0.00000000
  ---------------------------------------------------
  free energy    TOTEN  =       -11.14767162 eV

  energy without entropy =      -11.14767162  energy(sigma->0) =      -11.14767162


--------------------------------------------------------------------------------------------------------




--------------------------------------- Iteration      1(   6)  ---------------------------------------


    POTLOK:  cpu time      0.0223: real time      0.0223
    SETDIJ:  cpu time      0.5807: real time      0.5808
     EDDAV:  cpu time      0.1704: real time      0.1706
 BZINTS: Fermi energy:    5.490570;    8.000000 electrons
         Band energy: 0.436942E+01;  BLOECHL correction:   -0.000000
       DOS:  cpu time      0.0049: real time      0.0049
    CHARGE:  cpu time      0.0114: real time      0.0114
    MIXING:  cpu time      0.0007: real time      0.0008
    --------------------------------------------
      LOOP:  cpu time      0.7904: real time      0.7908

 eigenvalue-minimisations  :   592
 total energy-change (2. order) : 0.2046758E+00  (-0.1249207E-01)
 number of electron       8.0000000 magnetization       0.0000000
 augmentation part       -0.4509453 magnetization      -0.0000087

 Broyden mixing:
  rms(total) = 0.31341E+00    rms(broyden)= 0.31341E+00
  rms(prec ) = 0.61460E+00
  weight for this iteration     100.00

 eigenvalues of (default mixing * dielectric matrix)
  average eigenvalue GAMMA=   2.5155
  2.5155

 Free energy of the ion-electron system (eV)
  ---------------------------------------------------
  alpha Z        PSCENC =         3.35366378
  Ewald energy   TEWEN  =      -228.32585848
  -Hartree energ DENC   =       -12.74788924
  -exchange      EXHF   =         0.00000000
  -V(xc)+E(xc)   XCENC  =       -17.20920083
  PAW double counting   =       388.37949844     -353.91425630
  entropy T*S    EENTRO =         0.00000000
  eigenvalues    EBANDS =         4.36942123
  atomic energy  EATOM  =       205.15162554
  Solvation  Ediel_sol  =         0.00000000
  ---------------------------------------------------
  free energy    TOTEN  =       -10.94299586 eV

  energy without entropy =      -10.94299586  energy(sigma->0) =      -10.94299586


--------------------------------------------------------------------------------------------------------




--------------------------------------- Iteration      1(   7)  ---------------------------------------


    POTLOK:  cpu time      0.0224: real time      0.0224
    SETDIJ:  cpu time      0.5841: real time      0.5842
     EDDAV:  cpu time      0.1669: real time      0.1669
 BZINTS: Fermi energy:    5.885400;    8.000000 electrons
         Band energy: 0.688842E+01;  BLOECHL correction:    0.000000
       DOS:  cpu time      0.0050: real time      0.0050
    CHARGE:  cpu time      0.0117: real time      0.0117
    MIXING:  cpu time      0.0005: real time      0.0005
    --------------------------------------------
      LOOP:  cpu time      0.7905: real time      0.7907

 eigenvalue-minimisations  :   544
 total energy-change (2. order) : 0.9274237E-01  (-0.2258057E-01)
 number of electron       8.0000000 magnetization      -0.0000000
 augmentation part       -0.4428326 magnetization       0.0000243

 Broyden mixing:
  rms(total) = 0.22563E-01    rms(broyden)= 0.22563E-01
  rms(prec ) = 0.48467E-01
  weight for this iteration     100.00

 eigenvalues of (default mixing * dielectric matrix)
  average eigenvalue GAMMA=   2.1420
  2.0719  2.2120

 Free energy of the ion-electron system (eV)
  ---------------------------------------------------
  alpha Z        PSCENC =         3.35366378
  Ewald energy   TEWEN  =      -228.32585848
  -Hartree energ DENC   =       -15.46100991
  -exchange      EXHF   =         0.00000000
  -V(xc)+E(xc)   XCENC  =       -16.77676342
  PAW double counting   =       886.56108592     -852.24141528
  entropy T*S    EENTRO =         0.00000000
  eigenvalues    EBANDS =         6.88841836
  atomic energy  EATOM  =       205.15162554
  Solvation  Ediel_sol  =         0.00000000
  ---------------------------------------------------
  free energy    TOTEN  =       -10.85025349 eV

  energy without entropy =      -10.85025349  energy(sigma->0) =      -10.85025349


--------------------------------------------------------------------------------------------------------




--------------------------------------- Iteration      1(   8)  ---------------------------------------


    POTLOK:  cpu time      0.0225: real time      0.0245
    SETDIJ:  cpu time      0.5864: real time      0.5865
     EDDAV:  cpu time      0.1515: real time      0.1515
 BZINTS: Fermi energy:    5.868362;    8.000000 electrons
         Band energy: 0.678680E+01;  BLOECHL correction:    0.000000
       DOS:  cpu time      0.0049: real time      0.0049
    CHARGE:  cpu time      0.0112: real time      0.0112
    MIXING:  cpu time      0.0005: real time      0.0005
    --------------------------------------------
      LOOP:  cpu time      0.7769: real time      0.7792

 eigenvalue-minimisations  :   528
 total energy-change (2. order) :-0.1360472E-02  (-0.5824602E-03)
 number of electron       8.0000000 magnetization       0.0000000
 augmentation part       -0.4441490 magnetization       0.0000095

 Broyden mixing:
  rms(total) = 0.72780E-02    rms(broyden)= 0.72780E-02
  rms(prec ) = 0.12667E-01
  weight for this iteration     100.00

 eigenvalues of (default mixing * dielectric matrix)
  average eigenvalue GAMMA=   1.9105
  1.4321  2.4070  1.8923

 Free energy of the ion-electron system (eV)
  ---------------------------------------------------
  alpha Z        PSCENC =         3.35366378
  Ewald energy   TEWEN  =      -228.32585848
  -Hartree energ DENC   =       -15.38757655
  -exchange      EXHF   =         0.00000000
  -V(xc)+E(xc)   XCENC  =       -16.77162555
  PAW double counting   =       905.37068720     -871.02933291
  entropy T*S    EENTRO =         0.00000000
  eigenvalues    EBANDS =         6.78680300
  atomic energy  EATOM  =       205.15162554
  Solvation  Ediel_sol  =         0.00000000
  ---------------------------------------------------
  free energy    TOTEN  =       -10.85161396 eV

  energy without entropy =      -10.85161396  energy(sigma->0) =      -10.85161396


--------------------------------------------------------------------------------------------------------




--------------------------------------- Iteration      1(   9)  ---------------------------------------


    POTLOK:  cpu time      0.0222: real time      0.0223
    SETDIJ:  cpu time      0.5864: real time      0.5865
     EDDAV:  cpu time      0.2027: real time      0.2028
 BZINTS: Fermi energy:    5.873723;    8.000000 electrons
         Band energy: 0.682460E+01;  BLOECHL correction:    0.000000
       DOS:  cpu time      0.0049: real time      0.0049
    CHARGE:  cpu time      0.0113: real time      0.0113
    MIXING:  cpu time      0.0005: real time      0.0005
    --------------------------------------------
      LOOP:  cpu time      0.8280: real time      0.8283

 eigenvalue-minimisations  :   704
 total energy-change (2. order) :-0.1311692E-03  (-0.1291274E-04)
 number of electron       8.0000000 magnetization       0.0000000
 augmentation part       -0.4442180 magnetization      -0.0000103

 Broyden mixing:
  rms(total) = 0.60410E-02    rms(broyden)= 0.60410E-02
  rms(prec ) = 0.70998E-02
  weight for this iteration     100.00

 eigenvalues of (default mixing * dielectric matrix)
  average eigenvalue GAMMA=   1.9608
  2.8858  2.1884  2.1884  0.5806

 Free energy of the ion-electron system (eV)
  ---------------------------------------------------
  alpha Z        PSCENC =         3.35366378
  Ewald energy   TEWEN  =      -228.32585848
  -Hartree energ DENC   =       -15.43348422
  -exchange      EXHF   =         0.00000000
  -V(xc)+E(xc)   XCENC  =       -16.76325340
  PAW double counting   =       907.26372493     -872.92276659
  entropy T*S    EENTRO =         0.00000000
  eigenvalues    EBANDS =         6.82460331
  atomic energy  EATOM  =       205.15162554
  Solvation  Ediel_sol  =         0.00000000
  ---------------------------------------------------
  free energy    TOTEN  =       -10.85174513 eV

  energy without entropy =      -10.85174513  energy(sigma->0) =      -10.85174513


--------------------------------------------------------------------------------------------------------




--------------------------------------- Iteration      1(  10)  ---------------------------------------


    POTLOK:  cpu time      0.0222: real time      0.0222
    SETDIJ:  cpu time      0.5870: real time      0.5871
     EDDAV:  cpu time      0.1529: real time      0.1530
 BZINTS: Fermi energy:    5.874349;    8.000000 electrons
         Band energy: 0.683263E+01;  BLOECHL correction:   -0.000000
       DOS:  cpu time      0.0050: real time      0.0050
    CHARGE:  cpu time      0.0115: real time      0.0115
    MIXING:  cpu time      0.0005: real time      0.0005
    --------------------------------------------
      LOOP:  cpu time      0.7790: real time      0.7793

 eigenvalue-minimisations  :   528
 total energy-change (2. order) :-0.2712730E-04  (-0.1775239E-05)
 number of electron       8.0000000 magnetization       0.0000000
 augmentation part       -0.4442129 magnetization       0.0000028

 Broyden mixing:
  rms(total) = 0.19343E-02    rms(broyden)= 0.19343E-02
  rms(prec ) = 0.23181E-02
  weight for this iteration     100.00

 eigenvalues of (default mixing * dielectric matrix)
  average eigenvalue GAMMA=   1.8269
  2.9887  2.3208  2.3208  0.8480  0.6561

 Free energy of the ion-electron system (eV)
  ---------------------------------------------------
  alpha Z        PSCENC =         3.35366378
  Ewald energy   TEWEN  =      -228.32585848
  -Hartree energ DENC   =       -15.44276104
  -exchange      EXHF   =         0.00000000
  -V(xc)+E(xc)   XCENC  =       -16.76213335
  PAW double counting   =       900.02676430     -865.68569831
  entropy T*S    EENTRO =         0.00000000
  eigenvalues    EBANDS =         6.83262530
  atomic energy  EATOM  =       205.15162554
  Solvation  Ediel_sol  =         0.00000000
  ---------------------------------------------------
  free energy    TOTEN  =       -10.85177226 eV

  energy without entropy =      -10.85177226  energy(sigma->0) =      -10.85177226


--------------------------------------------------------------------------------------------------------




--------------------------------------- Iteration      1(  11)  ---------------------------------------


    POTLOK:  cpu time      0.0234: real time      0.0248
    SETDIJ:  cpu time      0.5818: real time      0.5819
     EDDAV:  cpu time      0.1805: real time      0.1807
 BZINTS: Fermi energy:    5.874595;    8.000000 electrons
         Band energy: 0.683288E+01;  BLOECHL correction:    0.000000
       DOS:  cpu time      0.0049: real time      0.0049
    CHARGE:  cpu time      0.0114: real time      0.0114
    MIXING:  cpu time      0.0005: real time      0.0005
    --------------------------------------------
      LOOP:  cpu time      0.8026: real time      0.8042

 eigenvalue-minimisations  :   632
 total energy-change (2. order) :-0.2764610E-05  (-0.3336755E-06)
 number of electron       8.0000000 magnetization       0.0000000
 augmentation part       -0.4442240 magnetization       0.0000018

 Broyden mixing:
  rms(total) = 0.55467E-03    rms(broyden)= 0.55467E-03
  rms(prec ) = 0.57744E-03
  weight for this iteration     100.00

 eigenvalues of (default mixing * dielectric matrix)
  average eigenvalue GAMMA=   1.6561
  2.9077  2.4260  2.1843  0.8966  0.8966  0.6251

 Free energy of the ion-electron system (eV)
  ---------------------------------------------------
  alpha Z        PSCENC =         3.35366378
  Ewald energy   TEWEN  =      -228.32585848
  -Hartree energ DENC   =       -15.44338279
  -exchange      EXHF   =         0.00000000
  -V(xc)+E(xc)   XCENC  =       -16.76211467
  PAW double counting   =       897.25609699     -862.91468962
  entropy T*S    EENTRO =         0.00000000
  eigenvalues    EBANDS =         6.83288423
  atomic energy  EATOM  =       205.15162554
  Solvation  Ediel_sol  =         0.00000000
  ---------------------------------------------------
  free energy    TOTEN  =       -10.85177502 eV

  energy without entropy =      -10.85177502  energy(sigma->0) =      -10.85177502


--------------------------------------------------------------------------------------------------------




--------------------------------------- Iteration      1(  12)  ---------------------------------------


    POTLOK:  cpu time      0.0221: real time      0.0221
    SETDIJ:  cpu time      0.5816: real time      0.5817
     EDDAV:  cpu time      0.1933: real time      0.1933
 BZINTS: Fermi energy:    5.874445;    8.000000 electrons
         Band energy: 0.683245E+01;  BLOECHL correction:    0.000000
       DOS:  cpu time      0.0050: real time      0.0050
    --------------------------------------------
      LOOP:  cpu time      0.8019: real time      0.8021

 eigenvalue-minimisations  :   672
 total energy-change (2. order) : 0.7612346E-07  (-0.7114157E-08)
 number of electron       8.0000000 magnetization       0.0000000
 augmentation part       -0.4442240 magnetization       0.0000018

 Free energy of the ion-electron system (eV)
  ---------------------------------------------------
  alpha Z        PSCENC =         3.35366378
  Ewald energy   TEWEN  =      -228.32585848
  -Hartree energ DENC   =       -15.44296900
  -exchange      EXHF   =         0.00000000
  -V(xc)+E(xc)   XCENC  =       -16.76216525
  PAW double counting   =       897.74905764     -863.40757912
  entropy T*S    EENTRO =         0.00000000
  eigenvalues    EBANDS =         6.83244994
  atomic energy  EATOM  =       205.15162554
  Solvation  Ediel_sol  =         0.00000000
  ---------------------------------------------------
  free energy    TOTEN  =       -10.85177495 eV

  energy without entropy =      -10.85177495  energy(sigma->0) =      -10.85177495


--------------------------------------------------------------------------------------------------------




 average (electrostatic) potential at core
  the test charge radii are     0.9892
  (the norm of the test charge is              1.0000)
       1 -82.8952       2 -82.8952



 E-fermi :   5.8744     XC(G=0):  -9.4884     alpha+bet :-11.9472

 Fermi energy:         5.8744448679

 spin component 1

 k-point     1 :       0.0000    0.0000    0.0000
  band No.  band energies     occupation
      1      -6.1238      1.00000
      2       5.8744      1.00000
      3       5.8744      1.00000
      4       5.8744      1.00000
      5       8.3393      0.00000
      6       8.3394      0.00000
      7       8.3394      0.00000
      8       9.1681      0.00000

 k-point     2 :       0.3333    0.0000    0.0000
  band No.  band energies     occupation
      1      -4.7395      1.00000
      2       0.4914      1.00000
      3       4.8593      1.00000
      4       4.8593      1.00000
      5       7.5294      0.00000
      6       9.2688      0.00000
      7       9.2688      0.00000
      8      13.5277      0.00000

 k-point     3 :       0.0000    0.3333    0.0000
  band No.  band energies     occupation
      1      -4.7395      1.00000
      2       0.4914      1.00000
      3       4.8593      1.00000
      4       4.8593      1.00000
      5       7.5294      0.00000
      6       9.2688      0.00000
      7       9.2688      0.00000
      8      13.5277      0.00000

 k-point     4 :       0.0000    0.0000    0.3333
  band No.  band energies     occupation
      1      -4.7395      1.00000
      2       0.4914      1.00000
      3       4.8593      1.00000
      4       4.8593      1.00000
      5       7.5294      0.00000
      6       9.2688      0.00000
      7       9.2688      0.00000
      8      13.5277      0.00000

 k-point     5 :       0.3333    0.3333    0.3333
  band No.  band energies     occupation
      1      -4.7395      1.00000
      2       0.4914      1.00000
      3       4.8593      1.00000
      4       4.8593      1.00000
      5       7.5294      0.00000
      6       9.2688      0.00000
      7       9.2688      0.00000
      8      13.5277      0.00000

 k-point     6 :       0.3333    0.3333    0.0000
  band No.  band energies     occupation
      1      -4.2121      1.00000
      2       0.8542      1.00000
      3       3.4168      1.00000
      4       3.4168      1.00000
      5       6.4435      0.00000
      6       7.6878      0.00000
      7      13.0647      0.00000
      8      13.0647      0.00000

 k-point     7 :       0.0000    0.3333    0.3333
  band No.  band energies     occupation
      1      -4.2121      1.00000
      2       0.8542      1.00000
      3       3.4168      1.00000
      4       3.4168      1.00000
      5       6.4435      0.00000
      6       7.6878      0.00000
      7      13.0647      0.00000
      8      13.0647      0.00000

 k-point     8 :       0.3333    0.0000    0.3333
  band No.  band energies     occupation
      1      -4.2121      1.00000
      2       0.8542      1.00000
      3       3.4168      1.00000
      4       3.4168      1.00000
      5       6.4435      0.00000
      6       7.6878      0.00000
      7      13.0647      0.00000
      8      13.0647      0.00000

 k-point     9 :      -0.3333    0.3333    0.0000
  band No.  band energies     occupation
      1      -2.8369      1.00000
      2      -0.9169      1.00000
      3       1.3680      1.00000
      4       3.7292      1.00000
      5       7.2804      0.00000
      6      11.5467      0.00000
      7      12.2519      0.00000
      8      12.8614      0.00000

 k-point    10 :       0.0000   -0.3333    0.3333
  band No.  band energies     occupation
      1      -2.8369      1.00000
      2      -0.9169      1.00000
      3       1.3680      1.00000
      4       3.7292      1.00000
      5       7.2804      0.00000
      6      11.5467      0.00000
      7      12.2519      0.00000
      8      12.8614      0.00000

 k-point    11 :       0.3333    0.0000   -0.3333
  band No.  band energies     occupation
      1      -2.8369      1.00000
      2      -0.9169      1.00000
      3       1.3680      1.00000
      4       3.7292      1.00000
      5       7.2804      0.00000
      6      11.5467      0.00000
      7      12.2519      0.00000
      8      12.8614      0.00000

 k-point    12 :       0.3333    0.3333   -0.3333
  band No.  band energies     occupation
      1      -2.8369      1.00000
      2      -0.9169      1.00000
      3       1.3680      1.00000
      4       3.7292      1.00000
      5       7.2804      0.00000
      6      11.5467      0.00000
      7      12.2519      0.00000
      8      12.8614      0.00000

 k-point    13 :      -0.3333    0.3333   -0.3333
  band No.  band energies     occupation
      1      -2.8369      1.00000
      2      -0.9169      1.00000
      3       1.3680      1.00000
      4       3.7292      1.00000
      5       7.2804      0.00000
      6      11.5467      0.00000
      7      12.2519      0.00000
      8      12.8614      0.00000

 k-point    14 :       0.3333   -0.3333   -0.3333
  band No.  band energies     occupation
      1      -2.8369      1.00000
      2      -0.9169      1.00000
      3       1.3680      1.00000
      4       3.7292      1.00000
      5       7.2804      0.00000
      6      11.5467      0.00000
      7      12.2519      0.00000
      8      12.8614      0.00000
 Fermi energy:         5.8744448679

 spin component 2

 k-point     1 :       0.0000    0.0000    0.0000
  band No.  band energies     occupation
      1      -6.1238      1.00000
      2       5.8744      1.00000
      3       5.8744      1.00000
      4       5.8744      1.00000
      5       8.3393      0.00000
      6       8.3393      0.00000
      7       8.3393      0.00000
      8       9.1681      0.00000

 k-point     2 :       0.3333    0.0000    0.0000
  band No.  band energies     occupation
      1      -4.7395      1.00000
      2       0.4914      1.00000
      3       4.8593      1.00000
      4       4.8593      1.00000
      5       7.5294      0.00000
      6       9.2688      0.00000
      7       9.2688      0.00000
      8      13.5277      0.00000

 k-point     3 :       0.0000    0.3333    0.0000
  band No.  band energies     occupation
      1      -4.7395      1.00000
      2       0.4914      1.00000
      3       4.8593      1.00000
      4       4.8593      1.00000
      5       7.5294      0.00000
      6       9.2688      0.00000
      7       9.2688      0.00000
      8      13.5277      0.00000

 k-point     4 :       0.0000    0.0000    0.3333
  band No.  band energies     occupation
      1      -4.7395      1.00000
      2       0.4914      1.00000
      3       4.8593      1.00000
      4       4.8593      1.00000
      5       7.5294      0.00000
      6       9.2688      0.00000
      7       9.2688      0.00000
      8      13.5277      0.00000

 k-point     5 :       0.3333    0.3333    0.3333
  band No.  band energies     occupation
      1      -4.7395      1.00000
      2       0.4914      1.00000
      3       4.8593      1.00000
      4       4.8593      1.00000
      5       7.5294      0.00000
      6       9.2688      0.00000
      7       9.2688      0.00000
      8      13.5277      0.00000

 k-point     6 :       0.3333    0.3333    0.0000
  band No.  band energies     occupation
      1      -4.2121      1.00000
      2       0.8542      1.00000
      3       3.4168      1.00000
      4       3.4168      1.00000
      5       6.4435      0.00000
      6       7.6878      0.00000
      7      13.0647      0.00000
      8      13.0647      0.00000

 k-point     7 :       0.0000    0.3333    0.3333
  band No.  band energies     occupation
      1      -4.2121      1.00000
      2       0.8542      1.00000
      3       3.4168      1.00000
      4       3.4168      1.00000
      5       6.4435      0.00000
      6       7.6878      0.00000
      7      13.0647      0.00000
      8      13.0647      0.00000

 k-point     8 :       0.3333    0.0000    0.3333
  band No.  band energies     occupation
      1      -4.2121      1.00000
      2       0.8542      1.00000
      3       3.4168      1.00000
      4       3.4168      1.00000
      5       6.4435      0.00000
      6       7.6878      0.00000
      7      13.0647      0.00000
      8      13.0647      0.00000

 k-point     9 :      -0.3333    0.3333    0.0000
  band No.  band energies     occupation
      1      -2.8369      1.00000
      2      -0.9169      1.00000
      3       1.3680      1.00000
      4       3.7292      1.00000
      5       7.2804      0.00000
      6      11.5467      0.00000
      7      12.2519      0.00000
      8      12.8614      0.00000

 k-point    10 :       0.0000   -0.3333    0.3333
  band No.  band energies     occupation
      1      -2.8369      1.00000
      2      -0.9169      1.00000
      3       1.3680      1.00000
      4       3.7292      1.00000
      5       7.2804      0.00000
      6      11.5467      0.00000
      7      12.2519      0.00000
      8      12.8614      0.00000

 k-point    11 :       0.3333    0.0000   -0.3333
  band No.  band energies     occupation
      1      -2.8369      1.00000
      2      -0.9169      1.00000
      3       1.3680      1.00000
      4       3.7292      1.00000
      5       7.2804      0.00000
      6      11.5467      0.00000
      7      12.2519      0.00000
      8      12.8614      0.00000

 k-point    12 :       0.3333    0.3333   -0.3333
  band No.  band energies     occupation
      1      -2.8369      1.00000
      2      -0.9169      1.00000
      3       1.3680      1.00000
      4       3.7292      1.00000
      5       7.2804      0.00000
      6      11.5468      0.00000
      7      12.2519      0.00000
      8      12.8614      0.00000

 k-point    13 :      -0.3333    0.3333   -0.3333
  band No.  band energies     occupation
      1      -2.8369      1.00000
      2      -0.9169      1.00000
      3       1.3680      1.00000
      4       3.7292      1.00000
      5       7.2804      0.00000
      6      11.5467      0.00000
      7      12.2519      0.00000
      8      12.8614      0.00000

 k-point    14 :       0.3333   -0.3333   -0.3333
  band No.  band energies     occupation
      1      -2.8369      1.00000
      2      -0.9169      1.00000
      3       1.3680      1.00000
      4       3.7292      1.00000
      5       7.2804      0.00000
      6      11.5467      0.00000
      7      12.2519      0.00000
      8      12.8614      0.00000


--------------------------------------------------------------------------------------------------------


 soft charge-density along one line, spin component           1
         0         1         2         3         4         5         6         7         8         9
 total charge-density along one line

 soft charge-density along one line, spin component           2
         0         1         2         3         4         5         6         7         8         9
 total charge-density along one line

 pseudopotential strength for first ion, spin component:           1
 18.390  25.656   0.000  -0.000  -0.000   0.000  -0.000  -0.000
 25.656  35.797   0.000  -0.000  -0.000   0.000  -0.000  -0.000
  0.000   0.000   4.176  -0.000   0.000   7.780  -0.000   0.000
 -0.000  -0.000  -0.000   4.176  -0.000  -0.000   7.780  -0.000
 -0.000  -0.000   0.000  -0.000   4.176   0.000  -0.000   7.780
  0.000   0.000   7.780  -0.000   0.000  14.505  -0.000   0.000
 -0.000  -0.000  -0.000   7.780  -0.000  -0.000  14.505  -0.000
 -0.000  -0.000   0.000  -0.000   7.780   0.000  -0.000  14.505
 pseudopotential strength for first ion, spin component:           2
 18.390  25.656   0.000  -0.000  -0.000   0.000  -0.000  -0.000
 25.656  35.797   0.000  -0.000  -0.000   0.000  -0.000  -0.000
  0.000   0.000   4.176   0.000   0.000   7.780   0.000   0.000
 -0.000  -0.000   0.000   4.176   0.000   0.000   7.780   0.000
 -0.000  -0.000   0.000   0.000   4.176   0.000   0.000   7.780
  0.000   0.000   7.780   0.000   0.000  14.505   0.000   0.000
 -0.000  -0.000   0.000   7.780   0.000   0.000  14.505   0.000
 -0.000  -0.000   0.000   0.000   7.780   0.000   0.000  14.505
 total augmentation occupancy for first ion, spin component:           1
  6.006  -2.318  -0.000  -0.000   0.000   0.000   0.000  -0.000
 -2.318   0.961   0.000   0.000  -0.000  -0.000  -0.000   0.000
 -0.000   0.000   3.006   0.000   0.000  -0.663  -0.000  -0.000
 -0.000   0.000   0.000   3.006  -0.000  -0.000  -0.663   0.000
  0.000  -0.000   0.000  -0.000   3.006   0.000   0.000  -0.663
  0.000  -0.000  -0.663  -0.000   0.000   0.157   0.000   0.000
  0.000  -0.000  -0.000  -0.663   0.000   0.000   0.157  -0.000
 -0.000   0.000  -0.000   0.000  -0.663   0.000  -0.000   0.157
 total augmentation occupancy for first ion, spin component:           2
 -0.000   0.000  -0.000  -0.000  -0.000   0.000   0.000   0.000
  0.000  -0.000   0.000   0.000   0.000  -0.000  -0.000  -0.000
 -0.000   0.000   0.000  -0.000   0.000  -0.000   0.000  -0.000
 -0.000   0.000  -0.000   0.000   0.000   0.000  -0.000  -0.000
 -0.000   0.000   0.000   0.000   0.000  -0.000  -0.000  -0.000
  0.000  -0.000  -0.000   0.000  -0.000   0.000  -0.000   0.000
  0.000  -0.000   0.000  -0.000  -0.000  -0.000   0.000   0.000
  0.000  -0.000  -0.000  -0.000  -0.000   0.000   0.000   0.000


------------------------ aborting loop because EDIFF is reached ----------------------------------------





 total charge

# of ion       s       p       d       tot
------------------------------------------
    1        0.718   0.982   0.000   1.700
    2        0.718   0.982   0.000   1.700
--------------------------------------------------
tot          1.436   1.964   0.000   3.400



 magnetization (x)

# of ion       s       p       d       tot
------------------------------------------
    1       -0.000  -0.000   0.000  -0.000
    2       -0.000  -0.000   0.000  -0.000
--------------------------------------------------
tot         -0.000  -0.000   0.000  -0.000

    CHARGE:  cpu time      0.0111: real time      0.0111
    FORLOC:  cpu time      0.0002: real time      0.0002
    FORNL :  cpu time      0.0154: real time      0.0154
    STRESS:  cpu time      0.0545: real time      0.0546
    FORCOR:  cpu time      0.0203: real time      0.0203
    FORHAR:  cpu time      0.0025: real time      0.0026
    MIXING:  cpu time      0.0006: real time      0.0006
    OFIELD:  cpu time      0.0001: real time      0.0002

  FORCE on cell =-STRESS in cart. coord.  units (eV):
  Direction    XX          YY          ZZ          XY          YZ          ZX
  --------------------------------------------------------------------------------------
  Alpha Z     3.35366     3.35366     3.35366
  Ewald     -76.10865   -76.10865   -76.10865    -0.00000     0.00000    -0.00000
  Hartree     5.14784     5.14784     5.14784    -0.00001    -0.00001     0.00000
  E(xc)     -25.65666   -25.65666   -25.65666    -0.00000     0.00000     0.00000
  Local     -29.51794   -29.51795   -29.51794     0.00003     0.00003     0.00000
  n-local    76.79463    76.79463    76.79463    -0.00000    -0.00001    -0.00000
  augment   -11.16917   -11.16917   -11.16917    -0.00000    -0.00000    -0.00000
  Kinetic    57.66174    57.66174    57.66174     0.00002     0.00001    -0.00000
  Fock        0.00000     0.00000     0.00000     0.00000     0.00000     0.00000
  -------------------------------------------------------------------------------------
  Total       0.50544     0.50544     0.50544     0.00003     0.00003    -0.00000
  in kB      20.16916    20.16915    20.16914     0.00134     0.00125    -0.00006
  external pressure =       20.17 kB  Pullay stress =        0.00 kB


 VOLUME and BASIS-vectors are now :
 -----------------------------------------------------------------------------
  energy-cutoff  :      700.00
  volume of cell :       40.15
      direct lattice vectors                 reciprocal lattice vectors
    -0.000000000  2.717826068  2.717826068    -0.183970566  0.183970566  0.183970566
     2.717826068 -0.000000000  2.717826068     0.183970566 -0.183970566  0.183970566
     2.717826068  2.717826068  0.000000000     0.183970566  0.183970566 -0.183970566

  length of vectors
     3.843586486  3.843586486  3.843586486     0.318646367  0.318646367  0.318646367


 FORCES acting on ions
    electron-ion (+dipol)            ewald-force                    non-local-force                 convergence-correction
 -----------------------------------------------------------------------------------------------
   -.115E-03 0.279E-04 -.798E-04   -.557E-15 0.103E-14 -.107E-14   0.821E-04 -.226E-04 0.561E-04   0.314E-04 -.524E-05 0.255E-04
   0.150E-04 0.941E-05 0.835E-04   0.234E-15 -.634E-15 0.124E-14   -.430E-05 -.886E-05 -.633E-04   -.109E-04 -.818E-06 -.229E-04
 -----------------------------------------------------------------------------------------------
   -.997E-04 0.373E-04 0.371E-05   -.323E-15 0.399E-15 0.173E-15   0.778E-04 -.314E-04 -.725E-05   0.205E-04 -.605E-05 0.267E-05


 POSITION                                       TOTAL-FORCE (eV/Angst)
 -----------------------------------------------------------------------------------
      0.00000      0.00000      0.00000        -0.000001      0.000000      0.000002
      1.35891      1.35891      1.35891         0.000001     -0.000000     -0.000002
 -----------------------------------------------------------------------------------
    total drift:                               -0.000001     -0.000000     -0.000001


--------------------------------------------------------------------------------------------------------



  FREE ENERGIE OF THE ION-ELECTRON SYSTEM (eV)
  ---------------------------------------------------
  free  energy   TOTEN  =       -10.85177495 eV

  energy  without entropy=      -10.85177495  energy(sigma->0) =      -10.85177495



--------------------------------------------------------------------------------------------------------


    POTLOK:  cpu time      0.6063: real time      0.6065


--------------------------------------------------------------------------------------------------------




--------------------------------------------------------------------------------------------------------



 reached required accuracy - stopping structural energy minimisation
 writing wavefunctions
     LOOP+:  cpu time      8.3589: real time      8.3789
    4ORBIT:  cpu time      0.0000: real time      0.0000



 total charge

# of ion       s       p       d       tot
------------------------------------------
    1        0.718   0.982   0.000   1.700
    2        0.718   0.982   0.000   1.700
--------------------------------------------------
tot          1.436   1.964   0.000   3.400



 magnetization (x)

# of ion       s       p       d       tot
------------------------------------------
    1       -0.000  -0.000   0.000  -0.000
    2       -0.000  -0.000   0.000  -0.000
--------------------------------------------------
tot         -0.000  -0.000   0.000  -0.000

 BZINTS: Fermi energy:    5.874445;    8.000000 electrons
         Band energy: 0.683245E+01;  BLOECHL correction:    0.000000

 total amount of memory used by VASP MPI-rank0    31031. kBytes
=======================================================================

   base      :      30000. kBytes
   nonl-proj :         77. kBytes
   fftplans  :        276. kBytes
   grid      :        590. kBytes
   one-center:          6. kBytes
   wavefun   :         82. kBytes



 General timing and accounting informations for this job:
 ========================================================

                  Total CPU time used (sec):       12.201
                            User time (sec):       11.843
                          System time (sec):        0.358
                         Elapsed time (sec):       12.575

                   Maximum memory used (kb):      188804.
                   Average memory used (kb):          N/A

                          Minor page faults:        34944
                          Major page faults:            0
                 Voluntary context switches:         1547
