<?xml version="1.0" encoding="ISO-8859-1"?>
<modeling>
 <generator>
  <i name="program" type="string">vasp </i>
  <i name="version" type="string">6.3.1  </i>
  <i name="subversion" type="string">04May22 (build May  6 2022 16:02:18) complex                          parallel </i>
  <i name="platform" type="string">LinuxGNU </i>
  <i name="date" type="string">2023 02 28 </i>
  <i name="time" type="string">11:57:07 </i>
 </generator>
 <incar>
  <i type="string" name="PREC">Accurate</i>
  <i type="string" name="ALGO">Normal</i>
  <i type="int" name="ISPIN">     2</i>
  <i type="int" name="NELM">   200</i>
  <i type="int" name="IBRION">     2</i>
  <i name="EDIFF">      0.00000010</i>
  <i name="EDIFFG">     -0.02000000</i>
  <i type="int" name="NSW">    99</i>
  <i type="int" name="ISIF">     2</i>
  <i type="int" name="ISYM">     0</i>
  <i name="ENCUT">    700.00000000</i>
  <i name="ENAUG">   1360.00000000</i>
  <i type="int" name="NBANDS">     8</i>
  <v name="MAGMOM">      0.00000000      0.00000000</v>
  <i type="logical" name="LREAL"> F  </i>
  <i type="int" name="ISMEAR">    -5</i>
  <i name="SIGMA">      0.05000000</i>
  <i type="logical" name="LWAVE"> T  </i>
  <i type="logical" name="LCHARG"> F  </i>
  <i type="logical" name="LVTOT"> T  </i>
  <i type="int" name="LORBIT">    11</i>
  <i type="logical" name="LELF"> F  </i>
  <i type="logical" name="LASPH"> T  </i>
  <i type="logical" name="LAECHG"> F  </i>
  <i type="string" name="GGA">Ps</i>
  <i type="logical" name="LMIXTAU"> T  </i>
 </incar>
 <primitive_cell>
  <structure name="primitive_cell" >
   <crystal>
    <varray name="basis" >
     <v>      -0.00000000       2.71782607       2.71782607 </v>
     <v>       2.71782607      -0.00000000       2.71782607 </v>
     <v>       2.71782607       2.71782607       0.00000000 </v>
    </varray>
    <i name="volume">     40.15087140 </i>
    <varray name="rec_basis" >
     <v>      -0.18397057       0.18397057       0.18397057 </v>
     <v>       0.18397057      -0.18397057       0.18397057 </v>
     <v>       0.18397057       0.18397057      -0.18397057 </v>
    </varray>
   </crystal>
   <varray name="positions" >
    <v>       0.00000000       0.00000000       0.00000000 </v>
    <v>       0.25000000       0.25000000       0.25000000 </v>
   </varray>
  </structure>
  <varray name="primitive_index" >
   <v type="int" >        1 </v>
   <v type="int" >        2 </v>
  </varray>
 </primitive_cell>
 <kpoints>
  <generation param="Gamma">
   <v type="int" name="divisions">       3        3        3 </v>
   <v name="usershift">      0.00000000       0.00000000       0.00000000 </v>
   <v name="genvec1">      0.33333333      -0.00000000       0.00000000 </v>
   <v name="genvec2">     -0.00000000       0.33333333      -0.00000000 </v>
   <v name="genvec3">      0.00000000       0.00000000       0.33333333 </v>
   <v name="shift">      0.00000000       0.00000000       0.00000000 </v>
  </generation>
  <varray name="kpointlist" >
   <v>       0.00000000       0.00000000       0.00000000 </v>
   <v>       0.33333333       0.00000000       0.00000000 </v>
   <v>       0.00000000       0.33333333       0.00000000 </v>
   <v>       0.00000000       0.00000000       0.33333333 </v>
   <v>       0.33333333       0.33333333       0.33333333 </v>
   <v>       0.33333333       0.33333333       0.00000000 </v>
   <v>       0.00000000       0.33333333       0.33333333 </v>
   <v>       0.33333333       0.00000000       0.33333333 </v>
   <v>      -0.33333333       0.33333333       0.00000000 </v>
   <v>       0.00000000      -0.33333333       0.33333333 </v>
   <v>       0.33333333       0.00000000      -0.33333333 </v>
   <v>       0.33333333       0.33333333      -0.33333333 </v>
   <v>      -0.33333333       0.33333333      -0.33333333 </v>
   <v>       0.33333333      -0.33333333      -0.33333333 </v>
  </varray>
  <varray name="weights" >
   <v>       0.03703704 </v>
   <v>       0.07407407 </v>
   <v>       0.07407407 </v>
   <v>       0.07407407 </v>
   <v>       0.07407407 </v>
   <v>       0.07407407 </v>
   <v>       0.07407407 </v>
   <v>       0.07407407 </v>
   <v>       0.07407407 </v>
   <v>       0.07407407 </v>
   <v>       0.07407407 </v>
   <v>       0.07407407 </v>
   <v>       0.07407407 </v>
   <v>       0.07407407 </v>
  </varray>
  <varray name="tetrahedronlist"  type="int" >
   <v type="int" >        2        5        5       12       13 </v>
   <v type="int" >        2        5        5       12       14 </v>
   <v type="int" >        2        5        5       13       14 </v>
   <v type="int" >        2        7       10       12       14 </v>
   <v type="int" >        4        7        7       10       14 </v>
   <v type="int" >        2        5        7       12       14 </v>
   <v type="int" >        2        5        7       13       14 </v>
   <v type="int" >        2        7       10       13       14 </v>
   <v type="int" >        4        8        8       11       13 </v>
   <v type="int" >        2        8       11       12       13 </v>
   <v type="int" >        2        5        8       12       13 </v>
   <v type="int" >        2        8       11       13       14 </v>
   <v type="int" >        2        5        8       13       14 </v>
   <v type="int" >        2        4        4       11       12 </v>
   <v type="int" >        2        4        4       10       12 </v>
   <v type="int" >        2        4        7       10       12 </v>
   <v type="int" >        2        4        8       11       12 </v>
   <v type="int" >        2        4        5        8       12 </v>
   <v type="int" >        2        4        5        7       12 </v>
   <v type="int" >        2        4        8       10       11 </v>
   <v type="int" >        2        8       10       11       13 </v>
   <v type="int" >        2       10       11       13       14 </v>
   <v type="int" >        2        4        4       10       11 </v>
   <v type="int" >        2        4        7       10       11 </v>
   <v type="int" >        2        7       10       11       14 </v>
   <v type="int" >        2        5        6       12       14 </v>
   <v type="int" >        2        5        6       12       13 </v>
   <v type="int" >        2        6        9       12       13 </v>
   <v type="int" >        2        6        9       12       14 </v>
   <v type="int" >        4        6        6        9       12 </v>
   <v type="int" >        2        3        5        7       13 </v>
   <v type="int" >        2        3        7       10       13 </v>
   <v type="int" >        2        3        3       10       13 </v>
   <v type="int" >        2        3        5        6       13 </v>
   <v type="int" >        2        3        6        9       13 </v>
   <v type="int" >        2        3        3        9       13 </v>
   <v type="int" >        2        7        9       10       14 </v>
   <v type="int" >        2        9       10       12       14 </v>
   <v type="int" >        2        6        9       10       12 </v>
   <v type="int" >        2        3        7        9       10 </v>
   <v type="int" >        2        3        3        9       10 </v>
   <v type="int" >        2        3        6        9       10 </v>
   <v type="int" >        2        2        8       11       14 </v>
   <v type="int" >        2        2        5        8       14 </v>
   <v type="int" >        2        2        5        6       14 </v>
   <v type="int" >        2        2        2       11       14 </v>
   <v type="int" >        2        2        2        9       14 </v>
   <v type="int" >        2        2        6        9       14 </v>
   <v type="int" >        2        1        4        5        8 </v>
   <v type="int" >        2        1        4        5        7 </v>
   <v type="int" >        2        1        3        5        7 </v>
   <v type="int" >        2        1        2        5        8 </v>
   <v type="int" >        2        1        2        5        6 </v>
   <v type="int" >        2        1        3        5        6 </v>
   <v type="int" >        2        2        4        7       11 </v>
   <v type="int" >        2        2        7       11       14 </v>
   <v type="int" >        2        2        7        9       14 </v>
   <v type="int" >        2        1        2        4        7 </v>
   <v type="int" >        2        1        2        3        7 </v>
   <v type="int" >        2        2        3        7        9 </v>
   <v type="int" >        2        9       11       12       13 </v>
   <v type="int" >        2        8        9       11       13 </v>
   <v type="int" >        2        2        8        9       11 </v>
   <v type="int" >        2        6        9       11       12 </v>
   <v type="int" >        2        2        6        9       11 </v>
   <v type="int" >        2        2        2        9       11 </v>
   <v type="int" >        2        3        8       10       13 </v>
   <v type="int" >        2        3        4        8       10 </v>
   <v type="int" >        2        1        3        4        8 </v>
   <v type="int" >        2        3        8        9       13 </v>
   <v type="int" >        2        2        3        8        9 </v>
   <v type="int" >        2        1        2        3        8 </v>
   <v type="int" >        2        4        6       10       12 </v>
   <v type="int" >        2        4        6       11       12 </v>
   <v type="int" >        2        2        4        6       11 </v>
   <v type="int" >        2        3        4        6       10 </v>
   <v type="int" >        2        1        3        4        6 </v>
   <v type="int" >        2        1        2        4        6 </v>
  </varray>
  <i name="volumeweight">      0.00617284 </i>
 </kpoints>
 <parameters>
  <separator name="general" >
   <i type="string" name="SYSTEM">unknown system</i>
   <i type="logical" name="LCOMPAT"> F  </i>
  </separator>
  <separator name="electronic" >
   <i type="string" name="PREC">accura</i>
   <i name="ENMAX">    700.00000000</i>
   <i name="ENAUG">   1360.00000000</i>
   <i name="EDIFF">      0.00000010</i>
   <i type="int" name="IALGO">    38</i>
   <i type="int" name="IWAVPR">    11</i>
   <i type="int" name="NBANDS">     8</i>
   <i type="int" name="NBANDSLOW">    -1</i>
   <i type="int" name="NBANDSHIGH">    -1</i>
   <i name="NELECT">      8.00000000</i>
   <i type="int" name="TURBO">     0</i>
   <i type="int" name="IRESTART">     0</i>
   <i type="int" name="NREBOOT">     0</i>
   <i type="int" name="NMIN">     0</i>
   <i name="EREF">      0.00000000</i>
   <separator name="electronic smearing" >
    <i type="int" name="ISMEAR">    -5</i>
    <i name="SIGMA">      0.05000000</i>
    <i name="KSPACING">      0.50000000</i>
    <i type="logical" name="KGAMMA"> T  </i>
    <i type="logical" name="KBLOWUP"> T  </i>
   </separator>
   <separator name="electronic projectors" >
    <i type="logical" name="LREAL"> F  </i>
    <v name="ROPT">      0.00000000</v>
    <i type="int" name="LMAXPAW">  -100</i>
    <i type="int" name="LMAXMIX">     2</i>
    <i type="logical" name="NLSPLINE"> F  </i>
   </separator>
   <separator name="electronic startup" >
    <i type="int" name="ISTART">     0</i>
    <i type="int" name="ICHARG">     2</i>
    <i type="int" name="INIWAV">     1</i>
   </separator>
   <separator name="electronic spin" >
    <i type="int" name="ISPIN">     2</i>
    <i type="logical" name="LNONCOLLINEAR"> F  </i>
    <v name="MAGMOM">      0.00000000      0.00000000</v>
    <i name="NUPDOWN">     -1.00000000</i>
    <i type="logical" name="LSORBIT"> F  </i>
    <v name="SAXIS">      0.00000000      0.00000000      1.00000000</v>
    <i type="logical" name="LSPIRAL"> F  </i>
    <v name="QSPIRAL">      0.00000000      0.00000000      0.00000000</v>
    <i type="logical" name="LZEROZ"> F  </i>
   </separator>
   <separator name="electronic exchange-correlation" >
    <i type="logical" name="LASPH"> T  </i>
    <i type="logical" name="LMETAGGA"> F  </i>
   </separator>
   <separator name="electronic convergence" >
    <i type="int" name="NELM">   200</i>
    <i type="int" name="NELMDL">    -5</i>
    <i type="int" name="NELMIN">     2</i>
    <i name="ENINI">    700.00000000</i>
    <separator name="electronic convergence detail" >
     <i type="logical" name="LDIAG"> T  </i>
     <i type="logical" name="LSUBROT"> F  </i>
     <i name="WEIMIN">      0.00100000</i>
     <i name="EBREAK">      0.00000000</i>
     <i name="DEPER">      0.30000000</i>
     <i type="int" name="NRMM">     4</i>
     <i name="TIME">      0.40000000</i>
    </separator>
   </separator>
   <separator name="electronic mixer" >
    <i name="AMIX">      0.40000000</i>
    <i name="BMIX">      1.00000000</i>
    <i name="AMIN">      0.10000000</i>
    <i name="AMIX_MAG">      1.60000000</i>
    <i name="BMIX_MAG">      1.00000000</i>
    <separator name="electronic mixer details" >
     <i type="int" name="IMIX">     4</i>
     <i type="logical" name="MIXFIRST"> F  </i>
     <i type="int" name="MAXMIX">   -45</i>
     <i name="WC">    100.00000000</i>
     <i type="int" name="INIMIX">     1</i>
     <i type="int" name="MIXPRE">     1</i>
     <i type="int" name="MREMOVE">     5</i>
    </separator>
   </separator>
   <separator name="electronic dipolcorrection" >
    <i type="logical" name="LDIPOL"> F  </i>
    <i type="logical" name="LMONO"> F  </i>
    <i type="int" name="IDIPOL">     0</i>
    <i name="EPSILON">      1.00000000</i>
    <v name="DIPOL">   -100.00000000   -100.00000000   -100.00000000</v>
    <i name="EFIELD">      0.00000000</i>
   </separator>
  </separator>
  <separator name="grids" >
   <i type="int" name="NGX">    36</i>
   <i type="int" name="NGY">    36</i>
   <i type="int" name="NGZ">    36</i>
   <i type="int" name="NGXF">    72</i>
   <i type="int" name="NGYF">    72</i>
   <i type="int" name="NGZF">    72</i>
   <i type="logical" name="ADDGRID"> F  </i>
  </separator>
  <separator name="ionic" >
   <i type="int" name="NSW">    99</i>
   <i type="int" name="IBRION">     2</i>
   <i type="int" name="MDALGO">     0</i>
   <i type="int" name="ISIF">     2</i>
   <i name="PSTRESS">      0.00000000</i>
   <i name="EDIFFG">     -0.02000000</i>
   <i type="int" name="NFREE">     1</i>
   <i name="POTIM">      0.50000000</i>
   <i name="SMASS">     -3.00000000</i>
   <i name="SCALEE">      1.00000000</i>
  </separator>
  <separator name="ionic md" >
   <i name="TEBEG">      0.00010000</i>
   <i name="TEEND">      0.00010000</i>
   <i type="int" name="NBLOCK">     1</i>
   <i type="int" name="KBLOCK">    99</i>
   <i type="int" name="NPACO">   256</i>
   <i name="APACO">     10.00000000</i>
  </separator>
  <separator name="symmetry" >
   <i type="int" name="ISYM">     0</i>
   <i name="SYMPREC">      0.00001000</i>
  </separator>
  <separator name="dos" >
   <i type="int" name="LORBIT">    11</i>
   <v name="RWIGS">     -1.00000000</v>
   <i type="int" name="NEDOS">   301</i>
   <i name="EMIN">     10.00000000</i>
   <i name="EMAX">    -10.00000000</i>
   <i name="EFERMI">      0.00000000</i>
  </separator>
  <separator name="writing" >
   <i type="int" name="NWRITE">     2</i>
   <i type="logical" name="LWAVE"> T  </i>
   <i type="logical" name="LDOWNSAMPLE"> F  </i>
   <i type="logical" name="LCHARG"> F  </i>
   <i type="logical" name="LPARD"> F  </i>
   <i type="logical" name="LVTOT"> T  </i>
   <i type="logical" name="LVHAR"> F  </i>
   <i type="logical" name="LELF"> F  </i>
   <i type="logical" name="LOPTICS"> F  </i>
   <v name="STM">      0.00000000      0.00000000      0.00000000      0.00000000      0.00000000      0.00000000      0.00000000</v>
  </separator>
  <separator name="performance" >
   <i type="int" name="NPAR">     4</i>
   <i type="int" name="NSIM">     4</i>
   <i type="int" name="NBLK">    -1</i>
   <i type="logical" name="LPLANE"> T  </i>
   <i type="logical" name="LSCALAPACK"> T  </i>
   <i type="logical" name="LSCAAWARE"> F  </i>
   <i type="logical" name="LSCALU"> F  </i>
   <i type="logical" name="LASYNC"> F  </i>
   <i type="logical" name="LORBITALREAL"> F  </i>
  </separator>
  <separator name="miscellaneous" >
   <i type="int" name="IDIOT">     3</i>
   <i type="int" name="PHON_NSTRUCT">    -1</i>
   <i type="logical" name="LMUSIC"> F  </i>
   <v name="POMASS">     28.08500000</v>
   <v name="DARWINR">      0.00000000</v>
   <v name="DARWINV">      1.00000000</v>
   <i type="logical" name="LCORR"> T  </i>
  </separator>
  <i type="logical" name="GGA_COMPAT"> T  </i>
  <i type="logical" name="LBERRY"> F  </i>
  <i type="int" name="ICORELEVEL">     0</i>
  <i type="logical" name="LDAU"> F  </i>
  <i type="int" name="I_CONSTRAINED_M">     0</i>
  <separator name="electronic exchange-correlation" >
   <i type="string" name="GGA">PS</i>
   <i type="int" name="VOSKOWN">     0</i>
   <i type="logical" name="LHFCALC"> F  </i>
   <i type="string" name="PRECFOCK"></i>
   <i type="logical" name="LSYMGRAD"> F  </i>
   <i type="logical" name="LHFONE"> F  </i>
   <i type="logical" name="LRHFCALC"> F  </i>
   <i type="logical" name="LTHOMAS"> F  </i>
   <i type="logical" name="LMODELHF"> F  </i>
   <i type="logical" name="LFOCKACE"> F  </i>
   <i name="ENCUT4O">     -1.00000000</i>
   <i type="int" name="EXXOEP">     0</i>
   <i type="int" name="FOURORBIT">     0</i>
   <i name="AEXX">      0.00000000</i>
   <i name="HFALPHA">      0.00000000</i>
   <i name="MCALPHA">      0.00000000</i>
   <i name="ALDAX">      1.00000000</i>
   <i name="AGGAX">      1.00000000</i>
   <i name="ALDAC">      1.00000000</i>
   <i name="AGGAC">      1.00000000</i>
   <i type="int" name="NKREDX">     1</i>
   <i type="int" name="NKREDY">     1</i>
   <i type="int" name="NKREDZ">     1</i>
   <i type="logical" name="SHIFTRED"> F  </i>
   <i type="logical" name="ODDONLY"> F  </i>
   <i type="logical" name="EVENONLY"> F  </i>
   <i type="int" name="LMAXFOCK">     0</i>
   <i type="int" name="NMAXFOCKAE">     0</i>
   <i type="logical" name="LFOCKAEDFT"> F  </i>
   <i name="HFSCREEN">      0.00000000</i>
   <i name="HFSCREENC">      0.00000000</i>
   <i type="int" name="NBANDSGWLOW">     0</i>
  </separator>
  <separator name="vdW DFT" >
   <i type="logical" name="LUSE_VDW"> F  </i>
   <i name="Zab_VDW">     -0.84910000</i>
   <i name="PARAM1">      0.12340000</i>
   <i name="PARAM2">      1.00000000</i>
   <i name="PARAM3">      0.00000000</i>
  </separator>
  <separator name="model GW" >
   <i type="int" name="MODEL_GW">     0</i>
   <i name="MODEL_EPS0">     12.04526142</i>
   <i name="MODEL_ALPHA">      1.00000000</i>
  </separator>
  <separator name="linear response parameters" >
   <i type="logical" name="LEPSILON"> F  </i>
   <i type="logical" name="LRPA"> F  </i>
   <i type="logical" name="LNABLA"> F  </i>
   <i type="logical" name="LVEL"> F  </i>
   <i name="CSHIFT">      0.10000000</i>
   <i name="OMEGAMAX">     -1.00000000</i>
   <i name="DEG_THRESHOLD">      0.00200000</i>
   <i name="RTIME">     -0.10000000</i>
   <i name="WPLASMAI">      0.00000000</i>
   <v name="DFIELD">      0.00000000      0.00000000      0.00000000</v>
   <v name="WPLASMA">      0.00000000      0.00000000      0.00000000      0.00000000      0.00000000      0.00000000      0.00000000      0.00000000      0.00000000</v>
  </separator>
  <separator name="orbital magnetization" >
   <i type="logical" name="NUCIND"> F  </i>
   <v name="MAGPOS">      0.00000000      0.00000000      0.00000000</v>
   <i type="logical" name="LNICSALL"> T  </i>
   <i type="logical" name="ORBITALMAG"> F  </i>
   <i type="logical" name="LMAGBLOCH"> F  </i>
   <i type="logical" name="LCHIMAG"> F  </i>
   <i type="logical" name="LGAUGE"> T  </i>
   <i type="int" name="MAGATOM">     0</i>
   <v name="MAGDIPOL">      0.00000000      0.00000000      0.00000000</v>
   <v name="AVECCONST">      0.00000000      0.00000000      0.00000000</v>
  </separator>
  <separator name="response functions" >
   <i type="logical" name="LFINITE_TEMPERATURE"> F  </i>
   <i type="logical" name="LADDER"> F  </i>
   <i type="logical" name="LRPAFORCE"> F  </i>
   <i type="logical" name="LFXC"> F  </i>
   <i type="logical" name="LHARTREE"> T  </i>
   <i type="int" name="IBSE">     0</i>
   <v type="int" name="KPOINT">    -1     0     0     0</v>
   <i type="logical" name="LTCTC"> F  </i>
   <i type="logical" name="LTCTE"> F  </i>
   <i type="logical" name="LTETE"> F  </i>
   <i type="logical" name="LTRIPLET"> F  </i>
   <i type="logical" name="LFXCEPS"> F  </i>
   <i type="logical" name="LFXHEG"> F  </i>
   <i type="int" name="NATURALO">     2</i>
   <i type="logical" name="LHOLEGF"> F  </i>
   <i type="logical" name="L2ORDER"> F  </i>
   <i type="logical" name="LDMP1"> F  </i>
   <i type="logical" name="LMP2LT"> F  </i>
   <i type="logical" name="LSMP2LT"> F  </i>
   <i type="logical" name="LGWLF"> F  </i>
   <i name="ENCUTGW">     -2.00000000</i>
   <i name="ENCUTGWSOFT">     -2.00000000</i>
   <i name="ENCUTLF">     -1.00000000</i>
   <i type="logical" name="LESF_SPLINES"> F  </i>
   <i type="int" name="LMAXMP2">    -1</i>
   <i name="SCISSOR">      0.00000000</i>
   <i type="int" name="NOMEGA">     0</i>
   <i type="int" name="NOMEGAR">     0</i>
   <i type="int" name="NBANDSGW">    -1</i>
   <i type="int" name="NBANDSO">    -1</i>
   <i type="int" name="NBANDSV">    -1</i>
   <i type="int" name="NELMGW">     1</i>
   <i type="int" name="NELMHF">     1</i>
   <i type="int" name="DIM">     3</i>
   <i type="int" name="IESPILON">     4</i>
   <i type="int" name="ANTIRES">     0</i>
   <i name="OMEGAMAX">    -30.00000000</i>
   <i name="OMEGAMIN">    -30.00000000</i>
   <i name="OMEGATL">   -200.00000000</i>
   <i type="int" name="OMEGAGRID">     0</i>
   <i name="CSHIFT">     -0.10000000</i>
   <i type="logical" name="LSELFENERGY"> F  </i>
   <i type="logical" name="LSPECTRAL"> F  </i>
   <i type="logical" name="LSPECTRALGW"> F  </i>
   <i type="logical" name="LSINGLES"> F  </i>
   <i type="logical" name="LFERMIGW"> F  </i>
   <i type="logical" name="ODDONLYGW"> F  </i>
   <i type="logical" name="EVENONLYGW"> F  </i>
   <i type="int" name="NKREDLFX">     1</i>
   <i type="int" name="NKREDLFY">     1</i>
   <i type="int" name="NKREDLFZ">     1</i>
   <i type="int" name="MAXMEM">  2800</i>
   <i type="int" name="TELESCOPE">     0</i>
   <i type="int" name="NTAUPAR">    -1</i>
   <i type="int" name="NOMEGAPAR">    -1</i>
   <i name="DAMP_NEWTON">      0.80000001</i>
   <i name="LAMBDA">      1.00000000</i>
  </separator>
  <separator name="External order field" >
   <i name="OFIELD_KAPPA">      0.00000000</i>
   <v name="OFIELD_K">      0.00000000      0.00000000      0.00000000</v>
   <i name="OFIELD_Q6_NEAR">      0.00000000</i>
   <i name="OFIELD_Q6_FAR">      0.00000000</i>
   <i name="OFIELD_A">      0.00000000</i>
  </separator>
  <separator name="optional k-points parameters" >
   <i type="int" name="KPOINTS_OPT_MODE">     1</i>
   <i type="logical" name="LKPOINTS_OPT"> F  </i>
  </separator>
 </parameters>
 <atominfo>
  <atoms>       2 </atoms>
  <types>       1 </types>
  <array name="atoms" >
   <dimension dim="1">ion</dimension>
   <field type="string">element</field>
   <field type="int">atomtype</field>
   <set>
    <rc><c>Si</c><c>   1</c></rc>
    <rc><c>Si</c><c>   1</c></rc>
   </set>
  </array>
  <array name="atomtypes" >
   <dimension dim="1">type</dimension>
   <field type="int">atomspertype</field>
   <field type="string">element</field>
   <field>mass</field>
   <field>valence</field>
   <field type="string">pseudopotential</field>
   <set>
    <rc><c>   2</c><c>Si</c><c>     28.08500000</c><c>      4.00000000</c><c>  PAW_PBE Si 05Jan2001                  </c></rc>
   </set>
  </array>
 </atominfo>
 <structure name="initialpos" >
  <crystal>
   <varray name="basis" >
    <v>      -0.00000000       2.71782607       2.71782607 </v>
    <v>       2.71782607      -0.00000000       2.71782607 </v>
    <v>       2.71782607       2.71782607       0.00000000 </v>
   </varray>
   <i name="volume">     40.15087140 </i>
   <varray name="rec_basis" >
    <v>      -0.18397057       0.18397057       0.18397057 </v>
    <v>       0.18397057      -0.18397057       0.18397057 </v>
    <v>       0.18397057       0.18397057      -0.18397057 </v>
   </varray>
  </crystal>
  <varray name="positions" >
   <v>       0.00000000       0.00000000       0.00000000 </v>
   <v>       0.25000000       0.25000000       0.25000000 </v>
  </varray>
 </structure>
 <calculation>
  <scstep>
   <time name="dav">    0.14    0.14</time>
   <time name="total">    0.66    0.66</time>
   <energy>
    <i name="alphaZ">      3.35366378 </i>
    <i name="ewald">   -228.32585848 </i>
    <i name="hartreedc">    -11.04797219 </i>
    <i name="XCdc">    -17.46635512 </i>
    <i name="pawpsdc">    174.95707044 </i>
    <i name="pawaedc">   -140.38057629 </i>
    <i name="eentropy">      0.00000000 </i>
    <i name="bandstr">     23.39421069 </i>
    <i name="atom">    205.15162554 </i>
    <i name="e_fr_energy">      9.63580837 </i>
    <i name="e_wo_entrp">      9.63580837 </i>
    <i name="e_0_energy">      9.63580837 </i>
   </energy>
  </scstep>
  <scstep>
   <time name="dav">    0.20    0.21</time>
   <time name="total">    0.21    0.21</time>
   <energy>
    <i name="e_fr_energy">    -10.76456344 </i>
    <i name="e_wo_entrp">    -10.76456344 </i>
    <i name="e_0_energy">    -10.76456344 </i>
   </energy>
  </scstep>
  <scstep>
   <time name="dav">    0.17    0.17</time>
   <time name="total">    0.17    0.17</time>
   <energy>
    <i name="e_fr_energy">    -11.14582928 </i>
    <i name="e_wo_entrp">    -11.14582928 </i>
    <i name="e_0_energy">    -11.14582928 </i>
   </energy>
  </scstep>
  <scstep>
   <time name="dav">    0.22    0.22</time>
   <time name="total">    0.22    0.22</time>
   <energy>
    <i name="e_fr_energy">    -11.14766881 </i>
    <i name="e_wo_entrp">    -11.14766881 </i>
    <i name="e_0_energy">    -11.14766881 </i>
   </energy>
  </scstep>
  <scstep>
   <time name="dav">    0.17    0.17</time>
   <time name="total">    0.19    0.19</time>
   <energy>
    <i name="e_fr_energy">    -11.14767162 </i>
    <i name="e_wo_entrp">    -11.14767162 </i>
    <i name="e_0_energy">    -11.14767162 </i>
   </energy>
  </scstep>
  <scstep>
   <time name="dav">    0.17    0.17</time>
   <time name="total">    0.79    0.79</time>
   <energy>
    <i name="e_fr_energy">    -10.94299586 </i>
    <i name="e_wo_entrp">    -10.94299586 </i>
    <i name="e_0_energy">    -10.94299586 </i>
   </energy>
  </scstep>
  <scstep>
   <time name="dav">    0.17    0.17</time>
   <time name="total">    0.79    0.79</time>
   <energy>
    <i name="e_fr_energy">    -10.85025349 </i>
    <i name="e_wo_entrp">    -10.85025349 </i>
    <i name="e_0_energy">    -10.85025349 </i>
   </energy>
  </scstep>
  <scstep>
   <time name="dav">    0.15    0.15</time>
   <time name="total">    0.78    0.78</time>
   <energy>
    <i name="e_fr_energy">    -10.85161396 </i>
    <i name="e_wo_entrp">    -10.85161396 </i>
    <i name="e_0_energy">    -10.85161396 </i>
   </energy>
  </scstep>
  <scstep>
   <time name="dav">    0.20    0.20</time>
   <time name="total">    0.83    0.83</time>
   <energy>
    <i name="e_fr_energy">    -10.85174513 </i>
    <i name="e_wo_entrp">    -10.85174513 </i>
    <i name="e_0_energy">    -10.85174513 </i>
   </energy>
  </scstep>
  <scstep>
   <time name="dav">    0.15    0.15</time>
   <time name="total">    0.78    0.78</time>
   <energy>
    <i name="e_fr_energy">    -10.85177226 </i>
    <i name="e_wo_entrp">    -10.85177226 </i>
    <i name="e_0_energy">    -10.85177226 </i>
   </energy>
  </scstep>
  <scstep>
   <time name="dav">    0.18    0.18</time>
   <time name="total">    0.80    0.80</time>
   <energy>
    <i name="e_fr_energy">    -10.85177502 </i>
    <i name="e_wo_entrp">    -10.85177502 </i>
    <i name="e_0_energy">    -10.85177502 </i>
   </energy>
  </scstep>
  <scstep>
   <time name="dav">    0.19    0.19</time>
   <time name="total">    0.80    0.80</time>
   <energy>
    <i name="alphaZ">      3.35366378 </i>
    <i name="ewald">   -228.32585848 </i>
    <i name="hartreedc">    -15.44296900 </i>
    <i name="XCdc">    -16.76216525 </i>
    <i name="pawpsdc">    897.74905764 </i>
    <i name="pawaedc">   -863.40757912 </i>
    <i name="eentropy">      0.00000000 </i>
    <i name="bandstr">      6.83244994 </i>
    <i name="atom">    205.15162554 </i>
    <i name="e_fr_energy">    -10.85177495 </i>
    <i name="e_wo_entrp">    -10.85177495 </i>
    <i name="e_0_energy">    -10.85177495 </i>
   </energy>
  </scstep>
  <structure>
   <crystal>
    <varray name="basis" >
     <v>      -0.00000000       2.71782607       2.71782607 </v>
     <v>       2.71782607      -0.00000000       2.71782607 </v>
     <v>       2.71782607       2.71782607       0.00000000 </v>
    </varray>
    <i name="volume">     40.15087140 </i>
    <varray name="rec_basis" >
     <v>      -0.18397057       0.18397057       0.18397057 </v>
     <v>       0.18397057      -0.18397057       0.18397057 </v>
     <v>       0.18397057       0.18397057      -0.18397057 </v>
    </varray>
   </crystal>
   <varray name="positions" >
    <v>       0.00000000       0.00000000       0.00000000 </v>
    <v>       0.25000000       0.25000000       0.25000000 </v>
   </varray>
  </structure>
  <varray name="forces" >
   <v>      -0.00000053       0.00000018       0.00000227 </v>
   <v>       0.00000053      -0.00000018      -0.00000227 </v>
  </varray>
  <varray name="stress" >
   <v>      20.16916214       0.00133986      -0.00006395 </v>
   <v>       0.00133988      20.16915302       0.00125418 </v>
   <v>      -0.00006377       0.00125429      20.16913578 </v>
  </varray>
  <energy>
   <i name="e_fr_energy">    -10.85177495 </i>
   <i name="e_wo_entrp">    -10.85177495 </i>
   <i name="e_0_energy">    -10.85177495 </i>
  </energy>
  <time name="totalsc">    8.36    8.38</time>
  <eigenvalues>
   <array>
    <dimension dim="1">band</dimension>
    <dimension dim="2">kpoint</dimension>
    <dimension dim="3">spin</dimension>
    <field>eigene</field>
    <field>occ</field>
    <set>
     <set comment="spin 1">
      <set comment="kpoint 1">
       <r>   -6.1238    1.0000 </r>
       <r>    5.8744    1.0000 </r>
       <r>    5.8744    1.0000 </r>
       <r>    5.8744    1.0000 </r>
       <r>    8.3393    0.0000 </r>
       <r>    8.3394    0.0000 </r>
       <r>    8.3394    0.0000 </r>
       <r>    9.1681    0.0000 </r>
      </set>
      <set comment="kpoint 2">
       <r>   -4.7395    1.0000 </r>
       <r>    0.4914    1.0000 </r>
       <r>    4.8593    1.0000 </r>
       <r>    4.8593    1.0000 </r>
       <r>    7.5294    0.0000 </r>
       <r>    9.2688    0.0000 </r>
       <r>    9.2688    0.0000 </r>
       <r>   13.5277    0.0000 </r>
      </set>
      <set comment="kpoint 3">
       <r>   -4.7395    1.0000 </r>
       <r>    0.4914    1.0000 </r>
       <r>    4.8593    1.0000 </r>
       <r>    4.8593    1.0000 </r>
       <r>    7.5294    0.0000 </r>
       <r>    9.2688    0.0000 </r>
       <r>    9.2688    0.0000 </r>
       <r>   13.5277    0.0000 </r>
      </set>
      <set comment="kpoint 4">
       <r>   -4.7395    1.0000 </r>
       <r>    0.4914    1.0000 </r>
       <r>    4.8593    1.0000 </r>
       <r>    4.8593    1.0000 </r>
       <r>    7.5294    0.0000 </r>
       <r>    9.2688    0.0000 </r>
       <r>    9.2688    0.0000 </r>
       <r>   13.5277    0.0000 </r>
      </set>
      <set comment="kpoint 5">
       <r>   -4.7395    1.0000 </r>
       <r>    0.4914    1.0000 </r>
       <r>    4.8593    1.0000 </r>
       <r>    4.8593    1.0000 </r>
       <r>    7.5294    0.0000 </r>
       <r>    9.2688    0.0000 </r>
       <r>    9.2688    0.0000 </r>
       <r>   13.5277    0.0000 </r>
      </set>
      <set comment="kpoint 6">
       <r>   -4.2121    1.0000 </r>
       <r>    0.8542    1.0000 </r>
       <r>    3.4168    1.0000 </r>
       <r>    3.4168    1.0000 </r>
       <r>    6.4435    0.0000 </r>
       <r>    7.6878    0.0000 </r>
       <r>   13.0647    0.0000 </r>
       <r>   13.0647    0.0000 </r>
      </set>
      <set comment="kpoint 7">
       <r>   -4.2121    1.0000 </r>
       <r>    0.8542    1.0000 </r>
       <r>    3.4168    1.0000 </r>
       <r>    3.4168    1.0000 </r>
       <r>    6.4435    0.0000 </r>
       <r>    7.6878    0.0000 </r>
       <r>   13.0647    0.0000 </r>
       <r>   13.0647    0.0000 </r>
      </set>
      <set comment="kpoint 8">
       <r>   -4.2121    1.0000 </r>
       <r>    0.8542    1.0000 </r>
       <r>    3.4168    1.0000 </r>
       <r>    3.4168    1.0000 </r>
       <r>    6.4435    0.0000 </r>
       <r>    7.6878    0.0000 </r>
       <r>   13.0647    0.0000 </r>
       <r>   13.0647    0.0000 </r>
      </set>
      <set comment="kpoint 9">
       <r>   -2.8369    1.0000 </r>
       <r>   -0.9169    1.0000 </r>
       <r>    1.3680    1.0000 </r>
       <r>    3.7292    1.0000 </r>
       <r>    7.2804    0.0000 </r>
       <r>   11.5467    0.0000 </r>
       <r>   12.2519    0.0000 </r>
       <r>   12.8614    0.0000 </r>
      </set>
      <set comment="kpoint 10">
       <r>   -2.8369    1.0000 </r>
       <r>   -0.9169    1.0000 </r>
       <r>    1.3680    1.0000 </r>
       <r>    3.7292    1.0000 </r>
       <r>    7.2804    0.0000 </r>
       <r>   11.5467    0.0000 </r>
       <r>   12.2519    0.0000 </r>
       <r>   12.8614    0.0000 </r>
      </set>
      <set comment="kpoint 11">
       <r>   -2.8369    1.0000 </r>
       <r>   -0.9169    1.0000 </r>
       <r>    1.3680    1.0000 </r>
       <r>    3.7292    1.0000 </r>
       <r>    7.2804    0.0000 </r>
       <r>   11.5467    0.0000 </r>
       <r>   12.2519    0.0000 </r>
       <r>   12.8614    0.0000 </r>
      </set>
      <set comment="kpoint 12">
       <r>   -2.8369    1.0000 </r>
       <r>   -0.9169    1.0000 </r>
       <r>    1.3680    1.0000 </r>
       <r>    3.7292    1.0000 </r>
       <r>    7.2804    0.0000 </r>
       <r>   11.5467    0.0000 </r>
       <r>   12.2519    0.0000 </r>
       <r>   12.8614    0.0000 </r>
      </set>
      <set comment="kpoint 13">
       <r>   -2.8369    1.0000 </r>
       <r>   -0.9169    1.0000 </r>
       <r>    1.3680    1.0000 </r>
       <r>    3.7292    1.0000 </r>
       <r>    7.2804    0.0000 </r>
       <r>   11.5467    0.0000 </r>
       <r>   12.2519    0.0000 </r>
       <r>   12.8614    0.0000 </r>
      </set>
      <set comment="kpoint 14">
       <r>   -2.8369    1.0000 </r>
       <r>   -0.9169    1.0000 </r>
       <r>    1.3680    1.0000 </r>
       <r>    3.7292    1.0000 </r>
       <r>    7.2804    0.0000 </r>
       <r>   11.5467    0.0000 </r>
       <r>   12.2519    0.0000 </r>
       <r>   12.8614    0.0000 </r>
      </set>
     </set>
     <set comment="spin 2">
      <set comment="kpoint 1">
       <r>   -6.1238    1.0000 </r>
       <r>    5.8744    1.0000 </r>
       <r>    5.8744    1.0000 </r>
       <r>    5.8744    1.0000 </r>
       <r>    8.3393    0.0000 </r>
       <r>    8.3393    0.0000 </r>
       <r>    8.3393    0.0000 </r>
       <r>    9.1681    0.0000 </r>
      </set>
      <set comment="kpoint 2">
       <r>   -4.7395    1.0000 </r>
       <r>    0.4914    1.0000 </r>
       <r>    4.8593    1.0000 </r>
       <r>    4.8593    1.0000 </r>
       <r>    7.5294    0.0000 </r>
       <r>    9.2688    0.0000 </r>
       <r>    9.2688    0.0000 </r>
       <r>   13.5277    0.0000 </r>
      </set>
      <set comment="kpoint 3">
       <r>   -4.7395    1.0000 </r>
       <r>    0.4914    1.0000 </r>
       <r>    4.8593    1.0000 </r>
       <r>    4.8593    1.0000 </r>
       <r>    7.5294    0.0000 </r>
       <r>    9.2688    0.0000 </r>
       <r>    9.2688    0.0000 </r>
       <r>   13.5277    0.0000 </r>
      </set>
      <set comment="kpoint 4">
       <r>   -4.7395    1.0000 </r>
       <r>    0.4914    1.0000 </r>
       <r>    4.8593    1.0000 </r>
       <r>    4.8593    1.0000 </r>
       <r>    7.5294    0.0000 </r>
       <r>    9.2688    0.0000 </r>
       <r>    9.2688    0.0000 </r>
       <r>   13.5277    0.0000 </r>
      </set>
      <set comment="kpoint 5">
       <r>   -4.7395    1.0000 </r>
       <r>    0.4914    1.0000 </r>
       <r>    4.8593    1.0000 </r>
       <r>    4.8593    1.0000 </r>
       <r>    7.5294    0.0000 </r>
       <r>    9.2688    0.0000 </r>
       <r>    9.2688    0.0000 </r>
       <r>   13.5277    0.0000 </r>
      </set>
      <set comment="kpoint 6">
       <r>   -4.2121    1.0000 </r>
       <r>    0.8542    1.0000 </r>
       <r>    3.4168    1.0000 </r>
       <r>    3.4168    1.0000 </r>
       <r>    6.4435    0.0000 </r>
       <r>    7.6878    0.0000 </r>
       <r>   13.0647    0.0000 </r>
       <r>   13.0647    0.0000 </r>
      </set>
      <set comment="kpoint 7">
       <r>   -4.2121    1.0000 </r>
       <r>    0.8542    1.0000 </r>
       <r>    3.4168    1.0000 </r>
       <r>    3.4168    1.0000 </r>
       <r>    6.4435    0.0000 </r>
       <r>    7.6878    0.0000 </r>
       <r>   13.0647    0.0000 </r>
       <r>   13.0647    0.0000 </r>
      </set>
      <set comment="kpoint 8">
       <r>   -4.2121    1.0000 </r>
       <r>    0.8542    1.0000 </r>
       <r>    3.4168    1.0000 </r>
       <r>    3.4168    1.0000 </r>
       <r>    6.4435    0.0000 </r>
       <r>    7.6878    0.0000 </r>
       <r>   13.0647    0.0000 </r>
       <r>   13.0647    0.0000 </r>
      </set>
      <set comment="kpoint 9">
       <r>   -2.8369    1.0000 </r>
       <r>   -0.9169    1.0000 </r>
       <r>    1.3680    1.0000 </r>
       <r>    3.7292    1.0000 </r>
       <r>    7.2804    0.0000 </r>
       <r>   11.5467    0.0000 </r>
       <r>   12.2519    0.0000 </r>
       <r>   12.8614    0.0000 </r>
      </set>
      <set comment="kpoint 10">
       <r>   -2.8369    1.0000 </r>
       <r>   -0.9169    1.0000 </r>
       <r>    1.3680    1.0000 </r>
       <r>    3.7292    1.0000 </r>
       <r>    7.2804    0.0000 </r>
       <r>   11.5467    0.0000 </r>
       <r>   12.2519    0.0000 </r>
       <r>   12.8614    0.0000 </r>
      </set>
      <set comment="kpoint 11">
       <r>   -2.8369    1.0000 </r>
       <r>   -0.9169    1.0000 </r>
       <r>    1.3680    1.0000 </r>
       <r>    3.7292    1.0000 </r>
       <r>    7.2804    0.0000 </r>
       <r>   11.5467    0.0000 </r>
       <r>   12.2519    0.0000 </r>
       <r>   12.8614    0.0000 </r>
      </set>
      <set comment="kpoint 12">
       <r>   -2.8369    1.0000 </r>
       <r>   -0.9169    1.0000 </r>
       <r>    1.3680    1.0000 </r>
       <r>    3.7292    1.0000 </r>
       <r>    7.2804    0.0000 </r>
       <r>   11.5468    0.0000 </r>
       <r>   12.2519    0.0000 </r>
       <r>   12.8614    0.0000 </r>
      </set>
      <set comment="kpoint 13">
       <r>   -2.8369    1.0000 </r>
       <r>   -0.9169    1.0000 </r>
       <r>    1.3680    1.0000 </r>
       <r>    3.7292    1.0000 </r>
       <r>    7.2804    0.0000 </r>
       <r>   11.5467    0.0000 </r>
       <r>   12.2519    0.0000 </r>
       <r>   12.8614    0.0000 </r>
      </set>
      <set comment="kpoint 14">
       <r>   -2.8369    1.0000 </r>
       <r>   -0.9169    1.0000 </r>
       <r>    1.3680    1.0000 </r>
       <r>    3.7292    1.0000 </r>
       <r>    7.2804    0.0000 </r>
       <r>   11.5467    0.0000 </r>
       <r>   12.2519    0.0000 </r>
       <r>   12.8614    0.0000 </r>
      </set>
     </set>
    </set>
   </array>
  </eigenvalues>
  <separator name="orbital magnetization" >
   <v name="MAGDIPOLOUT">      0.00000000      0.00000000      0.00000000</v>
  </separator>
  <dos>
   <i name="efermi">      5.87444487 </i>
   <total>
    <array>
     <dimension dim="1">gridpoints</dimension>
     <dimension dim="2">spin</dimension>
     <field>energy</field>
     <field>total</field>
     <field>integrated</field>
     <set>
      <set comment="spin 1">
       <r>    -7.1064     0.0000     0.0000 </r>
       <r>    -7.0343     0.0000     0.0000 </r>
       <r>    -6.9622     0.0000     0.0000 </r>
       <r>    -6.8902     0.0000     0.0000 </r>
       <r>    -6.8181     0.0000     0.0000 </r>
       <r>    -6.7461     0.0000     0.0000 </r>
       <r>    -6.6740     0.0000     0.0000 </r>
       <r>    -6.6020     0.0000     0.0000 </r>
       <r>    -6.5299     0.0000     0.0000 </r>
       <r>    -6.4579     0.0000     0.0000 </r>
       <r>    -6.3858     0.0000     0.0000 </r>
       <r>    -6.3137     0.0000     0.0000 </r>
       <r>    -6.2417     0.0000     0.0000 </r>
       <r>    -6.1696     0.0000     0.0000 </r>
       <r>    -6.0976     0.0001     0.0000 </r>
       <r>    -6.0255     0.0012     0.0000 </r>
       <r>    -5.9535     0.0035     0.0002 </r>
       <r>    -5.8814     0.0071     0.0006 </r>
       <r>    -5.8094     0.0120     0.0013 </r>
       <r>    -5.7373     0.0181     0.0023 </r>
       <r>    -5.6652     0.0255     0.0039 </r>
       <r>    -5.5932     0.0342     0.0060 </r>
       <r>    -5.5211     0.0441     0.0089 </r>
       <r>    -5.4491     0.0552     0.0124 </r>
       <r>    -5.3770     0.0677     0.0168 </r>
       <r>    -5.3050     0.0813     0.0222 </r>
       <r>    -5.2329     0.0963     0.0286 </r>
       <r>    -5.1609     0.1125     0.0361 </r>
       <r>    -5.0888     0.1300     0.0448 </r>
       <r>    -5.0167     0.1487     0.0549 </r>
       <r>    -4.9447     0.1687     0.0663 </r>
       <r>    -4.8726     0.1899     0.0792 </r>
       <r>    -4.8006     0.2124     0.0937 </r>
       <r>    -4.7285     0.2352     0.1098 </r>
       <r>    -4.6565     0.2539     0.1275 </r>
       <r>    -4.5844     0.2736     0.1465 </r>
       <r>    -4.5124     0.2944     0.1669 </r>
       <r>    -4.4403     0.3161     0.1889 </r>
       <r>    -4.3682     0.3390     0.2125 </r>
       <r>    -4.2962     0.3628     0.2378 </r>
       <r>    -4.2241     0.3877     0.2648 </r>
       <r>    -4.1521     0.4257     0.2941 </r>
       <r>    -4.0800     0.4618     0.3261 </r>
       <r>    -4.0080     0.4930     0.3605 </r>
       <r>    -3.9359     0.5194     0.3970 </r>
       <r>    -3.8639     0.5410     0.4352 </r>
       <r>    -3.7918     0.5577     0.4748 </r>
       <r>    -3.7197     0.5696     0.5155 </r>
       <r>    -3.6477     0.5767     0.5568 </r>
       <r>    -3.5756     0.5789     0.5985 </r>
       <r>    -3.5036     0.5764     0.6401 </r>
       <r>    -3.4315     0.5689     0.6814 </r>
       <r>    -3.3595     0.5567     0.7220 </r>
       <r>    -3.2874     0.5396     0.7615 </r>
       <r>    -3.2154     0.5177     0.7996 </r>
       <r>    -3.1433     0.4909     0.8360 </r>
       <r>    -3.0712     0.4593     0.8703 </r>
       <r>    -2.9992     0.4229     0.9021 </r>
       <r>    -2.9271     0.3817     0.9311 </r>
       <r>    -2.8551     0.3356     0.9570 </r>
       <r>    -2.7830     0.5140     1.0000 </r>
       <r>    -2.7110     0.0000     1.0000 </r>
       <r>    -2.6389     0.0000     1.0000 </r>
       <r>    -2.5669     0.0000     1.0000 </r>
       <r>    -2.4948     0.0000     1.0000 </r>
       <r>    -2.4227     0.0000     1.0000 </r>
       <r>    -2.3507     0.0000     1.0000 </r>
       <r>    -2.2786     0.0000     1.0000 </r>
       <r>    -2.2066     0.0000     1.0000 </r>
       <r>    -2.1345     0.0000     1.0000 </r>
       <r>    -2.0625     0.0000     1.0000 </r>
       <r>    -1.9904     0.0000     1.0000 </r>
       <r>    -1.9184     0.0000     1.0000 </r>
       <r>    -1.8463     0.0000     1.0000 </r>
       <r>    -1.7742     0.0000     1.0000 </r>
       <r>    -1.7022     0.0000     1.0000 </r>
       <r>    -1.6301     0.0000     1.0000 </r>
       <r>    -1.5581     0.0000     1.0000 </r>
       <r>    -1.4860     0.0000     1.0000 </r>
       <r>    -1.4140     0.0000     1.0000 </r>
       <r>    -1.3419     0.0000     1.0000 </r>
       <r>    -1.2699     0.0000     1.0000 </r>
       <r>    -1.1978     0.0000     1.0000 </r>
       <r>    -1.1257     0.0000     1.0000 </r>
       <r>    -1.0537     0.0000     1.0000 </r>
       <r>    -0.9816     0.0000     1.0000 </r>
       <r>    -0.9096     0.7724     1.0389 </r>
       <r>    -0.8375     0.3278     1.0601 </r>
       <r>    -0.7655     0.3905     1.0860 </r>
       <r>    -0.6934     0.4465     1.1162 </r>
       <r>    -0.6214     0.4958     1.1502 </r>
       <r>    -0.5493     0.5383     1.1875 </r>
       <r>    -0.4772     0.5742     1.2276 </r>
       <r>    -0.4052     0.6033     1.2701 </r>
       <r>    -0.3331     0.6258     1.3144 </r>
       <r>    -0.2611     0.6415     1.3601 </r>
       <r>    -0.1890     0.6506     1.4067 </r>
       <r>    -0.1170     0.6529     1.4537 </r>
       <r>    -0.0449     0.6485     1.5006 </r>
       <r>     0.0271     0.6374     1.5470 </r>
       <r>     0.0992     0.6196     1.5923 </r>
       <r>     0.1713     0.5951     1.6361 </r>
       <r>     0.2433     0.5639     1.6779 </r>
       <r>     0.3154     0.5260     1.7172 </r>
       <r>     0.3874     0.4814     1.7535 </r>
       <r>     0.4595     0.4300     1.7864 </r>
       <r>     0.5315     0.3427     1.8147 </r>
       <r>     0.6036     0.2469     1.8358 </r>
       <r>     0.6756     0.1721     1.8508 </r>
       <r>     0.7477     0.1182     1.8612 </r>
       <r>     0.8198     0.0853     1.8684 </r>
       <r>     0.8918     0.0759     1.8740 </r>
       <r>     0.9639     0.0737     1.8794 </r>
       <r>     1.0359     0.0715     1.8846 </r>
       <r>     1.1080     0.0694     1.8897 </r>
       <r>     1.1800     0.0673     1.8946 </r>
       <r>     1.2521     0.0653     1.8994 </r>
       <r>     1.3241     0.0633     1.9041 </r>
       <r>     1.3962     0.7982     1.9518 </r>
       <r>     1.4683     0.2969     1.9727 </r>
       <r>     1.5403     0.3085     1.9945 </r>
       <r>     1.6124     0.3192     2.0172 </r>
       <r>     1.6844     0.3288     2.0405 </r>
       <r>     1.7565     0.3375     2.0645 </r>
       <r>     1.8285     0.3452     2.0891 </r>
       <r>     1.9006     0.3518     2.1142 </r>
       <r>     1.9726     0.3575     2.1398 </r>
       <r>     2.0447     0.3621     2.1657 </r>
       <r>     2.1168     0.3658     2.1920 </r>
       <r>     2.1888     0.3684     2.2184 </r>
       <r>     2.2609     0.3701     2.2450 </r>
       <r>     2.3329     0.3708     2.2717 </r>
       <r>     2.4050     0.3704     2.2984 </r>
       <r>     2.4770     0.3691     2.3251 </r>
       <r>     2.5491     0.3668     2.3516 </r>
       <r>     2.6211     0.3634     2.3779 </r>
       <r>     2.6932     0.3591     2.4040 </r>
       <r>     2.7653     0.3537     2.4296 </r>
       <r>     2.8373     0.3474     2.4549 </r>
       <r>     2.9094     0.3401     2.4797 </r>
       <r>     2.9814     0.3317     2.5039 </r>
       <r>     3.0535     0.3224     2.5275 </r>
       <r>     3.1255     0.3121     2.5503 </r>
       <r>     3.1976     0.3007     2.5724 </r>
       <r>     3.2696     0.2884     2.5936 </r>
       <r>     3.3417     0.2750     2.6139 </r>
       <r>     3.4138     0.2607     2.6333 </r>
       <r>     3.4858     0.6013     2.6634 </r>
       <r>     3.5579     1.0300     2.7217 </r>
       <r>     3.6299     1.5327     2.8136 </r>
       <r>     3.7020     2.1092     2.9444 </r>
       <r>     3.7740     1.4367     3.0834 </r>
       <r>     3.8461     0.9181     3.1497 </r>
       <r>     3.9181     0.9088     3.2156 </r>
       <r>     3.9902     0.8949     3.2806 </r>
       <r>     4.0623     0.8764     3.3444 </r>
       <r>     4.1343     0.8534     3.4068 </r>
       <r>     4.2064     0.8257     3.4673 </r>
       <r>     4.2784     0.7934     3.5256 </r>
       <r>     4.3505     0.7565     3.5815 </r>
       <r>     4.4225     0.7150     3.6346 </r>
       <r>     4.4946     0.6689     3.6844 </r>
       <r>     4.5666     0.6182     3.7308 </r>
       <r>     4.6387     0.5629     3.7734 </r>
       <r>     4.7108     0.5029     3.8118 </r>
       <r>     4.7828     0.4384     3.8458 </r>
       <r>     4.8549     0.3693     3.8749 </r>
       <r>     4.9269     0.3179     3.8996 </r>
       <r>     4.9990     0.2714     3.9208 </r>
       <r>     5.0710     0.2285     3.9388 </r>
       <r>     5.1431     0.1894     3.9538 </r>
       <r>     5.2151     0.1539     3.9662 </r>
       <r>     5.2872     0.1221     3.9761 </r>
       <r>     5.3592     0.0940     3.9839 </r>
       <r>     5.4313     0.0695     3.9897 </r>
       <r>     5.5034     0.0487     3.9940 </r>
       <r>     5.5754     0.0316     3.9968 </r>
       <r>     5.6475     0.0182     3.9986 </r>
       <r>     5.7195     0.0085     3.9996 </r>
       <r>     5.7916     0.0024     3.9999 </r>
       <r>     5.8636     0.0000     4.0000 </r>
       <r>     5.9357     0.0000     4.0000 </r>
       <r>     6.0077     0.0000     4.0000 </r>
       <r>     6.0798     0.0000     4.0000 </r>
       <r>     6.1519     0.0000     4.0000 </r>
       <r>     6.2239     0.0000     4.0000 </r>
       <r>     6.2960     0.0000     4.0000 </r>
       <r>     6.3680     0.0000     4.0000 </r>
       <r>     6.4401     0.0000     4.0000 </r>
       <r>     6.5121     0.0521     4.0017 </r>
       <r>     6.5842     0.1253     4.0080 </r>
       <r>     6.6562     0.2173     4.0202 </r>
       <r>     6.7283     0.3282     4.0397 </r>
       <r>     6.8004     0.4580     4.0679 </r>
       <r>     6.8724     0.6066     4.1062 </r>
       <r>     6.9445     0.7742     4.1558 </r>
       <r>     7.0165     0.9606     4.2182 </r>
       <r>     7.0886     1.1659     4.2947 </r>
       <r>     7.1606     1.3900     4.3867 </r>
       <r>     7.2327     1.6331     4.4955 </r>
       <r>     7.3047     1.9718     4.6478 </r>
       <r>     7.3768     1.6404     4.7627 </r>
       <r>     7.4489     1.2798     4.8712 </r>
       <r>     7.5209     0.3760     4.9341 </r>
       <r>     7.5930     0.1991     4.9505 </r>
       <r>     7.6650     0.1625     4.9635 </r>
       <r>     7.7371     0.1319     4.9740 </r>
       <r>     7.8091     0.1093     4.9827 </r>
       <r>     7.8812     0.0941     4.9900 </r>
       <r>     7.9532     0.0863     4.9964 </r>
       <r>     8.0253     0.0859     5.0026 </r>
       <r>     8.0974     0.0930     5.0090 </r>
       <r>     8.1694     0.1074     5.0162 </r>
       <r>     8.2415     0.1293     5.0246 </r>
       <r>     8.3135     0.1586     5.0350 </r>
       <r>     8.3856     0.1931     5.0476 </r>
       <r>     8.4576     0.2249     5.0627 </r>
       <r>     8.5297     0.2533     5.0800 </r>
       <r>     8.6017     0.2784     5.0991 </r>
       <r>     8.6738     0.3001     5.1200 </r>
       <r>     8.7459     0.3184     5.1423 </r>
       <r>     8.8179     0.3334     5.1658 </r>
       <r>     8.8900     0.3450     5.1903 </r>
       <r>     8.9620     0.3533     5.2155 </r>
       <r>     9.0341     0.3582     5.2411 </r>
       <r>     9.1061     0.3597     5.2670 </r>
       <r>     9.1782     0.3579     5.2929 </r>
       <r>     9.2502     0.3527     5.3185 </r>
       <r>     9.3223     0.3691     5.3443 </r>
       <r>     9.3944     0.3925     5.3717 </r>
       <r>     9.4664     0.4144     5.4008 </r>
       <r>     9.5385     0.4348     5.4314 </r>
       <r>     9.6105     0.4537     5.4634 </r>
       <r>     9.6826     0.4712     5.4968 </r>
       <r>     9.7546     0.4872     5.5313 </r>
       <r>     9.8267     0.5017     5.5669 </r>
       <r>     9.8987     0.5147     5.6036 </r>
       <r>     9.9708     0.5263     5.6411 </r>
       <r>    10.0429     0.5364     5.6794 </r>
       <r>    10.1149     0.5451     5.7183 </r>
       <r>    10.1870     0.5522     5.7579 </r>
       <r>    10.2590     0.5579     5.7979 </r>
       <r>    10.3311     0.5621     5.8382 </r>
       <r>    10.4031     0.5649     5.8789 </r>
       <r>    10.4752     0.5661     5.9196 </r>
       <r>    10.5472     0.5659     5.9604 </r>
       <r>    10.6193     0.5643     6.0011 </r>
       <r>    10.6914     0.5611     6.0417 </r>
       <r>    10.7634     0.5565     6.0820 </r>
       <r>    10.8355     0.5504     6.1219 </r>
       <r>    10.9075     0.5429     6.1612 </r>
       <r>    10.9796     0.5338     6.2001 </r>
       <r>    11.0516     0.5233     6.2381 </r>
       <r>    11.1237     0.5114     6.2754 </r>
       <r>    11.1957     0.4979     6.3118 </r>
       <r>    11.2678     0.4830     6.3472 </r>
       <r>    11.3399     0.4666     6.3814 </r>
       <r>    11.4119     0.4488     6.4144 </r>
       <r>    11.4840     0.4294     6.4460 </r>
       <r>    11.5560     0.8107     6.5122 </r>
       <r>    11.6281     0.3000     6.5337 </r>
       <r>    11.7001     0.3031     6.5554 </r>
       <r>    11.7722     0.3060     6.5774 </r>
       <r>    11.8442     0.3087     6.5995 </r>
       <r>    11.9163     0.3113     6.6219 </r>
       <r>    11.9884     0.3136     6.6444 </r>
       <r>    12.0604     0.3158     6.6670 </r>
       <r>    12.1325     0.3178     6.6899 </r>
       <r>    12.2045     0.3196     6.7128 </r>
       <r>    12.2766     1.3500     6.7860 </r>
       <r>    12.3486     0.7470     6.8431 </r>
       <r>    12.4207     0.6622     6.8938 </r>
       <r>    12.4927     0.5816     6.9386 </r>
       <r>    12.5648     0.5052     6.9777 </r>
       <r>    12.6369     0.4331     7.0115 </r>
       <r>    12.7089     0.3651     7.0402 </r>
       <r>    12.7810     0.3013     7.0642 </r>
       <r>    12.8530     0.2418     7.0838 </r>
       <r>    12.9251     3.0014     7.2808 </r>
       <r>    12.9971     2.1741     7.4513 </r>
       <r>    13.0692     1.4991     7.5843 </r>
       <r>    13.1412     1.3883     7.6886 </r>
       <r>    13.2133     1.2310     7.7833 </r>
       <r>    13.2854     1.0271     7.8649 </r>
       <r>    13.3574     0.7767     7.9302 </r>
       <r>    13.4295     0.4798     7.9757 </r>
       <r>    13.5015     0.1363     7.9982 </r>
       <r>    13.5736     0.0000     8.0000 </r>
       <r>    13.6456     0.0000     8.0000 </r>
       <r>    13.7177     0.0000     8.0000 </r>
       <r>    13.7897     0.0000     8.0000 </r>
       <r>    13.8618     0.0000     8.0000 </r>
       <r>    13.9339     0.0000     8.0000 </r>
       <r>    14.0059     0.0000     8.0000 </r>
       <r>    14.0780     0.0000     8.0000 </r>
       <r>    14.1500     0.0000     8.0000 </r>
       <r>    14.2221     0.0000     8.0000 </r>
       <r>    14.2941     0.0000     8.0000 </r>
       <r>    14.3662     0.0000     8.0000 </r>
       <r>    14.4382     0.0000     8.0000 </r>
       <r>    14.5103     0.0000     8.0000 </r>
      </set>
      <set comment="spin 2">
       <r>    -7.1064     0.0000     0.0000 </r>
       <r>    -7.0343     0.0000     0.0000 </r>
       <r>    -6.9622     0.0000     0.0000 </r>
       <r>    -6.8902     0.0000     0.0000 </r>
       <r>    -6.8181     0.0000     0.0000 </r>
       <r>    -6.7461     0.0000     0.0000 </r>
       <r>    -6.6740     0.0000     0.0000 </r>
       <r>    -6.6020     0.0000     0.0000 </r>
       <r>    -6.5299     0.0000     0.0000 </r>
       <r>    -6.4579     0.0000     0.0000 </r>
       <r>    -6.3858     0.0000     0.0000 </r>
       <r>    -6.3137     0.0000     0.0000 </r>
       <r>    -6.2417     0.0000     0.0000 </r>
       <r>    -6.1696     0.0000     0.0000 </r>
       <r>    -6.0976     0.0001     0.0000 </r>
       <r>    -6.0255     0.0012     0.0000 </r>
       <r>    -5.9535     0.0035     0.0002 </r>
       <r>    -5.8814     0.0071     0.0006 </r>
       <r>    -5.8094     0.0120     0.0013 </r>
       <r>    -5.7373     0.0181     0.0023 </r>
       <r>    -5.6652     0.0255     0.0039 </r>
       <r>    -5.5932     0.0342     0.0060 </r>
       <r>    -5.5211     0.0441     0.0089 </r>
       <r>    -5.4491     0.0552     0.0124 </r>
       <r>    -5.3770     0.0677     0.0168 </r>
       <r>    -5.3050     0.0813     0.0222 </r>
       <r>    -5.2329     0.0963     0.0286 </r>
       <r>    -5.1609     0.1125     0.0361 </r>
       <r>    -5.0888     0.1300     0.0448 </r>
       <r>    -5.0167     0.1487     0.0549 </r>
       <r>    -4.9447     0.1687     0.0663 </r>
       <r>    -4.8726     0.1899     0.0792 </r>
       <r>    -4.8006     0.2124     0.0937 </r>
       <r>    -4.7285     0.2352     0.1098 </r>
       <r>    -4.6565     0.2539     0.1275 </r>
       <r>    -4.5844     0.2736     0.1465 </r>
       <r>    -4.5124     0.2944     0.1669 </r>
       <r>    -4.4403     0.3161     0.1889 </r>
       <r>    -4.3682     0.3390     0.2125 </r>
       <r>    -4.2962     0.3628     0.2378 </r>
       <r>    -4.2241     0.3877     0.2648 </r>
       <r>    -4.1521     0.4257     0.2941 </r>
       <r>    -4.0800     0.4618     0.3261 </r>
       <r>    -4.0080     0.4930     0.3605 </r>
       <r>    -3.9359     0.5194     0.3970 </r>
       <r>    -3.8639     0.5410     0.4352 </r>
       <r>    -3.7918     0.5577     0.4748 </r>
       <r>    -3.7197     0.5696     0.5155 </r>
       <r>    -3.6477     0.5767     0.5568 </r>
       <r>    -3.5756     0.5789     0.5985 </r>
       <r>    -3.5036     0.5764     0.6401 </r>
       <r>    -3.4315     0.5689     0.6814 </r>
       <r>    -3.3595     0.5567     0.7220 </r>
       <r>    -3.2874     0.5396     0.7615 </r>
       <r>    -3.2154     0.5177     0.7996 </r>
       <r>    -3.1433     0.4909     0.8360 </r>
       <r>    -3.0712     0.4593     0.8703 </r>
       <r>    -2.9992     0.4229     0.9021 </r>
       <r>    -2.9271     0.3817     0.9311 </r>
       <r>    -2.8551     0.3356     0.9570 </r>
       <r>    -2.7830     0.5140     1.0000 </r>
       <r>    -2.7110     0.0000     1.0000 </r>
       <r>    -2.6389     0.0000     1.0000 </r>
       <r>    -2.5669     0.0000     1.0000 </r>
       <r>    -2.4948     0.0000     1.0000 </r>
       <r>    -2.4227     0.0000     1.0000 </r>
       <r>    -2.3507     0.0000     1.0000 </r>
       <r>    -2.2786     0.0000     1.0000 </r>
       <r>    -2.2066     0.0000     1.0000 </r>
       <r>    -2.1345     0.0000     1.0000 </r>
       <r>    -2.0625     0.0000     1.0000 </r>
       <r>    -1.9904     0.0000     1.0000 </r>
       <r>    -1.9184     0.0000     1.0000 </r>
       <r>    -1.8463     0.0000     1.0000 </r>
       <r>    -1.7742     0.0000     1.0000 </r>
       <r>    -1.7022     0.0000     1.0000 </r>
       <r>    -1.6301     0.0000     1.0000 </r>
       <r>    -1.5581     0.0000     1.0000 </r>
       <r>    -1.4860     0.0000     1.0000 </r>
       <r>    -1.4140     0.0000     1.0000 </r>
       <r>    -1.3419     0.0000     1.0000 </r>
       <r>    -1.2699     0.0000     1.0000 </r>
       <r>    -1.1978     0.0000     1.0000 </r>
       <r>    -1.1257     0.0000     1.0000 </r>
       <r>    -1.0537     0.0000     1.0000 </r>
       <r>    -0.9816     0.0000     1.0000 </r>
       <r>    -0.9096     0.7724     1.0389 </r>
       <r>    -0.8375     0.3278     1.0601 </r>
       <r>    -0.7655     0.3905     1.0860 </r>
       <r>    -0.6934     0.4465     1.1162 </r>
       <r>    -0.6214     0.4958     1.1502 </r>
       <r>    -0.5493     0.5383     1.1875 </r>
       <r>    -0.4772     0.5742     1.2276 </r>
       <r>    -0.4052     0.6033     1.2701 </r>
       <r>    -0.3331     0.6258     1.3144 </r>
       <r>    -0.2611     0.6415     1.3601 </r>
       <r>    -0.1890     0.6506     1.4067 </r>
       <r>    -0.1170     0.6529     1.4537 </r>
       <r>    -0.0449     0.6485     1.5006 </r>
       <r>     0.0271     0.6374     1.5470 </r>
       <r>     0.0992     0.6196     1.5923 </r>
       <r>     0.1713     0.5951     1.6361 </r>
       <r>     0.2433     0.5639     1.6779 </r>
       <r>     0.3154     0.5260     1.7172 </r>
       <r>     0.3874     0.4814     1.7535 </r>
       <r>     0.4595     0.4300     1.7864 </r>
       <r>     0.5315     0.3427     1.8147 </r>
       <r>     0.6036     0.2469     1.8358 </r>
       <r>     0.6756     0.1721     1.8508 </r>
       <r>     0.7477     0.1182     1.8612 </r>
       <r>     0.8198     0.0853     1.8684 </r>
       <r>     0.8918     0.0759     1.8740 </r>
       <r>     0.9639     0.0737     1.8794 </r>
       <r>     1.0359     0.0715     1.8846 </r>
       <r>     1.1080     0.0694     1.8897 </r>
       <r>     1.1800     0.0673     1.8946 </r>
       <r>     1.2521     0.0653     1.8994 </r>
       <r>     1.3241     0.0633     1.9041 </r>
       <r>     1.3962     0.7982     1.9518 </r>
       <r>     1.4683     0.2969     1.9727 </r>
       <r>     1.5403     0.3085     1.9945 </r>
       <r>     1.6124     0.3192     2.0172 </r>
       <r>     1.6844     0.3288     2.0405 </r>
       <r>     1.7565     0.3375     2.0645 </r>
       <r>     1.8285     0.3452     2.0891 </r>
       <r>     1.9006     0.3518     2.1142 </r>
       <r>     1.9726     0.3575     2.1398 </r>
       <r>     2.0447     0.3621     2.1657 </r>
       <r>     2.1168     0.3658     2.1920 </r>
       <r>     2.1888     0.3684     2.2184 </r>
       <r>     2.2609     0.3701     2.2450 </r>
       <r>     2.3329     0.3708     2.2717 </r>
       <r>     2.4050     0.3704     2.2984 </r>
       <r>     2.4770     0.3691     2.3251 </r>
       <r>     2.5491     0.3668     2.3516 </r>
       <r>     2.6211     0.3634     2.3779 </r>
       <r>     2.6932     0.3591     2.4040 </r>
       <r>     2.7653     0.3537     2.4296 </r>
       <r>     2.8373     0.3474     2.4549 </r>
       <r>     2.9094     0.3401     2.4797 </r>
       <r>     2.9814     0.3317     2.5039 </r>
       <r>     3.0535     0.3224     2.5275 </r>
       <r>     3.1255     0.3121     2.5503 </r>
       <r>     3.1976     0.3007     2.5724 </r>
       <r>     3.2696     0.2884     2.5936 </r>
       <r>     3.3417     0.2750     2.6139 </r>
       <r>     3.4138     0.2607     2.6333 </r>
       <r>     3.4858     0.6013     2.6634 </r>
       <r>     3.5579     1.0300     2.7217 </r>
       <r>     3.6299     1.5327     2.8136 </r>
       <r>     3.7020     2.1092     2.9444 </r>
       <r>     3.7740     1.4367     3.0834 </r>
       <r>     3.8461     0.9181     3.1497 </r>
       <r>     3.9181     0.9088     3.2156 </r>
       <r>     3.9902     0.8949     3.2806 </r>
       <r>     4.0623     0.8764     3.3444 </r>
       <r>     4.1343     0.8534     3.4068 </r>
       <r>     4.2064     0.8257     3.4673 </r>
       <r>     4.2784     0.7934     3.5256 </r>
       <r>     4.3505     0.7565     3.5815 </r>
       <r>     4.4225     0.7150     3.6346 </r>
       <r>     4.4946     0.6689     3.6844 </r>
       <r>     4.5666     0.6182     3.7308 </r>
       <r>     4.6387     0.5629     3.7734 </r>
       <r>     4.7108     0.5029     3.8118 </r>
       <r>     4.7828     0.4384     3.8458 </r>
       <r>     4.8549     0.3693     3.8749 </r>
       <r>     4.9269     0.3179     3.8996 </r>
       <r>     4.9990     0.2714     3.9208 </r>
       <r>     5.0710     0.2285     3.9388 </r>
       <r>     5.1431     0.1894     3.9538 </r>
       <r>     5.2151     0.1539     3.9662 </r>
       <r>     5.2872     0.1221     3.9761 </r>
       <r>     5.3592     0.0940     3.9839 </r>
       <r>     5.4313     0.0695     3.9897 </r>
       <r>     5.5034     0.0487     3.9940 </r>
       <r>     5.5754     0.0316     3.9968 </r>
       <r>     5.6475     0.0182     3.9986 </r>
       <r>     5.7195     0.0085     3.9996 </r>
       <r>     5.7916     0.0024     3.9999 </r>
       <r>     5.8636     0.0000     4.0000 </r>
       <r>     5.9357     0.0000     4.0000 </r>
       <r>     6.0077     0.0000     4.0000 </r>
       <r>     6.0798     0.0000     4.0000 </r>
       <r>     6.1519     0.0000     4.0000 </r>
       <r>     6.2239     0.0000     4.0000 </r>
       <r>     6.2960     0.0000     4.0000 </r>
       <r>     6.3680     0.0000     4.0000 </r>
       <r>     6.4401     0.0000     4.0000 </r>
       <r>     6.5121     0.0521     4.0017 </r>
       <r>     6.5842     0.1253     4.0080 </r>
       <r>     6.6562     0.2173     4.0202 </r>
       <r>     6.7283     0.3282     4.0397 </r>
       <r>     6.8004     0.4580     4.0679 </r>
       <r>     6.8724     0.6066     4.1062 </r>
       <r>     6.9445     0.7742     4.1558 </r>
       <r>     7.0165     0.9606     4.2182 </r>
       <r>     7.0886     1.1659     4.2947 </r>
       <r>     7.1606     1.3900     4.3867 </r>
       <r>     7.2327     1.6331     4.4955 </r>
       <r>     7.3047     1.9718     4.6478 </r>
       <r>     7.3768     1.6404     4.7627 </r>
       <r>     7.4489     1.2798     4.8712 </r>
       <r>     7.5209     0.3760     4.9341 </r>
       <r>     7.5930     0.1991     4.9505 </r>
       <r>     7.6650     0.1625     4.9635 </r>
       <r>     7.7371     0.1319     4.9740 </r>
       <r>     7.8091     0.1093     4.9827 </r>
       <r>     7.8812     0.0941     4.9900 </r>
       <r>     7.9532     0.0863     4.9964 </r>
       <r>     8.0253     0.0859     5.0026 </r>
       <r>     8.0974     0.0930     5.0090 </r>
       <r>     8.1694     0.1074     5.0162 </r>
       <r>     8.2415     0.1293     5.0246 </r>
       <r>     8.3135     0.1586     5.0350 </r>
       <r>     8.3856     0.1931     5.0476 </r>
       <r>     8.4576     0.2249     5.0627 </r>
       <r>     8.5297     0.2533     5.0800 </r>
       <r>     8.6017     0.2784     5.0991 </r>
       <r>     8.6738     0.3001     5.1200 </r>
       <r>     8.7459     0.3184     5.1423 </r>
       <r>     8.8179     0.3334     5.1658 </r>
       <r>     8.8900     0.3450     5.1903 </r>
       <r>     8.9620     0.3533     5.2155 </r>
       <r>     9.0341     0.3582     5.2411 </r>
       <r>     9.1061     0.3597     5.2670 </r>
       <r>     9.1782     0.3579     5.2929 </r>
       <r>     9.2502     0.3527     5.3185 </r>
       <r>     9.3223     0.3691     5.3443 </r>
       <r>     9.3944     0.3925     5.3717 </r>
       <r>     9.4664     0.4144     5.4008 </r>
       <r>     9.5385     0.4348     5.4314 </r>
       <r>     9.6105     0.4537     5.4634 </r>
       <r>     9.6826     0.4712     5.4968 </r>
       <r>     9.7546     0.4872     5.5313 </r>
       <r>     9.8267     0.5017     5.5669 </r>
       <r>     9.8987     0.5147     5.6036 </r>
       <r>     9.9708     0.5263     5.6411 </r>
       <r>    10.0429     0.5364     5.6794 </r>
       <r>    10.1149     0.5450     5.7183 </r>
       <r>    10.1870     0.5522     5.7579 </r>
       <r>    10.2590     0.5579     5.7979 </r>
       <r>    10.3311     0.5621     5.8382 </r>
       <r>    10.4031     0.5649     5.8789 </r>
       <r>    10.4752     0.5661     5.9196 </r>
       <r>    10.5472     0.5659     5.9604 </r>
       <r>    10.6193     0.5643     6.0011 </r>
       <r>    10.6914     0.5611     6.0417 </r>
       <r>    10.7634     0.5565     6.0820 </r>
       <r>    10.8355     0.5504     6.1219 </r>
       <r>    10.9075     0.5429     6.1612 </r>
       <r>    10.9796     0.5338     6.2001 </r>
       <r>    11.0516     0.5233     6.2381 </r>
       <r>    11.1237     0.5114     6.2754 </r>
       <r>    11.1957     0.4979     6.3118 </r>
       <r>    11.2678     0.4830     6.3472 </r>
       <r>    11.3399     0.4666     6.3814 </r>
       <r>    11.4119     0.4488     6.4144 </r>
       <r>    11.4840     0.4294     6.4460 </r>
       <r>    11.5560     0.8107     6.5122 </r>
       <r>    11.6281     0.3000     6.5337 </r>
       <r>    11.7001     0.3031     6.5554 </r>
       <r>    11.7722     0.3060     6.5774 </r>
       <r>    11.8442     0.3087     6.5995 </r>
       <r>    11.9163     0.3113     6.6219 </r>
       <r>    11.9884     0.3136     6.6444 </r>
       <r>    12.0604     0.3158     6.6670 </r>
       <r>    12.1325     0.3178     6.6899 </r>
       <r>    12.2045     0.3196     6.7128 </r>
       <r>    12.2766     1.3499     6.7861 </r>
       <r>    12.3486     0.7470     6.8431 </r>
       <r>    12.4207     0.6622     6.8938 </r>
       <r>    12.4927     0.5816     6.9386 </r>
       <r>    12.5648     0.5052     6.9777 </r>
       <r>    12.6369     0.4331     7.0115 </r>
       <r>    12.7089     0.3651     7.0402 </r>
       <r>    12.7810     0.3013     7.0642 </r>
       <r>    12.8530     0.2418     7.0838 </r>
       <r>    12.9251     3.0014     7.2808 </r>
       <r>    12.9971     2.1741     7.4513 </r>
       <r>    13.0692     1.4991     7.5843 </r>
       <r>    13.1412     1.3883     7.6887 </r>
       <r>    13.2133     1.2310     7.7833 </r>
       <r>    13.2854     1.0271     7.8649 </r>
       <r>    13.3574     0.7766     7.9302 </r>
       <r>    13.4295     0.4797     7.9757 </r>
       <r>    13.5015     0.1362     7.9982 </r>
       <r>    13.5736     0.0000     8.0000 </r>
       <r>    13.6456     0.0000     8.0000 </r>
       <r>    13.7177     0.0000     8.0000 </r>
       <r>    13.7897     0.0000     8.0000 </r>
       <r>    13.8618     0.0000     8.0000 </r>
       <r>    13.9339     0.0000     8.0000 </r>
       <r>    14.0059     0.0000     8.0000 </r>
       <r>    14.0780     0.0000     8.0000 </r>
       <r>    14.1500     0.0000     8.0000 </r>
       <r>    14.2221     0.0000     8.0000 </r>
       <r>    14.2941     0.0000     8.0000 </r>
       <r>    14.3662     0.0000     8.0000 </r>
       <r>    14.4382     0.0000     8.0000 </r>
       <r>    14.5103     0.0000     8.0000 </r>
      </set>
     </set>
    </array>
   </total>
   <partial>
    <array>
     <dimension dim="1">gridpoints</dimension>
     <dimension dim="2">spin</dimension>
     <dimension dim="3">ion</dimension>
     <field>energy</field>
     <field>    s</field>
     <field>   py</field>
     <field>   pz</field>
     <field>   px</field>
     <field>  dxy</field>
     <field>  dyz</field>
     <field>  dz2</field>
     <field>  dxz</field>
     <field>x2-y2</field>
     <set>
      <set comment="ion 1">
       <set comment="spin 1">
        <r>    -7.1064     0.0000     0.0000     0.0000     0.0000     0.0000     0.0000     0.0000     0.0000     0.0000 </r>
        <r>    -7.0343     0.0000     0.0000     0.0000     0.0000     0.0000     0.0000     0.0000     0.0000     0.0000 </r>
        <r>    -6.9622     0.0000     0.0000     0.0000     0.0000     0.0000     0.0000     0.0000     0.0000     0.0000 </r>
        <r>    -6.8902     0.0000     0.0000     0.0000     0.0000     0.0000     0.0000     0.0000     0.0000     0.0000 </r>
        <r>    -6.8181     0.0000     0.0000     0.0000     0.0000     0.0000     0.0000     0.0000     0.0000     0.0000 </r>
        <r>    -6.7461     0.0000     0.0000     0.0000     0.0000     0.0000     0.0000     0.0000     0.0000     0.0000 </r>
        <r>    -6.6740     0.0000     0.0000     0.0000     0.0000     0.0000     0.0000     0.0000     0.0000     0.0000 </r>
        <r>    -6.6020     0.0000     0.0000     0.0000     0.0000     0.0000     0.0000     0.0000     0.0000     0.0000 </r>
        <r>    -6.5299     0.0000     0.0000     0.0000     0.0000     0.0000     0.0000     0.0000     0.0000     0.0000 </r>
        <r>    -6.4579     0.0000     0.0000     0.0000     0.0000     0.0000     0.0000     0.0000     0.0000     0.0000 </r>
        <r>    -6.3858     0.0000     0.0000     0.0000     0.0000     0.0000     0.0000     0.0000     0.0000     0.0000 </r>
        <r>    -6.3137     0.0000     0.0000     0.0000     0.0000     0.0000     0.0000     0.0000     0.0000     0.0000 </r>
        <r>    -6.2417     0.0000     0.0000     0.0000     0.0000     0.0000     0.0000     0.0000     0.0000     0.0000 </r>
        <r>    -6.1696     0.0000     0.0000     0.0000     0.0000     0.0000     0.0000     0.0000     0.0000     0.0000 </r>
        <r>    -6.0976     0.0000     0.0000     0.0000     0.0000     0.0000     0.0000     0.0000     0.0000     0.0000 </r>
        <r>    -6.0255     0.0002     0.0000     0.0000     0.0000     0.0000     0.0000     0.0000     0.0000     0.0000 </r>
        <r>    -5.9535     0.0007     0.0000     0.0000     0.0000     0.0000     0.0000     0.0000     0.0000     0.0000 </r>
        <r>    -5.8814     0.0015     0.0000     0.0000     0.0000     0.0000     0.0000     0.0000     0.0000     0.0000 </r>
        <r>    -5.8094     0.0025     0.0000     0.0000     0.0000     0.0000     0.0000     0.0000     0.0000     0.0000 </r>
        <r>    -5.7373     0.0038     0.0001     0.0001     0.0001     0.0000     0.0000     0.0000     0.0000     0.0000 </r>
        <r>    -5.6652     0.0053     0.0001     0.0001     0.0001     0.0000     0.0000     0.0000     0.0000     0.0000 </r>
        <r>    -5.5932     0.0071     0.0001     0.0001     0.0001     0.0000     0.0000     0.0000     0.0000     0.0000 </r>
        <r>    -5.5211     0.0092     0.0002     0.0002     0.0002     0.0000     0.0000     0.0000     0.0000     0.0000 </r>
        <r>    -5.4491     0.0115     0.0002     0.0002     0.0002     0.0000     0.0000     0.0000     0.0000     0.0000 </r>
        <r>    -5.3770     0.0141     0.0003     0.0003     0.0003     0.0000     0.0000     0.0000     0.0000     0.0000 </r>
        <r>    -5.3050     0.0169     0.0003     0.0003     0.0003     0.0000     0.0000     0.0000     0.0000     0.0000 </r>
        <r>    -5.2329     0.0201     0.0004     0.0004     0.0004     0.0000     0.0000     0.0000     0.0000     0.0000 </r>
        <r>    -5.1609     0.0234     0.0004     0.0004     0.0004     0.0000     0.0000     0.0000     0.0000     0.0000 </r>
        <r>    -5.0888     0.0271     0.0005     0.0005     0.0005     0.0000     0.0000     0.0000     0.0000     0.0000 </r>
        <r>    -5.0167     0.0310     0.0006     0.0006     0.0006     0.0000     0.0000     0.0000     0.0000     0.0000 </r>
        <r>    -4.9447     0.0351     0.0006     0.0006     0.0006     0.0000     0.0000     0.0000     0.0000     0.0000 </r>
        <r>    -4.8726     0.0396     0.0007     0.0007     0.0007     0.0000     0.0000     0.0000     0.0000     0.0000 </r>
        <r>    -4.8006     0.0442     0.0008     0.0008     0.0008     0.0000     0.0000     0.0000     0.0000     0.0000 </r>
        <r>    -4.7285     0.0490     0.0009     0.0009     0.0009     0.0000     0.0000     0.0000     0.0000     0.0000 </r>
        <r>    -4.6565     0.0530     0.0012     0.0012     0.0012     0.0000     0.0000     0.0000     0.0000     0.0000 </r>
        <r>    -4.5844     0.0572     0.0015     0.0015     0.0015     0.0000     0.0000     0.0000     0.0000     0.0000 </r>
        <r>    -4.5124     0.0616     0.0017     0.0017     0.0017     0.0000     0.0000     0.0000     0.0000     0.0000 </r>
        <r>    -4.4403     0.0662     0.0019     0.0019     0.0019     0.0000     0.0000     0.0000     0.0000     0.0000 </r>
        <r>    -4.3682     0.0710     0.0022     0.0022     0.0022     0.0000     0.0000     0.0000     0.0000     0.0000 </r>
        <r>    -4.2962     0.0761     0.0024     0.0024     0.0024     0.0000     0.0000     0.0000     0.0000     0.0000 </r>
        <r>    -4.2241     0.0813     0.0026     0.0026     0.0026     0.0000     0.0000     0.0000     0.0000     0.0000 </r>
        <r>    -4.1521     0.0893     0.0029     0.0029     0.0029     0.0000     0.0000     0.0000     0.0000     0.0000 </r>
        <r>    -4.0800     0.0969     0.0032     0.0032     0.0032     0.0000     0.0000     0.0000     0.0000     0.0000 </r>
        <r>    -4.0080     0.1034     0.0035     0.0035     0.0035     0.0000     0.0000     0.0000     0.0000     0.0000 </r>
        <r>    -3.9359     0.1090     0.0037     0.0037     0.0037     0.0000     0.0000     0.0000     0.0000     0.0000 </r>
        <r>    -3.8639     0.1135     0.0039     0.0039     0.0039     0.0000     0.0000     0.0000     0.0000     0.0000 </r>
        <r>    -3.7918     0.1171     0.0040     0.0040     0.0040     0.0000     0.0000     0.0000     0.0000     0.0000 </r>
        <r>    -3.7197     0.1196     0.0042     0.0042     0.0042     0.0000     0.0000     0.0000     0.0000     0.0000 </r>
        <r>    -3.6477     0.1211     0.0042     0.0042     0.0042     0.0000     0.0000     0.0000     0.0000     0.0000 </r>
        <r>    -3.5756     0.1216     0.0043     0.0043     0.0043     0.0000     0.0000     0.0000     0.0000     0.0000 </r>
        <r>    -3.5036     0.1210     0.0043     0.0043     0.0043     0.0000     0.0000     0.0000     0.0000     0.0000 </r>
        <r>    -3.4315     0.1195     0.0043     0.0043     0.0043     0.0000     0.0000     0.0000     0.0000     0.0000 </r>
        <r>    -3.3595     0.1169     0.0042     0.0042     0.0042     0.0000     0.0000     0.0000     0.0000     0.0000 </r>
        <r>    -3.2874     0.1134     0.0042     0.0042     0.0042     0.0000     0.0000     0.0000     0.0000     0.0000 </r>
        <r>    -3.2154     0.1088     0.0040     0.0040     0.0040     0.0000     0.0000     0.0000     0.0000     0.0000 </r>
        <r>    -3.1433     0.1032     0.0039     0.0039     0.0039     0.0000     0.0000     0.0000     0.0000     0.0000 </r>
        <r>    -3.0712     0.0966     0.0037     0.0037     0.0037     0.0000     0.0000     0.0000     0.0000     0.0000 </r>
        <r>    -2.9992     0.0890     0.0034     0.0034     0.0034     0.0000     0.0000     0.0000     0.0000     0.0000 </r>
        <r>    -2.9271     0.0804     0.0032     0.0032     0.0032     0.0000     0.0000     0.0000     0.0000     0.0000 </r>
        <r>    -2.8551     0.0707     0.0029     0.0029     0.0029     0.0000     0.0000     0.0000     0.0000     0.0000 </r>
        <r>    -2.7830     0.1098     0.0048     0.0048     0.0048     0.0000     0.0000     0.0000     0.0000     0.0000 </r>
        <r>    -2.7110     0.0000     0.0000     0.0000     0.0000     0.0000     0.0000     0.0000     0.0000     0.0000 </r>
        <r>    -2.6389     0.0000     0.0000     0.0000     0.0000     0.0000     0.0000     0.0000     0.0000     0.0000 </r>
        <r>    -2.5669     0.0000     0.0000     0.0000     0.0000     0.0000     0.0000     0.0000     0.0000     0.0000 </r>
        <r>    -2.4948     0.0000     0.0000     0.0000     0.0000     0.0000     0.0000     0.0000     0.0000     0.0000 </r>
        <r>    -2.4227     0.0000     0.0000     0.0000     0.0000     0.0000     0.0000     0.0000     0.0000     0.0000 </r>
        <r>    -2.3507     0.0000     0.0000     0.0000     0.0000     0.0000     0.0000     0.0000     0.0000     0.0000 </r>
        <r>    -2.2786     0.0000     0.0000     0.0000     0.0000     0.0000     0.0000     0.0000     0.0000     0.0000 </r>
        <r>    -2.2066     0.0000     0.0000     0.0000     0.0000     0.0000     0.0000     0.0000     0.0000     0.0000 </r>
        <r>    -2.1345     0.0000     0.0000     0.0000     0.0000     0.0000     0.0000     0.0000     0.0000     0.0000 </r>
        <r>    -2.0625     0.0000     0.0000     0.0000     0.0000     0.0000     0.0000     0.0000     0.0000     0.0000 </r>
        <r>    -1.9904     0.0000     0.0000     0.0000     0.0000     0.0000     0.0000     0.0000     0.0000     0.0000 </r>
        <r>    -1.9184     0.0000     0.0000     0.0000     0.0000     0.0000     0.0000     0.0000     0.0000     0.0000 </r>
        <r>    -1.8463     0.0000     0.0000     0.0000     0.0000     0.0000     0.0000     0.0000     0.0000     0.0000 </r>
        <r>    -1.7742     0.0000     0.0000     0.0000     0.0000     0.0000     0.0000     0.0000     0.0000     0.0000 </r>
        <r>    -1.7022     0.0000     0.0000     0.0000     0.0000     0.0000     0.0000     0.0000     0.0000     0.0000 </r>
        <r>    -1.6301     0.0000     0.0000     0.0000     0.0000     0.0000     0.0000     0.0000     0.0000     0.0000 </r>
[...]
       </set>
       <set comment="band 5">
        <r>  0.1746  0.0100  0.0100  0.0100  0.0000  0.0000  0.0000  0.0000  0.0000 </r>
        <r>  0.1746  0.0100  0.0100  0.0100  0.0000  0.0000  0.0000  0.0000  0.0000 </r>
       </set>
       <set comment="band 6">
        <r>  0.0000  0.0398  0.0694  0.0041  0.0000  0.0000  0.0000  0.0000  0.0000 </r>
        <r>  0.0000  0.0398  0.0694  0.0041  0.0000  0.0000  0.0000  0.0000  0.0000 </r>
       </set>
       <set comment="band 7">
        <r>  0.0000  0.0357  0.0061  0.0714  0.0000  0.0000  0.0000  0.0000  0.0000 </r>
        <r>  0.0000  0.0357  0.0061  0.0714  0.0000  0.0000  0.0000  0.0000  0.0000 </r>
       </set>
       <set comment="band 8">
        <r>  0.0116  0.0380  0.0379  0.0378  0.0000  0.0000  0.0000  0.0000  0.0000 </r>
        <r>  0.0116  0.0378  0.0378  0.0379  0.0000  0.0000  0.0000  0.0000  0.0000 </r>
       </set>
      </set>
      <set comment="kpoint 5">
       <set comment="band 1">
        <r>  0.2094  0.0042  0.0042  0.0042  0.0000  0.0000  0.0000  0.0000  0.0000 </r>
        <r>  0.2094  0.0042  0.0042  0.0042  0.0000  0.0000  0.0000  0.0000  0.0000 </r>
       </set>
       <set comment="band 2">
        <r>  0.1039  0.0343  0.0343  0.0343  0.0000  0.0000  0.0000  0.0000  0.0000 </r>
        <r>  0.1039  0.0343  0.0343  0.0343  0.0000  0.0000  0.0000  0.0000  0.0000 </r>
       </set>
       <set comment="band 3">
        <r>  0.0000  0.1423  0.0461  0.0266  0.0000  0.0000  0.0000  0.0000  0.0000 </r>
        <r>  0.0000  0.1423  0.0461  0.0266  0.0000  0.0000  0.0000  0.0000  0.0000 </r>
       </set>
       <set comment="band 4">
        <r>  0.0000  0.0010  0.0973  0.1168  0.0000  0.0000  0.0000  0.0000  0.0000 </r>
        <r>  0.0000  0.0010  0.0973  0.1168  0.0000  0.0000  0.0000  0.0000  0.0000 </r>
       </set>
       <set comment="band 5">
        <r>  0.1746  0.0100  0.0100  0.0100  0.0000  0.0000  0.0000  0.0000  0.0000 </r>
        <r>  0.1746  0.0100  0.0100  0.0100  0.0000  0.0000  0.0000  0.0000  0.0000 </r>
       </set>
       <set comment="band 6">
        <r>  0.0000  0.0073  0.0723  0.0336  0.0000  0.0000  0.0000  0.0000  0.0000 </r>
        <r>  0.0000  0.0073  0.0723  0.0336  0.0000  0.0000  0.0000  0.0000  0.0000 </r>
       </set>
       <set comment="band 7">
        <r>  0.0000  0.0681  0.0032  0.0419  0.0000  0.0000  0.0000  0.0000  0.0000 </r>
        <r>  0.0000  0.0681  0.0032  0.0419  0.0000  0.0000  0.0000  0.0000  0.0000 </r>
       </set>
       <set comment="band 8">
        <r>  0.0116  0.0378  0.0378  0.0380  0.0000  0.0000  0.0000  0.0000  0.0000 </r>
        <r>  0.0116  0.0378  0.0380  0.0378  0.0000  0.0000  0.0000  0.0000  0.0000 </r>
       </set>
      </set>
      <set comment="kpoint 6">
       <set comment="band 1">
        <r>  0.2025  0.0000  0.0208  0.0000  0.0000  0.0000  0.0000  0.0000  0.0000 </r>
        <r>  0.2025  0.0000  0.0208  0.0000  0.0000  0.0000  0.0000  0.0000  0.0000 </r>
       </set>
       <set comment="band 2">
        <r>  0.1742  0.0000  0.0786  0.0000  0.0000  0.0000  0.0000  0.0000  0.0000 </r>
        <r>  0.1742  0.0000  0.0786  0.0000  0.0000  0.0000  0.0000  0.0000  0.0000 </r>
       </set>
       <set comment="band 3">
        <r>  0.0000  0.0391  0.0000  0.1572  0.0000  0.0000  0.0000  0.0000  0.0000 </r>
        <r>  0.0000  0.1595  0.0000  0.0368  0.0000  0.0000  0.0000  0.0000  0.0000 </r>
       </set>
       <set comment="band 4">
        <r>  0.0000  0.1572  0.0000  0.0391  0.0000  0.0000  0.0000  0.0000  0.0000 </r>
        <r>  0.0000  0.0368  0.0000  0.1595  0.0000  0.0000  0.0000  0.0000  0.0000 </r>
       </set>
       <set comment="band 5">
        <r>  0.0520  0.0000  0.0557  0.0000  0.0000  0.0000  0.0000  0.0000  0.0000 </r>
        <r>  0.0520  0.0000  0.0557  0.0000  0.0000  0.0000  0.0000  0.0000  0.0000 </r>
       </set>
       <set comment="band 6">
        <r>  0.0432  0.0000  0.0294  0.0000  0.0000  0.0000  0.0000  0.0000  0.0000 </r>
        <r>  0.0432  0.0000  0.0294  0.0000  0.0000  0.0000  0.0000  0.0000  0.0000 </r>
       </set>
       <set comment="band 7">
        <r>  0.0000  0.0607  0.0000  0.1052  0.0000  0.0000  0.0000  0.0000  0.0000 </r>
        <r>  0.0000  0.0940  0.0000  0.0719  0.0000  0.0000  0.0000  0.0000  0.0000 </r>
       </set>
       <set comment="band 8">
        <r>  0.0000  0.1052  0.0000  0.0607  0.0000  0.0000  0.0000  0.0000  0.0000 </r>
        <r>  0.0000  0.0719  0.0000  0.0940  0.0000  0.0000  0.0000  0.0000  0.0000 </r>
       </set>
      </set>
      <set comment="kpoint 7">
       <set comment="band 1">
        <r>  0.2025  0.0000  0.0000  0.0208  0.0000  0.0000  0.0000  0.0000  0.0000 </r>
        <r>  0.2025  0.0000  0.0000  0.0208  0.0000  0.0000  0.0000  0.0000  0.0000 </r>
       </set>
       <set comment="band 2">
        <r>  0.1742  0.0000  0.0000  0.0786  0.0000  0.0000  0.0000  0.0000  0.0000 </r>
        <r>  0.1742  0.0000  0.0000  0.0786  0.0000  0.0000  0.0000  0.0000  0.0000 </r>
       </set>
       <set comment="band 3">
        <r>  0.0000  0.0883  0.1080  0.0000  0.0000  0.0000  0.0000  0.0000  0.0000 </r>
        <r>  0.0000  0.1084  0.0879  0.0000  0.0000  0.0000  0.0000  0.0000  0.0000 </r>
       </set>
       <set comment="band 4">
        <r>  0.0000  0.1080  0.0883  0.0000  0.0000  0.0000  0.0000  0.0000  0.0000 </r>
        <r>  0.0000  0.0879  0.1084  0.0000  0.0000  0.0000  0.0000  0.0000  0.0000 </r>
       </set>
       <set comment="band 5">
        <r>  0.0520  0.0000  0.0000  0.0557  0.0000  0.0000  0.0000  0.0000  0.0000 </r>
        <r>  0.0520  0.0000  0.0000  0.0557  0.0000  0.0000  0.0000  0.0000  0.0000 </r>
       </set>
       <set comment="band 6">
        <r>  0.0432  0.0000  0.0000  0.0294  0.0000  0.0000  0.0000  0.0000  0.0000 </r>
        <r>  0.0432  0.0000  0.0000  0.0294  0.0000  0.0000  0.0000  0.0000  0.0000 </r>
       </set>
       <set comment="band 7">
        <r>  0.0000  0.0611  0.1048  0.0000  0.0000  0.0000  0.0000  0.0000  0.0000 </r>
        <r>  0.0000  0.0954  0.0704  0.0000  0.0000  0.0000  0.0000  0.0000  0.0000 </r>
       </set>
       <set comment="band 8">
        <r>  0.0000  0.1048  0.0611  0.0000  0.0000  0.0000  0.0000  0.0000  0.0000 </r>
        <r>  0.0000  0.0704  0.0954  0.0000  0.0000  0.0000  0.0000  0.0000  0.0000 </r>
       </set>
      </set>
      <set comment="kpoint 8">
       <set comment="band 1">
        <r>  0.2025  0.0208  0.0000  0.0000  0.0000  0.0000  0.0000  0.0000  0.0000 </r>
        <r>  0.2025  0.0208  0.0000  0.0000  0.0000  0.0000  0.0000  0.0000  0.0000 </r>
       </set>
       <set comment="band 2">
        <r>  0.1742  0.0786  0.0000  0.0000  0.0000  0.0000  0.0000  0.0000  0.0000 </r>
        <r>  0.1742  0.0786  0.0000  0.0000  0.0000  0.0000  0.0000  0.0000  0.0000 </r>
       </set>
       <set comment="band 3">
        <r>  0.0000  0.0000  0.0066  0.1897  0.0000  0.0000  0.0000  0.0000  0.0000 </r>
        <r>  0.0000  0.0000  0.1933  0.0030  0.0000  0.0000  0.0000  0.0000  0.0000 </r>
       </set>
       <set comment="band 4">
        <r>  0.0000  0.0000  0.1897  0.0066  0.0000  0.0000  0.0000  0.0000  0.0000 </r>
        <r>  0.0000  0.0000  0.0030  0.1933  0.0000  0.0000  0.0000  0.0000  0.0000 </r>
       </set>
       <set comment="band 5">
        <r>  0.0520  0.0557  0.0000  0.0000  0.0000  0.0000  0.0000  0.0000  0.0000 </r>
        <r>  0.0520  0.0557  0.0000  0.0000  0.0000  0.0000  0.0000  0.0000  0.0000 </r>
       </set>
       <set comment="band 6">
        <r>  0.0432  0.0294  0.0000  0.0000  0.0000  0.0000  0.0000  0.0000  0.0000 </r>
        <r>  0.0432  0.0294  0.0000  0.0000  0.0000  0.0000  0.0000  0.0000  0.0000 </r>
       </set>
       <set comment="band 7">
        <r>  0.0000  0.0000  0.0734  0.0925  0.0000  0.0000  0.0000  0.0000  0.0000 </r>
        <r>  0.0000  0.0000  0.0861  0.0798  0.0000  0.0000  0.0000  0.0000  0.0000 </r>
       </set>
       <set comment="band 8">
        <r>  0.0000  0.0000  0.0925  0.0734  0.0000  0.0000  0.0000  0.0000  0.0000 </r>
        <r>  0.0000  0.0000  0.0798  0.0861  0.0000  0.0000  0.0000  0.0000  0.0000 </r>
       </set>
      </set>
      <set comment="kpoint 9">
       <set comment="band 1">
        <r>  0.2137  0.0080  0.0118  0.0080  0.0000  0.0000  0.0000  0.0000  0.0000 </r>
        <r>  0.2137  0.0080  0.0118  0.0080  0.0000  0.0000  0.0000  0.0000  0.0000 </r>
       </set>
       <set comment="band 2">
        <r>  0.1750  0.0099  0.0428  0.0099  0.0000  0.0000  0.0000  0.0000  0.0000 </r>
        <r>  0.1750  0.0099  0.0428  0.0099  0.0000  0.0000  0.0000  0.0000  0.0000 </r>
       </set>
       <set comment="band 3">
        <r>  0.0039  0.0452  0.0586  0.0452  0.0000  0.0000  0.0000  0.0000  0.0000 </r>
        <r>  0.0039  0.0452  0.0586  0.0452  0.0000  0.0000  0.0000  0.0000  0.0000 </r>
       </set>
       <set comment="band 4">
        <r>  0.0000  0.1010  0.0000  0.1010  0.0000  0.0000  0.0000  0.0000  0.0000 </r>
        <r>  0.0000  0.1010  0.0000  0.1010  0.0000  0.0000  0.0000  0.0000  0.0000 </r>
       </set>
       <set comment="band 5">
        <r>  0.0545  0.0015  0.0410  0.0015  0.0000  0.0000  0.0000  0.0000  0.0000 </r>
        <r>  0.0545  0.0015  0.0410  0.0015  0.0000  0.0000  0.0000  0.0000  0.0000 </r>
       </set>
       <set comment="band 6">
        <r>  0.0060  0.0384  0.0004  0.0384  0.0000  0.0000  0.0000  0.0000  0.0000 </r>
        <r>  0.0060  0.0384  0.0004  0.0384  0.0000  0.0000  0.0000  0.0000  0.0000 </r>
       </set>
       <set comment="band 7">
        <r>  0.0000  0.0757  0.0000  0.0757  0.0000  0.0000  0.0000  0.0000  0.0000 </r>
        <r>  0.0000  0.0757  0.0000  0.0757  0.0000  0.0000  0.0000  0.0000  0.0000 </r>
       </set>
       <set comment="band 8">
        <r>  0.0457  0.0041  0.1254  0.0041  0.0000  0.0000  0.0000  0.0000  0.0000 </r>
        <r>  0.0456  0.0041  0.1255  0.0041  0.0000  0.0000  0.0000  0.0000  0.0000 </r>
       </set>
      </set>
      <set comment="kpoint 10">
       <set comment="band 1">
        <r>  0.2137  0.0080  0.0080  0.0118  0.0000  0.0000  0.0000  0.0000  0.0000 </r>
        <r>  0.2137  0.0080  0.0080  0.0118  0.0000  0.0000  0.0000  0.0000  0.0000 </r>
       </set>
       <set comment="band 2">
        <r>  0.1750  0.0099  0.0099  0.0428  0.0000  0.0000  0.0000  0.0000  0.0000 </r>
        <r>  0.1750  0.0099  0.0099  0.0428  0.0000  0.0000  0.0000  0.0000  0.0000 </r>
       </set>
       <set comment="band 3">
        <r>  0.0039  0.0452  0.0452  0.0586  0.0000  0.0000  0.0000  0.0000  0.0000 </r>
        <r>  0.0039  0.0452  0.0452  0.0586  0.0000  0.0000  0.0000  0.0000  0.0000 </r>
       </set>
       <set comment="band 4">
        <r>  0.0000  0.1010  0.1010  0.0000  0.0000  0.0000  0.0000  0.0000  0.0000 </r>
        <r>  0.0000  0.1010  0.1010  0.0000  0.0000  0.0000  0.0000  0.0000  0.0000 </r>
       </set>
       <set comment="band 5">
        <r>  0.0545  0.0015  0.0015  0.0410  0.0000  0.0000  0.0000  0.0000  0.0000 </r>
        <r>  0.0545  0.0015  0.0015  0.0410  0.0000  0.0000  0.0000  0.0000  0.0000 </r>
       </set>
       <set comment="band 6">
        <r>  0.0060  0.0384  0.0384  0.0004  0.0000  0.0000  0.0000  0.0000  0.0000 </r>
        <r>  0.0060  0.0384  0.0384  0.0004  0.0000  0.0000  0.0000  0.0000  0.0000 </r>
       </set>
       <set comment="band 7">
        <r>  0.0000  0.0757  0.0757  0.0000  0.0000  0.0000  0.0000  0.0000  0.0000 </r>
        <r>  0.0000  0.0757  0.0757  0.0000  0.0000  0.0000  0.0000  0.0000  0.0000 </r>
       </set>
       <set comment="band 8">
        <r>  0.0457  0.0041  0.0041  0.1254  0.0000  0.0000  0.0000  0.0000  0.0000 </r>
        <r>  0.0456  0.0041  0.0041  0.1255  0.0000  0.0000  0.0000  0.0000  0.0000 </r>
       </set>
      </set>
      <set comment="kpoint 11">
       <set comment="band 1">
        <r>  0.2137  0.0118  0.0080  0.0080  0.0000  0.0000  0.0000  0.0000  0.0000 </r>
        <r>  0.2137  0.0118  0.0080  0.0080  0.0000  0.0000  0.0000  0.0000  0.0000 </r>
       </set>
       <set comment="band 2">
        <r>  0.1750  0.0428  0.0099  0.0099  0.0000  0.0000  0.0000  0.0000  0.0000 </r>
        <r>  0.1750  0.0428  0.0099  0.0099  0.0000  0.0000  0.0000  0.0000  0.0000 </r>
       </set>
       <set comment="band 3">
        <r>  0.0039  0.0586  0.0452  0.0452  0.0000  0.0000  0.0000  0.0000  0.0000 </r>
        <r>  0.0039  0.0586  0.0452  0.0452  0.0000  0.0000  0.0000  0.0000  0.0000 </r>
       </set>
       <set comment="band 4">
        <r>  0.0000  0.0000  0.1010  0.1010  0.0000  0.0000  0.0000  0.0000  0.0000 </r>
        <r>  0.0000  0.0000  0.1010  0.1010  0.0000  0.0000  0.0000  0.0000  0.0000 </r>
       </set>
       <set comment="band 5">
        <r>  0.0545  0.0410  0.0015  0.0015  0.0000  0.0000  0.0000  0.0000  0.0000 </r>
        <r>  0.0545  0.0410  0.0015  0.0015  0.0000  0.0000  0.0000  0.0000  0.0000 </r>
       </set>
       <set comment="band 6">
        <r>  0.0060  0.0004  0.0384  0.0384  0.0000  0.0000  0.0000  0.0000  0.0000 </r>
        <r>  0.0060  0.0004  0.0384  0.0384  0.0000  0.0000  0.0000  0.0000  0.0000 </r>
       </set>
       <set comment="band 7">
        <r>  0.0000  0.0000  0.0757  0.0757  0.0000  0.0000  0.0000  0.0000  0.0000 </r>
        <r>  0.0000  0.0000  0.0757  0.0757  0.0000  0.0000  0.0000  0.0000  0.0000 </r>
       </set>
       <set comment="band 8">
        <r>  0.0457  0.1254  0.0041  0.0041  0.0000  0.0000  0.0000  0.0000  0.0000 </r>
        <r>  0.0456  0.1255  0.0041  0.0041  0.0000  0.0000  0.0000  0.0000  0.0000 </r>
       </set>
      </set>
      <set comment="kpoint 12">
       <set comment="band 1">
        <r>  0.2137  0.0080  0.0118  0.0080  0.0000  0.0000  0.0000  0.0000  0.0000 </r>
        <r>  0.2137  0.0080  0.0118  0.0080  0.0000  0.0000  0.0000  0.0000  0.0000 </r>
       </set>
       <set comment="band 2">
        <r>  0.1750  0.0099  0.0428  0.0099  0.0000  0.0000  0.0000  0.0000  0.0000 </r>
        <r>  0.1750  0.0099  0.0428  0.0099  0.0000  0.0000  0.0000  0.0000  0.0000 </r>
       </set>
       <set comment="band 3">
        <r>  0.0039  0.0452  0.0586  0.0452  0.0000  0.0000  0.0000  0.0000  0.0000 </r>
        <r>  0.0039  0.0452  0.0586  0.0452  0.0000  0.0000  0.0000  0.0000  0.0000 </r>
       </set>
       <set comment="band 4">
        <r>  0.0000  0.1010  0.0000  0.1010  0.0000  0.0000  0.0000  0.0000  0.0000 </r>
        <r>  0.0000  0.1010  0.0000  0.1010  0.0000  0.0000  0.0000  0.0000  0.0000 </r>
       </set>
       <set comment="band 5">
        <r>  0.0545  0.0015  0.0410  0.0015  0.0000  0.0000  0.0000  0.0000  0.0000 </r>
        <r>  0.0545  0.0015  0.0410  0.0015  0.0000  0.0000  0.0000  0.0000  0.0000 </r>
       </set>
       <set comment="band 6">
        <r>  0.0060  0.0384  0.0004  0.0384  0.0000  0.0000  0.0000  0.0000  0.0000 </r>
        <r>  0.0060  0.0384  0.0004  0.0384  0.0000  0.0000  0.0000  0.0000  0.0000 </r>
       </set>
       <set comment="band 7">
        <r>  0.0000  0.0757  0.0000  0.0757  0.0000  0.0000  0.0000  0.0000  0.0000 </r>
        <r>  0.0000  0.0757  0.0000  0.0757  0.0000  0.0000  0.0000  0.0000  0.0000 </r>
       </set>
       <set comment="band 8">
        <r>  0.0457  0.0041  0.1254  0.0041  0.0000  0.0000  0.0000  0.0000  0.0000 </r>
        <r>  0.0456  0.0041  0.1254  0.0041  0.0000  0.0000  0.0000  0.0000  0.0000 </r>
       </set>
      </set>
      <set comment="kpoint 13">
       <set comment="band 1">
        <r>  0.2137  0.0118  0.0080  0.0080  0.0000  0.0000  0.0000  0.0000  0.0000 </r>
        <r>  0.2137  0.0118  0.0080  0.0080  0.0000  0.0000  0.0000  0.0000  0.0000 </r>
       </set>
       <set comment="band 2">
        <r>  0.1750  0.0428  0.0099  0.0099  0.0000  0.0000  0.0000  0.0000  0.0000 </r>
        <r>  0.1750  0.0428  0.0099  0.0099  0.0000  0.0000  0.0000  0.0000  0.0000 </r>
       </set>
       <set comment="band 3">
        <r>  0.0039  0.0586  0.0452  0.0452  0.0000  0.0000  0.0000  0.0000  0.0000 </r>
        <r>  0.0039  0.0586  0.0452  0.0452  0.0000  0.0000  0.0000  0.0000  0.0000 </r>
       </set>
       <set comment="band 4">
        <r>  0.0000  0.0000  0.1010  0.1010  0.0000  0.0000  0.0000  0.0000  0.0000 </r>
        <r>  0.0000  0.0000  0.1010  0.1010  0.0000  0.0000  0.0000  0.0000  0.0000 </r>
       </set>
       <set comment="band 5">
        <r>  0.0545  0.0410  0.0015  0.0015  0.0000  0.0000  0.0000  0.0000  0.0000 </r>
        <r>  0.0545  0.0410  0.0015  0.0015  0.0000  0.0000  0.0000  0.0000  0.0000 </r>
       </set>
       <set comment="band 6">
        <r>  0.0060  0.0004  0.0384  0.0384  0.0000  0.0000  0.0000  0.0000  0.0000 </r>
        <r>  0.0060  0.0004  0.0384  0.0384  0.0000  0.0000  0.0000  0.0000  0.0000 </r>
       </set>
       <set comment="band 7">
        <r>  0.0000  0.0000  0.0757  0.0757  0.0000  0.0000  0.0000  0.0000  0.0000 </r>
        <r>  0.0000  0.0000  0.0757  0.0757  0.0000  0.0000  0.0000  0.0000  0.0000 </r>
       </set>
       <set comment="band 8">
        <r>  0.0457  0.1254  0.0041  0.0041  0.0000  0.0000  0.0000  0.0000  0.0000 </r>
        <r>  0.0456  0.1254  0.0041  0.0041  0.0000  0.0000  0.0000  0.0000  0.0000 </r>
       </set>
      </set>
      <set comment="kpoint 14">
       <set comment="band 1">
        <r>  0.2137  0.0080  0.0080  0.0118  0.0000  0.0000  0.0000  0.0000  0.0000 </r>
        <r>  0.2137  0.0080  0.0080  0.0118  0.0000  0.0000  0.0000  0.0000  0.0000 </r>
       </set>
       <set comment="band 2">
        <r>  0.1750  0.0099  0.0099  0.0428  0.0000  0.0000  0.0000  0.0000  0.0000 </r>
        <r>  0.1750  0.0099  0.0099  0.0428  0.0000  0.0000  0.0000  0.0000  0.0000 </r>
       </set>
       <set comment="band 3">
        <r>  0.0039  0.0452  0.0452  0.0586  0.0000  0.0000  0.0000  0.0000  0.0000 </r>
        <r>  0.0039  0.0452  0.0452  0.0586  0.0000  0.0000  0.0000  0.0000  0.0000 </r>
       </set>
       <set comment="band 4">
        <r>  0.0000  0.1010  0.1010  0.0000  0.0000  0.0000  0.0000  0.0000  0.0000 </r>
        <r>  0.0000  0.1010  0.1010  0.0000  0.0000  0.0000  0.0000  0.0000  0.0000 </r>
       </set>
       <set comment="band 5">
        <r>  0.0545  0.0015  0.0015  0.0410  0.0000  0.0000  0.0000  0.0000  0.0000 </r>
        <r>  0.0545  0.0015  0.0015  0.0410  0.0000  0.0000  0.0000  0.0000  0.0000 </r>
       </set>
       <set comment="band 6">
        <r>  0.0060  0.0384  0.0384  0.0004  0.0000  0.0000  0.0000  0.0000  0.0000 </r>
        <r>  0.0060  0.0384  0.0384  0.0004  0.0000  0.0000  0.0000  0.0000  0.0000 </r>
       </set>
       <set comment="band 7">
        <r>  0.0000  0.0757  0.0757  0.0000  0.0000  0.0000  0.0000  0.0000  0.0000 </r>
        <r>  0.0000  0.0757  0.0757  0.0000  0.0000  0.0000  0.0000  0.0000  0.0000 </r>
       </set>
       <set comment="band 8">
        <r>  0.0456  0.0041  0.0041  0.1254  0.0000  0.0000  0.0000  0.0000  0.0000 </r>
        <r>  0.0457  0.0041  0.0041  0.1254  0.0000  0.0000  0.0000  0.0000  0.0000 </r>
       </set>
      </set>
     </set>
    </set>
   </array>
  </projected>
 </calculation>
 <structure name="finalpos" >
  <crystal>
   <varray name="basis" >
    <v>      -0.00000000       2.71782607       2.71782607 </v>
    <v>       2.71782607      -0.00000000       2.71782607 </v>
    <v>       2.71782607       2.71782607       0.00000000 </v>
   </varray>
   <i name="volume">     40.15087140 </i>
   <varray name="rec_basis" >
    <v>      -0.18397057       0.18397057       0.18397057 </v>
    <v>       0.18397057      -0.18397057       0.18397057 </v>
    <v>       0.18397057       0.18397057      -0.18397057 </v>
   </varray>
  </crystal>
  <varray name="positions" >
   <v>       0.00000000       0.00000000       0.00000000 </v>
   <v>       0.25000000       0.25000000       0.25000000 </v>
  </varray>
 </structure>
</modeling>
