 vasp.6.2.1 16May21 (build Dec 17 2021 11:21:50) complex
 executed on             LinuxGNU date 2022.09.17  08:55:11
 running on  192 total cores
 distrk:  each k-point on  192 cores,    1 groups
 distr:  one band on NCORE=  24 cores,    8 groups


--------------------------------------------------------------------------------------------------------


 INCAR:
   ALGO = Normal
   EDIFF = 1e-07
   ENAUG = 1360
   ENCUT = 700
   GGA = Ps
   IBRION = 2
   ISIF = 3
   ISMEAR = 0
   ISPIN = 2
   LAECHG = False
   LASPH = True
   LCHARG = False
   LELF = False
   LMAXMIX = 4
   LMIXTAU = True
   LORBIT = 11
   LREAL = False
   LVTOT = True
   LWAVE = False
   MAGMOM = 10*0.6
   NELM = 200
   NPAR = 8
   NSW = 0
   PREC = Accurate
   SIGMA = 0.05

 POTCAR:    PAW_PBE Mg 13Apr2007
 POTCAR:    PAW_PBE Sb 06Sep2000
 WARNING: For LVTOT=.TRUE., VASP.5.x writes the TOTAL local potential to the
     file LOCPOT. If you want only the Hartree contributions, use LVHAR=.TRUE.
     instead.

 POTCAR:    PAW_PBE Mg 13Apr2007
   VRHFIN =Mg: s2p0
   LEXCH  = PE
   EATOM  =    23.0369 eV,    1.6932 Ry

   TITEL  = PAW_PBE Mg 13Apr2007
   LULTRA =        F    use ultrasoft PP ?
   IUNSCR =        1    unscreen: 0-lin 1-nonlin 2-no
   RPACOR =    1.500    partial core radius
   POMASS =   24.305; ZVAL   =    2.000    mass and valenz
   RCORE  =    2.000    outmost cutoff radius
   RWIGS  =    2.880; RWIGS  =    1.524    wigner-seitz radius (au A)
   ENMAX  =  200.000; ENMIN  =  100.000 eV
   RCLOC  =    1.506    cutoff for local pot
   LCOR   =        T    correct aug charges
   LPAW   =        T    paw PP
   EAUG   =  454.734
   DEXC   =    0.000
   RMAX   =    2.045    core radius for proj-oper
   RAUG   =    1.300    factor for augmentation sphere
   RDEP   =    2.025    radius for radial grids
   RDEPT  =    1.942    core radius for aug-charge

   Atomic configuration
    6 entries
     n  l   j            E        occ.
     1  0  0.50     -1259.6230   2.0000
     2  0  0.50       -79.8442   2.0000
     2  1  1.50       -46.6121   6.0000
     3  0  0.50        -4.7055   2.0000
     3  1  0.50        -1.3660   0.0000
     3  2  1.50        -1.3606   0.0000
   Description
     l       E           TYP  RCUT    TYP  RCUT
     0     -4.7054661     23  2.000
     0     27.2116520     23  2.000
     1      1.3605826     23  2.000
     1     27.2116520     23  2.000
     2     -1.3605826     23  2.000
  local pseudopotential read in
  partial core-charges read in
  partial kinetic energy density read in
  atomic valenz-charges read in
  non local Contribution for L=           0  read in
    real space projection operators read in
  non local Contribution for L=           0  read in
    real space projection operators read in
  non local Contribution for L=           1  read in
    real space projection operators read in
  non local Contribution for L=           1  read in
    real space projection operators read in
  non local Contribution for L=           2  read in
    real space projection operators read in
    PAW grid and wavefunctions read in

   number of l-projection  operators is LMAX  =           5
   number of lm-projection operators is LMMAX =          13

 POTCAR:    PAW_PBE Sb 06Sep2000
   VRHFIN =Sb: s2p3
   LEXCH  = PE
   EATOM  =   149.9515 eV,   11.0211 Ry

   TITEL  = PAW_PBE Sb 06Sep2000
   LULTRA =        F    use ultrasoft PP ?
   IUNSCR =        1    unscreen: 0-lin 1-nonlin 2-no
   RPACOR =    2.200    partial core radius
   POMASS =  121.750; ZVAL   =    5.000    mass and valenz
   RCORE  =    2.300    outmost cutoff radius
   RWIGS  =    2.980; RWIGS  =    1.577    wigner-seitz radius (au A)
   ENMAX  =  172.069; ENMIN  =  129.052 eV
   ICORE  =        3    local potential
   LCOR   =        T    correct aug charges
   LPAW   =        T    paw PP
   EAUG   =  380.513
   DEXC   =    0.000
   RMAX   =    2.346    core radius for proj-oper
   RAUG   =    1.300    factor for augmentation sphere
   RDEP   =    2.360    radius for radial grids
   RDEPT  =    2.192    core radius for aug-charge

   Atomic configuration
   13 entries
     n  l   j            E        occ.
     1  0  0.50    -30298.2797   2.0000
     2  0  0.50     -4610.2252   2.0000
     2  1  1.50     -4138.3407   6.0000
     3  0  0.50      -903.8815   2.0000
     3  1  1.50      -750.1337   6.0000
     3  2  2.50      -515.7092  10.0000
     4  0  0.50      -148.8034   2.0000
     4  1  1.50      -101.7581   6.0000
     4  2  2.50       -33.5048  10.0000
     5  0  0.50       -12.8298   2.0000
     5  1  0.50        -4.8276   3.0000
     5  2  1.50        -4.0817   0.0000
     4  3  2.50        -4.0817   0.0000
   Description
     l       E           TYP  RCUT    TYP  RCUT
     0    -12.8297861     23  2.300
     0     13.6058260     23  2.300
     1     -4.8275512     23  2.300
     1     -0.7245443     23  2.300
     2     -4.0817478     23  2.300
     3     -1.3605826     23  2.300
  local pseudopotential read in
  partial core-charges read in
  partial kinetic energy density read in
  atomic valenz-charges read in
  non local Contribution for L=           0  read in
    real space projection operators read in
  non local Contribution for L=           0  read in
    real space projection operators read in
  non local Contribution for L=           1  read in
    real space projection operators read in
  non local Contribution for L=           1  read in
    real space projection operators read in
  non local Contribution for L=           2  read in
    real space projection operators read in
    PAW grid and wavefunctions read in

   number of l-projection  operators is LMAX  =           5
   number of lm-projection operators is LMMAX =          13

 -----------------------------------------------------------------------------
|                                                                             |
|               ----> ADVICE to this user running VASP <----                  |
|                                                                             |
|     You enforced a specific xc type in the INCAR file but a different       |
|     type was found in the POTCAR file.                                      |
|     I HOPE YOU KNOW WHAT YOU ARE DOING!                                     |
|                                                                             |
 -----------------------------------------------------------------------------

  PAW_PBE Mg 13Apr2007                  :
 energy of atom  1       EATOM=  -23.0369
 kinetic energy error for atom=    0.0000 (will be added to EATOM!!)
  PAW_PBE Sb 06Sep2000                  :
 energy of atom  2       EATOM= -149.9515
 kinetic energy error for atom=    0.0002 (will be added to EATOM!!)


 POSCAR: Mg6 Sb4
  positions in direct lattice
  No initial velocities read in
 exchange correlation table for  LEXCH =       14
   RHO(1)=    0.500       N(1)  =     2000
   RHO(2)=  100.500       N(2)  =     4000



--------------------------------------------------------------------------------------------------------


 ion  position               nearest neighbor table
   1  0.000  0.000  0.001-   9 3.12   9 3.12  10 3.12   7 3.13   7 3.13   8 3.13
   2  0.500  0.500  0.000-   8 3.12  10 3.12   8 3.12  10 3.12   9 3.12   7 3.12
   3  0.833  0.500  0.368-   9 2.85  10 2.85  10 2.85   7 2.96   5 3.28   6 3.28   6 3.28
   4  0.333  0.000  0.368-  10 2.85   9 2.85   9 2.85   8 2.96   6 3.28   5 3.28   5 3.28
   5  0.167  0.500  0.632-   7 2.85   8 2.85   8 2.85   9 2.96   3 3.28   4 3.28   4 3.28
   6  0.667  0.000  0.632-   8 2.85   7 2.85   7 2.85  10 2.96   4 3.28   3 3.28   3 3.28
   7  0.833  0.500  0.775-   5 2.85   6 2.85   6 2.85   3 2.96   2 3.12   1 3.13   1 3.13
   8  0.333  0.000  0.775-   6 2.85   5 2.85   5 2.85   4 2.96   2 3.12   2 3.12   1 3.13
   9  0.167  0.500  0.225-   3 2.85   4 2.85   4 2.85   5 2.96   1 3.12   1 3.12   2 3.12
  10  0.667  0.000  0.225-   4 2.85   3 2.85   3 2.85   6 2.96   1 3.12   2 3.12   2 3.12

  LATTYP: Found a simple orthorhombic cell.
 ALAT       =     4.6007429778
 B/A-ratio  =     1.5826422026
 C/A-ratio  =     1.7320508076

  Lattice vectors:

 A1 = (   4.6007429778,   0.0000000000,   0.0000000000)
 A2 = (   0.0000000000,   0.0000000000,   7.2813300000)
 A3 = (   0.0000000000,  -7.9687205902,   0.0000000000)


Analysis of symmetry for initial positions (statically):
=====================================================================
 Subroutine PRICEL returns:
 Original cell was already a primitive cell.


 Routine SETGRP: Setting up the symmetry group for a
 simple orthorhombic supercell.


 Subroutine GETGRP returns: Found  2 space group operations
 (whereof  2 operations were pure point group operations)
 out of a pool of  8 trial point group operations.


The static configuration has the point symmetry C_1h.


Analysis of symmetry for dynamics (positions and initial velocities):
=====================================================================
 Subroutine PRICEL returns:
 Original cell was already a primitive cell.


 Routine SETGRP: Setting up the symmetry group for a
 simple orthorhombic supercell.


 Subroutine GETGRP returns: Found  2 space group operations
 (whereof  2 operations were pure point group operations)
 out of a pool of  8 trial point group operations.


The dynamic configuration has the point symmetry C_1h.


Analysis of structural, dynamic, and magnetic symmetry:
=====================================================================
 Subroutine PRICEL returns:
 Original cell was already a primitive cell.


 Routine SETGRP: Setting up the symmetry group for a
 simple orthorhombic supercell.


 Subroutine GETGRP returns: Found  2 space group operations
 (whereof  2 operations were pure point group operations)
 out of a pool of  8 trial point group operations.


The overall configuration has the point symmetry C_1h.


 Subroutine INISYM returns: Found  2 space group operations
 (whereof  2 operations are pure point group operations),
 and found     1 'primitive' translations


----------------------------------------------------------------------------------------

                                     Primitive cell

  volume of cell :     266.9484

  direct lattice vectors                    reciprocal lattice vectors
     0.000000000 -7.968720590  0.000000000     0.000000000 -0.125490659  0.000000000
     4.600742978  0.000000000  0.000000000     0.217356198  0.000000000 -0.000000000
     0.000000000  0.000000000  7.281330000    -0.000000000  0.000000000  0.137337547

  length of vectors
     7.968720590  4.600742978  7.281330000     0.125490659  0.217356198  0.137337547

  position of ions in fractional coordinates (direct lattice)
     0.000000000  0.000000000  0.001373375
     0.500000000  0.500000000  0.000000000
     0.833333333  0.500000000  0.368325000
     0.333333333  0.000000000  0.368325000
     0.166666667  0.500000000  0.631675000
     0.666666667  0.000000000  0.631675000
     0.833333333  0.500000000  0.774749000
     0.333333333  0.000000000  0.774749000
     0.166666667  0.500000000  0.225251000
     0.666666667  0.000000000  0.225251000

  ion indices of the primitive-cell ions
   primitive index   ion index
                 1           1
                 2           2
                 3           3
                 4           4
                 5           5
                 6           6
                 7           7
                 8           8
                 9           9
                10          10

----------------------------------------------------------------------------------------



 KPOINTS: pymatgen with grid density = 7000 / numb

Automatic generation of k-mesh.
 Grid dimensions read from file:
 generate k-points for:    7   12    7

 Generating k-lattice:

  Cartesian coordinates                     Fractional coordinates (reciprocal lattice)
     0.000000000 -0.017927237  0.000000000     0.142857143  0.000000000  0.000000000
     0.018113016  0.000000000 -0.000000000     0.000000000  0.083333333  0.000000000
    -0.000000000  0.000000000  0.019619650     0.000000000  0.000000000  0.142857143

  Length of vectors
     0.017927237  0.018113016  0.019619650

  Shift w.r.t. Gamma in fractional coordinates (k-lattice)
     0.000000000  0.000000000  0.000000000


 Subroutine IBZKPT returns following result:
 ===========================================

 Found    175 irreducible k-points:

 Following reciprocal coordinates:
            Coordinates               Weight
  0.000000  0.000000  0.000000      1.000000
  0.142857  0.000000  0.000000      2.000000
  0.285714  0.000000  0.000000      2.000000
  0.428571  0.000000  0.000000      2.000000
  0.000000  0.083333  0.000000      2.000000
  0.142857  0.083333  0.000000      4.000000
  0.285714  0.083333  0.000000      4.000000
  0.428571  0.083333  0.000000      4.000000
  0.000000  0.166667  0.000000      2.000000
  0.142857  0.166667  0.000000      4.000000
  0.285714  0.166667  0.000000      4.000000
  0.428571  0.166667  0.000000      4.000000
  0.000000  0.250000  0.000000      2.000000
  0.142857  0.250000  0.000000      4.000000
  0.285714  0.250000  0.000000      4.000000
  0.428571  0.250000  0.000000      4.000000
  0.000000  0.333333  0.000000      2.000000
  0.142857  0.333333  0.000000      4.000000
  0.285714  0.333333  0.000000      4.000000
  0.428571  0.333333  0.000000      4.000000
  0.000000  0.416667  0.000000      2.000000
  0.142857  0.416667  0.000000      4.000000
  0.285714  0.416667  0.000000      4.000000
  0.428571  0.416667  0.000000      4.000000
  0.000000  0.500000  0.000000      1.000000
  0.142857  0.500000  0.000000      2.000000
  0.285714  0.500000  0.000000      2.000000
  0.428571  0.500000  0.000000      2.000000
  0.000000  0.000000  0.142857      2.000000
  0.142857  0.000000  0.142857      2.000000
 -0.142857  0.000000  0.142857      2.000000
  0.285714  0.000000  0.142857      2.000000
 -0.285714  0.000000  0.142857      2.000000
  0.428571  0.000000  0.142857      2.000000
 -0.428571  0.000000  0.142857      2.000000
  0.000000  0.083333  0.142857      4.000000
  0.142857  0.083333  0.142857      4.000000
 -0.142857 -0.083333  0.142857      4.000000
  0.285714  0.083333  0.142857      4.000000
 -0.285714 -0.083333  0.142857      4.000000
  0.428571  0.083333  0.142857      4.000000
 -0.428571 -0.083333  0.142857      4.000000
  0.000000  0.166667  0.142857      4.000000
  0.142857  0.166667  0.142857      4.000000
 -0.142857 -0.166667  0.142857      4.000000
  0.285714  0.166667  0.142857      4.000000
 -0.285714 -0.166667  0.142857      4.000000
  0.428571  0.166667  0.142857      4.000000
 -0.428571 -0.166667  0.142857      4.000000
  0.000000  0.250000  0.142857      4.000000
  0.142857  0.250000  0.142857      4.000000
 -0.142857 -0.250000  0.142857      4.000000
  0.285714  0.250000  0.142857      4.000000
 -0.285714 -0.250000  0.142857      4.000000
  0.428571  0.250000  0.142857      4.000000
 -0.428571 -0.250000  0.142857      4.000000
  0.000000  0.333333  0.142857      4.000000
  0.142857  0.333333  0.142857      4.000000
 -0.142857 -0.333333  0.142857      4.000000
  0.285714  0.333333  0.142857      4.000000
 -0.285714 -0.333333  0.142857      4.000000
  0.428571  0.333333  0.142857      4.000000
 -0.428571 -0.333333  0.142857      4.000000
  0.000000  0.416667  0.142857      4.000000
  0.142857  0.416667  0.142857      4.000000
 -0.142857 -0.416667  0.142857      4.000000
  0.285714  0.416667  0.142857      4.000000
 -0.285714 -0.416667  0.142857      4.000000
  0.428571  0.416667  0.142857      4.000000
 -0.428571 -0.416667  0.142857      4.000000
  0.000000  0.500000  0.142857      2.000000
  0.142857  0.500000  0.142857      2.000000
 -0.142857  0.500000  0.142857      2.000000
  0.285714  0.500000  0.142857      2.000000
 -0.285714  0.500000  0.142857      2.000000
  0.428571  0.500000  0.142857      2.000000
 -0.428571  0.500000  0.142857      2.000000
  0.000000  0.000000  0.285714      2.000000
  0.142857  0.000000  0.285714      2.000000
 -0.142857  0.000000  0.285714      2.000000
  0.285714  0.000000  0.285714      2.000000
 -0.285714  0.000000  0.285714      2.000000
  0.428571  0.000000  0.285714      2.000000
 -0.428571  0.000000  0.285714      2.000000
  0.000000  0.083333  0.285714      4.000000
  0.142857  0.083333  0.285714      4.000000
 -0.142857 -0.083333  0.285714      4.000000
  0.285714  0.083333  0.285714      4.000000
 -0.285714 -0.083333  0.285714      4.000000
  0.428571  0.083333  0.285714      4.000000
 -0.428571 -0.083333  0.285714      4.000000
  0.000000  0.166667  0.285714      4.000000
  0.142857  0.166667  0.285714      4.000000
 -0.142857 -0.166667  0.285714      4.000000
  0.285714  0.166667  0.285714      4.000000
 -0.285714 -0.166667  0.285714      4.000000
  0.428571  0.166667  0.285714      4.000000
 -0.428571 -0.166667  0.285714      4.000000
  0.000000  0.250000  0.285714      4.000000
  0.142857  0.250000  0.285714      4.000000
 -0.142857 -0.250000  0.285714      4.000000
  0.285714  0.250000  0.285714      4.000000
 -0.285714 -0.250000  0.285714      4.000000
  0.428571  0.250000  0.285714      4.000000
 -0.428571 -0.250000  0.285714      4.000000
  0.000000  0.333333  0.285714      4.000000
  0.142857  0.333333  0.285714      4.000000
 -0.142857 -0.333333  0.285714      4.000000
  0.285714  0.333333  0.285714      4.000000
 -0.285714 -0.333333  0.285714      4.000000
  0.428571  0.333333  0.285714      4.000000
 -0.428571 -0.333333  0.285714      4.000000
  0.000000  0.416667  0.285714      4.000000
  0.142857  0.416667  0.285714      4.000000
 -0.142857 -0.416667  0.285714      4.000000
  0.285714  0.416667  0.285714      4.000000
 -0.285714 -0.416667  0.285714      4.000000
  0.428571  0.416667  0.285714      4.000000
 -0.428571 -0.416667  0.285714      4.000000
  0.000000  0.500000  0.285714      2.000000
  0.142857  0.500000  0.285714      2.000000
 -0.142857  0.500000  0.285714      2.000000
  0.285714  0.500000  0.285714      2.000000
 -0.285714  0.500000  0.285714      2.000000
  0.428571  0.500000  0.285714      2.000000
 -0.428571  0.500000  0.285714      2.000000
  0.000000  0.000000  0.428571      2.000000
  0.142857  0.000000  0.428571      2.000000
 -0.142857  0.000000  0.428571      2.000000
  0.285714  0.000000  0.428571      2.000000
 -0.285714  0.000000  0.428571      2.000000
  0.428571  0.000000  0.428571      2.000000
 -0.428571  0.000000  0.428571      2.000000
  0.000000  0.083333  0.428571      4.000000
  0.142857  0.083333  0.428571      4.000000
 -0.142857 -0.083333  0.428571      4.000000
  0.285714  0.083333  0.428571      4.000000
 -0.285714 -0.083333  0.428571      4.000000
  0.428571  0.083333  0.428571      4.000000
 -0.428571 -0.083333  0.428571      4.000000
  0.000000  0.166667  0.428571      4.000000
  0.142857  0.166667  0.428571      4.000000
 -0.142857 -0.166667  0.428571      4.000000
  0.285714  0.166667  0.428571      4.000000
 -0.285714 -0.166667  0.428571      4.000000
  0.428571  0.166667  0.428571      4.000000
 -0.428571 -0.166667  0.428571      4.000000
  0.000000  0.250000  0.428571      4.000000
  0.142857  0.250000  0.428571      4.000000
 -0.142857 -0.250000  0.428571      4.000000
  0.285714  0.250000  0.428571      4.000000
 -0.285714 -0.250000  0.428571      4.000000
  0.428571  0.250000  0.428571      4.000000
 -0.428571 -0.250000  0.428571      4.000000
  0.000000  0.333333  0.428571      4.000000
  0.142857  0.333333  0.428571      4.000000
 -0.142857 -0.333333  0.428571      4.000000
  0.285714  0.333333  0.428571      4.000000
 -0.285714 -0.333333  0.428571      4.000000
  0.428571  0.333333  0.428571      4.000000
 -0.428571 -0.333333  0.428571      4.000000
  0.000000  0.416667  0.428571      4.000000
  0.142857  0.416667  0.428571      4.000000
 -0.142857 -0.416667  0.428571      4.000000
  0.285714  0.416667  0.428571      4.000000
 -0.285714 -0.416667  0.428571      4.000000
  0.428571  0.416667  0.428571      4.000000
 -0.428571 -0.416667  0.428571      4.000000
  0.000000  0.500000  0.428571      2.000000
  0.142857  0.500000  0.428571      2.000000
 -0.142857  0.500000  0.428571      2.000000
  0.285714  0.500000  0.428571      2.000000
 -0.285714  0.500000  0.428571      2.000000
  0.428571  0.500000  0.428571      2.000000
 -0.428571  0.500000  0.428571      2.000000

 Following cartesian coordinates:
            Coordinates               Weight
  0.000000 -0.000000  0.000000      1.000000
  0.000000 -0.017927  0.000000      2.000000
  0.000000 -0.035854  0.000000      2.000000
  0.000000 -0.053782  0.000000      2.000000
  0.018113 -0.000000  0.000000      2.000000
  0.018113 -0.017927  0.000000      4.000000
  0.018113 -0.035854  0.000000      4.000000
  0.018113 -0.053782  0.000000      4.000000
  0.036226 -0.000000  0.000000      2.000000
  0.036226 -0.017927  0.000000      4.000000
  0.036226 -0.035854  0.000000      4.000000
  0.036226 -0.053782  0.000000      4.000000
  0.054339 -0.000000  0.000000      2.000000
  0.054339 -0.017927  0.000000      4.000000
  0.054339 -0.035854  0.000000      4.000000
  0.054339 -0.053782  0.000000      4.000000
  0.072452 -0.000000  0.000000      2.000000
  0.072452 -0.017927  0.000000      4.000000
  0.072452 -0.035854  0.000000      4.000000
  0.072452 -0.053782  0.000000      4.000000
  0.090565 -0.000000  0.000000      2.000000
  0.090565 -0.017927  0.000000      4.000000
  0.090565 -0.035854  0.000000      4.000000
  0.090565 -0.053782  0.000000      4.000000
  0.108678 -0.000000  0.000000      1.000000
  0.108678 -0.017927  0.000000      2.000000
  0.108678 -0.035854  0.000000      2.000000
  0.108678 -0.053782  0.000000      2.000000
  0.000000 -0.000000  0.019620      2.000000
  0.000000 -0.017927  0.019620      2.000000
  0.000000  0.017927  0.019620      2.000000
  0.000000 -0.035854  0.019620      2.000000
  0.000000  0.035854  0.019620      2.000000
  0.000000 -0.053782  0.019620      2.000000
  0.000000  0.053782  0.019620      2.000000
  0.018113 -0.000000  0.019620      4.000000
  0.018113 -0.017927  0.019620      4.000000
 -0.018113  0.017927  0.019620      4.000000
  0.018113 -0.035854  0.019620      4.000000
 -0.018113  0.035854  0.019620      4.000000
  0.018113 -0.053782  0.019620      4.000000
 -0.018113  0.053782  0.019620      4.000000
  0.036226 -0.000000  0.019620      4.000000
  0.036226 -0.017927  0.019620      4.000000
 -0.036226  0.017927  0.019620      4.000000
  0.036226 -0.035854  0.019620      4.000000
 -0.036226  0.035854  0.019620      4.000000
  0.036226 -0.053782  0.019620      4.000000
 -0.036226  0.053782  0.019620      4.000000
  0.054339 -0.000000  0.019620      4.000000
  0.054339 -0.017927  0.019620      4.000000
 -0.054339  0.017927  0.019620      4.000000
  0.054339 -0.035854  0.019620      4.000000
 -0.054339  0.035854  0.019620      4.000000
  0.054339 -0.053782  0.019620      4.000000
 -0.054339  0.053782  0.019620      4.000000
  0.072452 -0.000000  0.019620      4.000000
  0.072452 -0.017927  0.019620      4.000000
 -0.072452  0.017927  0.019620      4.000000
  0.072452 -0.035854  0.019620      4.000000
 -0.072452  0.035854  0.019620      4.000000
  0.072452 -0.053782  0.019620      4.000000
 -0.072452  0.053782  0.019620      4.000000
  0.090565 -0.000000  0.019620      4.000000
  0.090565 -0.017927  0.019620      4.000000
 -0.090565  0.017927  0.019620      4.000000
  0.090565 -0.035854  0.019620      4.000000
 -0.090565  0.035854  0.019620      4.000000
  0.090565 -0.053782  0.019620      4.000000
 -0.090565  0.053782  0.019620      4.000000
  0.108678 -0.000000  0.019620      2.000000
  0.108678 -0.017927  0.019620      2.000000
  0.108678  0.017927  0.019620      2.000000
  0.108678 -0.035854  0.019620      2.000000
  0.108678  0.035854  0.019620      2.000000
  0.108678 -0.053782  0.019620      2.000000
  0.108678  0.053782  0.019620      2.000000
  0.000000 -0.000000  0.039239      2.000000
  0.000000 -0.017927  0.039239      2.000000
  0.000000  0.017927  0.039239      2.000000
  0.000000 -0.035854  0.039239      2.000000
  0.000000  0.035854  0.039239      2.000000
  0.000000 -0.053782  0.039239      2.000000
  0.000000  0.053782  0.039239      2.000000
  0.018113 -0.000000  0.039239      4.000000
  0.018113 -0.017927  0.039239      4.000000
 -0.018113  0.017927  0.039239      4.000000
  0.018113 -0.035854  0.039239      4.000000
 -0.018113  0.035854  0.039239      4.000000
  0.018113 -0.053782  0.039239      4.000000
 -0.018113  0.053782  0.039239      4.000000
  0.036226 -0.000000  0.039239      4.000000
  0.036226 -0.017927  0.039239      4.000000
 -0.036226  0.017927  0.039239      4.000000
  0.036226 -0.035854  0.039239      4.000000
 -0.036226  0.035854  0.039239      4.000000
  0.036226 -0.053782  0.039239      4.000000
 -0.036226  0.053782  0.039239      4.000000
  0.054339 -0.000000  0.039239      4.000000
  0.054339 -0.017927  0.039239      4.000000
 -0.054339  0.017927  0.039239      4.000000
  0.054339 -0.035854  0.039239      4.000000
 -0.054339  0.035854  0.039239      4.000000
  0.054339 -0.053782  0.039239      4.000000
 -0.054339  0.053782  0.039239      4.000000
  0.072452 -0.000000  0.039239      4.000000
  0.072452 -0.017927  0.039239      4.000000
 -0.072452  0.017927  0.039239      4.000000
  0.072452 -0.035854  0.039239      4.000000
 -0.072452  0.035854  0.039239      4.000000
  0.072452 -0.053782  0.039239      4.000000
 -0.072452  0.053782  0.039239      4.000000
  0.090565 -0.000000  0.039239      4.000000
  0.090565 -0.017927  0.039239      4.000000
 -0.090565  0.017927  0.039239      4.000000
  0.090565 -0.035854  0.039239      4.000000
 -0.090565  0.035854  0.039239      4.000000
  0.090565 -0.053782  0.039239      4.000000
 -0.090565  0.053782  0.039239      4.000000
  0.108678 -0.000000  0.039239      2.000000
  0.108678 -0.017927  0.039239      2.000000
  0.108678  0.017927  0.039239      2.000000
  0.108678 -0.035854  0.039239      2.000000
  0.108678  0.035854  0.039239      2.000000
  0.108678 -0.053782  0.039239      2.000000
  0.108678  0.053782  0.039239      2.000000
  0.000000 -0.000000  0.058859      2.000000
  0.000000 -0.017927  0.058859      2.000000
  0.000000  0.017927  0.058859      2.000000
  0.000000 -0.035854  0.058859      2.000000
  0.000000  0.035854  0.058859      2.000000
  0.000000 -0.053782  0.058859      2.000000
  0.000000  0.053782  0.058859      2.000000
  0.018113 -0.000000  0.058859      4.000000
  0.018113 -0.017927  0.058859      4.000000
 -0.018113  0.017927  0.058859      4.000000
  0.018113 -0.035854  0.058859      4.000000
 -0.018113  0.035854  0.058859      4.000000
  0.018113 -0.053782  0.058859      4.000000
 -0.018113  0.053782  0.058859      4.000000
  0.036226 -0.000000  0.058859      4.000000
  0.036226 -0.017927  0.058859      4.000000
 -0.036226  0.017927  0.058859      4.000000
  0.036226 -0.035854  0.058859      4.000000
 -0.036226  0.035854  0.058859      4.000000
  0.036226 -0.053782  0.058859      4.000000
 -0.036226  0.053782  0.058859      4.000000
  0.054339 -0.000000  0.058859      4.000000
  0.054339 -0.017927  0.058859      4.000000
 -0.054339  0.017927  0.058859      4.000000
  0.054339 -0.035854  0.058859      4.000000
 -0.054339  0.035854  0.058859      4.000000
  0.054339 -0.053782  0.058859      4.000000
 -0.054339  0.053782  0.058859      4.000000
  0.072452 -0.000000  0.058859      4.000000
  0.072452 -0.017927  0.058859      4.000000
 -0.072452  0.017927  0.058859      4.000000
  0.072452 -0.035854  0.058859      4.000000
 -0.072452  0.035854  0.058859      4.000000
  0.072452 -0.053782  0.058859      4.000000
 -0.072452  0.053782  0.058859      4.000000
  0.090565 -0.000000  0.058859      4.000000
  0.090565 -0.017927  0.058859      4.000000
 -0.090565  0.017927  0.058859      4.000000
  0.090565 -0.035854  0.058859      4.000000
 -0.090565  0.035854  0.058859      4.000000
  0.090565 -0.053782  0.058859      4.000000
 -0.090565  0.053782  0.058859      4.000000
  0.108678 -0.000000  0.058859      2.000000
  0.108678 -0.017927  0.058859      2.000000
  0.108678  0.017927  0.058859      2.000000
  0.108678 -0.035854  0.058859      2.000000
  0.108678  0.035854  0.058859      2.000000
  0.108678 -0.053782  0.058859      2.000000
  0.108678  0.053782  0.058859      2.000000



--------------------------------------------------------------------------------------------------------




 Dimension of arrays:
   k-points           NKPTS =    175   k-points in BZ     NKDIM =    175   number of bands    NBANDS=     32
   number of dos      NEDOS =    301   number of ions     NIONS =     10
   non local maximal  LDIM  =      5   non local SUM 2l+1 LMDIM =     13
   total plane-waves  NPLWV = 179200
   max r-space proj   IRMAX =      1   max aug-charges    IRDMAX=  37449
   dimension x,y,z NGX =    70 NGY =   40 NGZ =   64
   dimension x,y,z NGXF=   140 NGYF=   80 NGZF=  128
   support grid    NGXF=   140 NGYF=   80 NGZF=  128
   ions per type =               6   4
   NGX,Y,Z   is equivalent  to a cutoff of  14.60, 14.45, 14.61 a.u.
   NGXF,Y,Z  is equivalent  to a cutoff of  29.21, 28.91, 29.22 a.u.

 SYSTEM =  unknown system
 POSCAR =  Mg6 Sb4

 Startparameter for this run:
   NWRITE =      2    write-flag & timer
   PREC   = accura    normal or accurate (medium, high low for compatibility)
   ISTART =      0    job   : 0-new  1-cont  2-samecut
   ICHARG =      2    charge: 1-file 2-atom 10-const
   ISPIN  =      2    spin polarized calculation?
   LNONCOLLINEAR =      F non collinear calculations
   LSORBIT =      F    spin-orbit coupling
   INIWAV =      1    electr: 0-lowe 1-rand  2-diag
   LASPH  =      T    aspherical Exc in radial PAW
 Electronic Relaxation 1
   ENCUT  =  700.0 eV  51.45 Ry    7.17 a.u.  17.19  9.93 15.71*2*pi/ulx,y,z
   ENINI  =  700.0     initial cutoff
   ENAUG  = 1360.0 eV  augmentation charge cutoff
   NELM   =    200;   NELMIN=  2; NELMDL= -5     # of ELM steps
   EDIFF  = 0.1E-06   stopping-criterion for ELM
   LREAL  =      F    real-space projection
   NLSPLINE    = F    spline interpolate recip. space projectors
   LCOMPAT=      F    compatible to vasp.4.4
   GGA_COMPAT  = T    GGA compatible to vasp.4.4-vasp.4.6
   LMAXPAW     = -100 max onsite density
   LMAXMIX     =    4 max onsite mixed and CHGCAR
   VOSKOWN=      0    Vosko Wilk Nusair interpolation
   ROPT   =    0.00000   0.00000
 Ionic relaxation
   EDIFFG = 0.1E-05   stopping-criterion for IOM
   NSW    =      0    number of steps for IOM
   NBLOCK =      1;   KBLOCK =      1    inner block; outer block
   IBRION =     -1    ionic relax: 0-MD 1-quasi-New 2-CG
   NFREE  =      1    steps in history (QN), initial steepest desc. (CG)
   ISIF   =      3    stress and relaxation
   IWAVPR =     10    prediction:  0-non 1-charg 2-wave 3-comb
   ISYM   =      2    0-nonsym 1-usesym 2-fastsym
   LCORR  =      T    Harris-Foulkes like correction to forces

   POTIM  = 0.5000    time-step for ionic-motion
   TEIN   =    0.0    initial temperature
   TEBEG  =    0.0;   TEEND  =   0.0 temperature during run
   SMASS  =  -3.00    Nose mass-parameter (am)
   estimated Nose-frequenzy (Omega)   =  0.10E-29 period in steps = 0.13E+47 mass=  -0.145E-26a.u.
   SCALEE = 1.0000    scale energy and forces
   NPACO  =    256;   APACO  = 16.0  distance and # of slots for P.C.
   PSTRESS=    0.0 pullay stress

  Mass of Ions in am
   POMASS =  24.30121.75
  Ionic Valenz
   ZVAL   =   2.00  5.00
  Atomic Wigner-Seitz radii
   RWIGS  =  -1.00 -1.00
  virtual crystal weights
   VCA    =   1.00  1.00
   NELECT =      32.0000    total number of electrons
   NUPDOWN=      -1.0000    fix difference up-down

 DOS related values:
   EMIN   =  10.00;   EMAX   =-10.00  energy-range for DOS
   EFERMI =   0.00
   ISMEAR =     0;   SIGMA  =   0.05  broadening in eV -4-tet -1-fermi 0-gaus

 Electronic relaxation 2 (details)
   IALGO  =     38    algorithm
   LDIAG  =      T    sub-space diagonalisation (order eigenvalues)
   LSUBROT=      F    optimize rotation matrix (better conditioning)
   TURBO    =      0    0=normal 1=particle mesh
   IRESTART =      0    0=no restart 2=restart with 2 vectors
   NREBOOT  =      0    no. of reboots
   NMIN     =      0    reboot dimension
   EREF     =   0.00    reference energy to select bands
   IMIX   =      4    mixing-type and parameters
     AMIX     =   0.40;   BMIX     =  1.00
     AMIX_MAG =   1.60;   BMIX_MAG =  1.00
     AMIN     =   0.10
     WC   =   100.;   INIMIX=   1;  MIXPRE=   1;  MAXMIX= -45

 Intra band minimization:
   WEIMIN = 0.0000     energy-eigenvalue tresh-hold
   EBREAK =  0.78E-09  absolut break condition
   DEPER  =   0.30     relativ break condition

   TIME   =   0.40     timestep for ELM

  volume/ion in A,a.u.               =      26.69       180.15
  Fermi-wavevector in a.u.,A,eV,Ry     =   0.807202  1.525391  8.865224  0.651576
  Thomas-Fermi vector in A             =   1.915778

 Write flags
   LWAVE        =      F    write WAVECAR
   LDOWNSAMPLE  =      F    k-point downsampling of WAVECAR
   LCHARG       =      F    write CHGCAR
   LVTOT        =      T    write LOCPOT, total local potential
   LVHAR        =      F    write LOCPOT, Hartree potential only
   LELF         =      F    write electronic localiz. function (ELF)
   LORBIT       =     11    0 simple, 1 ext, 2 COOP (PROOUT), +10 PAW based schemes


 Dipole corrections
   LMONO  =      F    monopole corrections only (constant potential shift)
   LDIPOL =      F    correct potential (dipole corrections)
   IDIPOL =      0    1-x, 2-y, 3-z, 4-all directions
   EPSILON=  1.0000000 bulk dielectric constant

 Exchange correlation treatment:
   GGA     =    PS    GGA type
   LEXCH   =    14    internal setting for exchange type
   VOSKOWN=      0    Vosko Wilk Nusair interpolation
   LHFCALC =     F    Hartree Fock is set to
   LHFONE  =     F    Hartree Fock one center treatment
   AEXX    =    0.0000 exact exchange contribution

 Linear response parameters
   LEPSILON=     F    determine dielectric tensor
   LRPA    =     F    only Hartree local field effects (RPA)
   LNABLA  =     F    use nabla operator in PAW spheres
   LVEL    =     F    velocity operator in full k-point grid
   LINTERFAST=   F  fast interpolation
   KINTER  =     0    interpolate to denser k-point grid
   CSHIFT  =0.1000    complex shift for real part using Kramers Kronig
   OMEGAMAX=  -1.0    maximum frequency
   DEG_THRESHOLD= 0.2000000E-02 threshold for treating states as degnerate
   RTIME   =   -0.100 relaxation time in fs
  (WPLASMAI=    0.000 imaginary part of plasma frequency in eV, 0.658/RTIME)
   DFIELD  = 0.0000000 0.0000000 0.0000000 field for delta impulse in time

 Orbital magnetization related:
   ORBITALMAG=     F  switch on orbital magnetization
   LCHIMAG   =     F  perturbation theory with respect to B field
   DQ        =  0.001000  dq finite difference perturbation B field
   LLRAUG    =     F  two centre corrections for induced B field



--------------------------------------------------------------------------------------------------------


 Static calculation
 charge density and potential will be updated during run
 spin polarized calculation
 Variant of blocked Davidson
 Davidson routine will perform the subspace rotation
 perform sub-space diagonalisation
    after iterative eigenvector-optimisation
 modified Broyden-mixing scheme, WC =      100.0
 initial mixing is a Kerker type mixing with AMIX =  0.4000 and BMIX =      1.0000
 Hartree-type preconditioning will be used
 using additional bands           16
 reciprocal scheme for non local part
 use partial core corrections
 calculate Harris-corrections to forces   (improved forces if not selfconsistent)
 use gradient corrections
 use of overlap-Matrix (Vanderbilt PP)
 Gauss-broadening in eV      SIGMA  =   0.05


--------------------------------------------------------------------------------------------------------


  energy-cutoff  :      700.00
  volume of cell :      266.95
      direct lattice vectors                 reciprocal lattice vectors
     0.000000000 -7.968720590  0.000000000     0.000000000 -0.125490659  0.000000000
     4.600742978  0.000000000  0.000000000     0.217356198  0.000000000 -0.000000000
     0.000000000  0.000000000  7.281330000    -0.000000000  0.000000000  0.137337547

  length of vectors
     7.968720590  4.600742978  7.281330000     0.125490659  0.217356198  0.137337547



 k-points in units of 2pi/SCALE and weight: pymatgen with grid density = 7000 / numb
   0.00000000 -0.00000000  0.00000000       0.002
   0.00000000 -0.01792724  0.00000000       0.003
   0.00000000 -0.03585447  0.00000000       0.003
   0.00000000 -0.05378171  0.00000000       0.003
   0.01811302 -0.00000000  0.00000000       0.003
   0.01811302 -0.01792724  0.00000000       0.007
   0.01811302 -0.03585447  0.00000000       0.007
   0.01811302 -0.05378171  0.00000000       0.007
   0.03622603 -0.00000000  0.00000000       0.003
   0.03622603 -0.01792724  0.00000000       0.007
   0.03622603 -0.03585447  0.00000000       0.007
   0.03622603 -0.05378171  0.00000000       0.007
   0.05433905 -0.00000000  0.00000000       0.003
   0.05433905 -0.01792724  0.00000000       0.007
   0.05433905 -0.03585447  0.00000000       0.007
   0.05433905 -0.05378171  0.00000000       0.007
   0.07245207 -0.00000000  0.00000000       0.003
   0.07245207 -0.01792724  0.00000000       0.007
   0.07245207 -0.03585447  0.00000000       0.007
   0.07245207 -0.05378171  0.00000000       0.007
   0.09056508 -0.00000000  0.00000000       0.003
   0.09056508 -0.01792724  0.00000000       0.007
   0.09056508 -0.03585447  0.00000000       0.007
   0.09056508 -0.05378171  0.00000000       0.007
   0.10867810 -0.00000000  0.00000000       0.002
   0.10867810 -0.01792724  0.00000000       0.003
   0.10867810 -0.03585447  0.00000000       0.003
   0.10867810 -0.05378171  0.00000000       0.003
   0.00000000 -0.00000000  0.01961965       0.003
   0.00000000 -0.01792724  0.01961965       0.003
   0.00000000  0.01792724  0.01961965       0.003
   0.00000000 -0.03585447  0.01961965       0.003
   0.00000000  0.03585447  0.01961965       0.003
   0.00000000 -0.05378171  0.01961965       0.003
   0.00000000  0.05378171  0.01961965       0.003
   0.01811302 -0.00000000  0.01961965       0.007
   0.01811302 -0.01792724  0.01961965       0.007
  -0.01811302  0.01792724  0.01961965       0.007
   0.01811302 -0.03585447  0.01961965       0.007
  -0.01811302  0.03585447  0.01961965       0.007
   0.01811302 -0.05378171  0.01961965       0.007
  -0.01811302  0.05378171  0.01961965       0.007
   0.03622603 -0.00000000  0.01961965       0.007
   0.03622603 -0.01792724  0.01961965       0.007
  -0.03622603  0.01792724  0.01961965       0.007
   0.03622603 -0.03585447  0.01961965       0.007
  -0.03622603  0.03585447  0.01961965       0.007
   0.03622603 -0.05378171  0.01961965       0.007
  -0.03622603  0.05378171  0.01961965       0.007
   0.05433905 -0.00000000  0.01961965       0.007
   0.05433905 -0.01792724  0.01961965       0.007
  -0.05433905  0.01792724  0.01961965       0.007
   0.05433905 -0.03585447  0.01961965       0.007
  -0.05433905  0.03585447  0.01961965       0.007
   0.05433905 -0.05378171  0.01961965       0.007
  -0.05433905  0.05378171  0.01961965       0.007
   0.07245207 -0.00000000  0.01961965       0.007
   0.07245207 -0.01792724  0.01961965       0.007
  -0.07245207  0.01792724  0.01961965       0.007
   0.07245207 -0.03585447  0.01961965       0.007
  -0.07245207  0.03585447  0.01961965       0.007
   0.07245207 -0.05378171  0.01961965       0.007
  -0.07245207  0.05378171  0.01961965       0.007
   0.09056508 -0.00000000  0.01961965       0.007
   0.09056508 -0.01792724  0.01961965       0.007
  -0.09056508  0.01792724  0.01961965       0.007
   0.09056508 -0.03585447  0.01961965       0.007
  -0.09056508  0.03585447  0.01961965       0.007
   0.09056508 -0.05378171  0.01961965       0.007
  -0.09056508  0.05378171  0.01961965       0.007
   0.10867810 -0.00000000  0.01961965       0.003
   0.10867810 -0.01792724  0.01961965       0.003
   0.10867810  0.01792724  0.01961965       0.003
   0.10867810 -0.03585447  0.01961965       0.003
   0.10867810  0.03585447  0.01961965       0.003
   0.10867810 -0.05378171  0.01961965       0.003
   0.10867810  0.05378171  0.01961965       0.003
   0.00000000 -0.00000000  0.03923930       0.003
   0.00000000 -0.01792724  0.03923930       0.003
   0.00000000  0.01792724  0.03923930       0.003
   0.00000000 -0.03585447  0.03923930       0.003
   0.00000000  0.03585447  0.03923930       0.003
   0.00000000 -0.05378171  0.03923930       0.003
   0.00000000  0.05378171  0.03923930       0.003
   0.01811302 -0.00000000  0.03923930       0.007
   0.01811302 -0.01792724  0.03923930       0.007
  -0.01811302  0.01792724  0.03923930       0.007
   0.01811302 -0.03585447  0.03923930       0.007
  -0.01811302  0.03585447  0.03923930       0.007
   0.01811302 -0.05378171  0.03923930       0.007
  -0.01811302  0.05378171  0.03923930       0.007
   0.03622603 -0.00000000  0.03923930       0.007
   0.03622603 -0.01792724  0.03923930       0.007
  -0.03622603  0.01792724  0.03923930       0.007
   0.03622603 -0.03585447  0.03923930       0.007
  -0.03622603  0.03585447  0.03923930       0.007
   0.03622603 -0.05378171  0.03923930       0.007
  -0.03622603  0.05378171  0.03923930       0.007
   0.05433905 -0.00000000  0.03923930       0.007
   0.05433905 -0.01792724  0.03923930       0.007
  -0.05433905  0.01792724  0.03923930       0.007
   0.05433905 -0.03585447  0.03923930       0.007
  -0.05433905  0.03585447  0.03923930       0.007
   0.05433905 -0.05378171  0.03923930       0.007
  -0.05433905  0.05378171  0.03923930       0.007
   0.07245207 -0.00000000  0.03923930       0.007
   0.07245207 -0.01792724  0.03923930       0.007
  -0.07245207  0.01792724  0.03923930       0.007
   0.07245207 -0.03585447  0.03923930       0.007
  -0.07245207  0.03585447  0.03923930       0.007
   0.07245207 -0.05378171  0.03923930       0.007
  -0.07245207  0.05378171  0.03923930       0.007
   0.09056508 -0.00000000  0.03923930       0.007
   0.09056508 -0.01792724  0.03923930       0.007
  -0.09056508  0.01792724  0.03923930       0.007
   0.09056508 -0.03585447  0.03923930       0.007
  -0.09056508  0.03585447  0.03923930       0.007
   0.09056508 -0.05378171  0.03923930       0.007
  -0.09056508  0.05378171  0.03923930       0.007
   0.10867810 -0.00000000  0.03923930       0.003
   0.10867810 -0.01792724  0.03923930       0.003
   0.10867810  0.01792724  0.03923930       0.003
   0.10867810 -0.03585447  0.03923930       0.003
   0.10867810  0.03585447  0.03923930       0.003
   0.10867810 -0.05378171  0.03923930       0.003
   0.10867810  0.05378171  0.03923930       0.003
   0.00000000 -0.00000000  0.05885895       0.003
   0.00000000 -0.01792724  0.05885895       0.003
   0.00000000  0.01792724  0.05885895       0.003
   0.00000000 -0.03585447  0.05885895       0.003
   0.00000000  0.03585447  0.05885895       0.003
   0.00000000 -0.05378171  0.05885895       0.003
   0.00000000  0.05378171  0.05885895       0.003
   0.01811302 -0.00000000  0.05885895       0.007
   0.01811302 -0.01792724  0.05885895       0.007
  -0.01811302  0.01792724  0.05885895       0.007
   0.01811302 -0.03585447  0.05885895       0.007
  -0.01811302  0.03585447  0.05885895       0.007
   0.01811302 -0.05378171  0.05885895       0.007
  -0.01811302  0.05378171  0.05885895       0.007
   0.03622603 -0.00000000  0.05885895       0.007
   0.03622603 -0.01792724  0.05885895       0.007
  -0.03622603  0.01792724  0.05885895       0.007
   0.03622603 -0.03585447  0.05885895       0.007
  -0.03622603  0.03585447  0.05885895       0.007
   0.03622603 -0.05378171  0.05885895       0.007
  -0.03622603  0.05378171  0.05885895       0.007
   0.05433905 -0.00000000  0.05885895       0.007
   0.05433905 -0.01792724  0.05885895       0.007
  -0.05433905  0.01792724  0.05885895       0.007
   0.05433905 -0.03585447  0.05885895       0.007
  -0.05433905  0.03585447  0.05885895       0.007
   0.05433905 -0.05378171  0.05885895       0.007
  -0.05433905  0.05378171  0.05885895       0.007
   0.07245207 -0.00000000  0.05885895       0.007
   0.07245207 -0.01792724  0.05885895       0.007
  -0.07245207  0.01792724  0.05885895       0.007
   0.07245207 -0.03585447  0.05885895       0.007
  -0.07245207  0.03585447  0.05885895       0.007
   0.07245207 -0.05378171  0.05885895       0.007
  -0.07245207  0.05378171  0.05885895       0.007
   0.09056508 -0.00000000  0.05885895       0.007
   0.09056508 -0.01792724  0.05885895       0.007
  -0.09056508  0.01792724  0.05885895       0.007
   0.09056508 -0.03585447  0.05885895       0.007
  -0.09056508  0.03585447  0.05885895       0.007
   0.09056508 -0.05378171  0.05885895       0.007
  -0.09056508  0.05378171  0.05885895       0.007
   0.10867810 -0.00000000  0.05885895       0.003
   0.10867810 -0.01792724  0.05885895       0.003
   0.10867810  0.01792724  0.05885895       0.003
   0.10867810 -0.03585447  0.05885895       0.003
   0.10867810  0.03585447  0.05885895       0.003
   0.10867810 -0.05378171  0.05885895       0.003
   0.10867810  0.05378171  0.05885895       0.003

 k-points in reciprocal lattice and weights: pymatgen with grid density = 7000 / numb
   0.00000000  0.00000000  0.00000000       0.002
   0.14285714  0.00000000  0.00000000       0.003
   0.28571429  0.00000000  0.00000000       0.003
   0.42857143  0.00000000  0.00000000       0.003
   0.00000000  0.08333333  0.00000000       0.003
   0.14285714  0.08333333  0.00000000       0.007
   0.28571429  0.08333333  0.00000000       0.007
   0.42857143  0.08333333  0.00000000       0.007
   0.00000000  0.16666667  0.00000000       0.003
   0.14285714  0.16666667  0.00000000       0.007
   0.28571429  0.16666667  0.00000000       0.007
   0.42857143  0.16666667  0.00000000       0.007
   0.00000000  0.25000000  0.00000000       0.003
   0.14285714  0.25000000  0.00000000       0.007
   0.28571429  0.25000000  0.00000000       0.007
   0.42857143  0.25000000  0.00000000       0.007
   0.00000000  0.33333333  0.00000000       0.003
   0.14285714  0.33333333  0.00000000       0.007
   0.28571429  0.33333333  0.00000000       0.007
   0.42857143  0.33333333  0.00000000       0.007
   0.00000000  0.41666667  0.00000000       0.003
   0.14285714  0.41666667  0.00000000       0.007
   0.28571429  0.41666667  0.00000000       0.007
   0.42857143  0.41666667  0.00000000       0.007
   0.00000000  0.50000000  0.00000000       0.002
   0.14285714  0.50000000  0.00000000       0.003
   0.28571429  0.50000000  0.00000000       0.003
   0.42857143  0.50000000  0.00000000       0.003
   0.00000000  0.00000000  0.14285714       0.003
   0.14285714  0.00000000  0.14285714       0.003
  -0.14285714  0.00000000  0.14285714       0.003
   0.28571429  0.00000000  0.14285714       0.003
  -0.28571429  0.00000000  0.14285714       0.003
   0.42857143  0.00000000  0.14285714       0.003
  -0.42857143  0.00000000  0.14285714       0.003
   0.00000000  0.08333333  0.14285714       0.007
   0.14285714  0.08333333  0.14285714       0.007
  -0.14285714 -0.08333333  0.14285714       0.007
   0.28571429  0.08333333  0.14285714       0.007
  -0.28571429 -0.08333333  0.14285714       0.007
   0.42857143  0.08333333  0.14285714       0.007
  -0.42857143 -0.08333333  0.14285714       0.007
   0.00000000  0.16666667  0.14285714       0.007
   0.14285714  0.16666667  0.14285714       0.007
  -0.14285714 -0.16666667  0.14285714       0.007
   0.28571429  0.16666667  0.14285714       0.007
  -0.28571429 -0.16666667  0.14285714       0.007
   0.42857143  0.16666667  0.14285714       0.007
  -0.42857143 -0.16666667  0.14285714       0.007
   0.00000000  0.25000000  0.14285714       0.007
   0.14285714  0.25000000  0.14285714       0.007
  -0.14285714 -0.25000000  0.14285714       0.007
   0.28571429  0.25000000  0.14285714       0.007
  -0.28571429 -0.25000000  0.14285714       0.007
   0.42857143  0.25000000  0.14285714       0.007
  -0.42857143 -0.25000000  0.14285714       0.007
   0.00000000  0.33333333  0.14285714       0.007
   0.14285714  0.33333333  0.14285714       0.007
  -0.14285714 -0.33333333  0.14285714       0.007
   0.28571429  0.33333333  0.14285714       0.007
  -0.28571429 -0.33333333  0.14285714       0.007
   0.42857143  0.33333333  0.14285714       0.007
  -0.42857143 -0.33333333  0.14285714       0.007
   0.00000000  0.41666667  0.14285714       0.007
   0.14285714  0.41666667  0.14285714       0.007
  -0.14285714 -0.41666667  0.14285714       0.007
   0.28571429  0.41666667  0.14285714       0.007
  -0.28571429 -0.41666667  0.14285714       0.007
   0.42857143  0.41666667  0.14285714       0.007
  -0.42857143 -0.41666667  0.14285714       0.007
   0.00000000  0.50000000  0.14285714       0.003
   0.14285714  0.50000000  0.14285714       0.003
  -0.14285714  0.50000000  0.14285714       0.003
   0.28571429  0.50000000  0.14285714       0.003
  -0.28571429  0.50000000  0.14285714       0.003
   0.42857143  0.50000000  0.14285714       0.003
  -0.42857143  0.50000000  0.14285714       0.003
   0.00000000  0.00000000  0.28571429       0.003
   0.14285714  0.00000000  0.28571429       0.003
  -0.14285714  0.00000000  0.28571429       0.003
   0.28571429  0.00000000  0.28571429       0.003
  -0.28571429  0.00000000  0.28571429       0.003
   0.42857143  0.00000000  0.28571429       0.003
  -0.42857143  0.00000000  0.28571429       0.003
   0.00000000  0.08333333  0.28571429       0.007
   0.14285714  0.08333333  0.28571429       0.007
  -0.14285714 -0.08333333  0.28571429       0.007
   0.28571429  0.08333333  0.28571429       0.007
  -0.28571429 -0.08333333  0.28571429       0.007
   0.42857143  0.08333333  0.28571429       0.007
  -0.42857143 -0.08333333  0.28571429       0.007
   0.00000000  0.16666667  0.28571429       0.007
   0.14285714  0.16666667  0.28571429       0.007
  -0.14285714 -0.16666667  0.28571429       0.007
   0.28571429  0.16666667  0.28571429       0.007
  -0.28571429 -0.16666667  0.28571429       0.007
   0.42857143  0.16666667  0.28571429       0.007
  -0.42857143 -0.16666667  0.28571429       0.007
   0.00000000  0.25000000  0.28571429       0.007
   0.14285714  0.25000000  0.28571429       0.007
  -0.14285714 -0.25000000  0.28571429       0.007
   0.28571429  0.25000000  0.28571429       0.007
  -0.28571429 -0.25000000  0.28571429       0.007
   0.42857143  0.25000000  0.28571429       0.007
  -0.42857143 -0.25000000  0.28571429       0.007
   0.00000000  0.33333333  0.28571429       0.007
   0.14285714  0.33333333  0.28571429       0.007
  -0.14285714 -0.33333333  0.28571429       0.007
   0.28571429  0.33333333  0.28571429       0.007
  -0.28571429 -0.33333333  0.28571429       0.007
   0.42857143  0.33333333  0.28571429       0.007
  -0.42857143 -0.33333333  0.28571429       0.007
   0.00000000  0.41666667  0.28571429       0.007
   0.14285714  0.41666667  0.28571429       0.007
  -0.14285714 -0.41666667  0.28571429       0.007
   0.28571429  0.41666667  0.28571429       0.007
  -0.28571429 -0.41666667  0.28571429       0.007
   0.42857143  0.41666667  0.28571429       0.007
  -0.42857143 -0.41666667  0.28571429       0.007
   0.00000000  0.50000000  0.28571429       0.003
   0.14285714  0.50000000  0.28571429       0.003
  -0.14285714  0.50000000  0.28571429       0.003
   0.28571429  0.50000000  0.28571429       0.003
  -0.28571429  0.50000000  0.28571429       0.003
   0.42857143  0.50000000  0.28571429       0.003
  -0.42857143  0.50000000  0.28571429       0.003
   0.00000000  0.00000000  0.42857143       0.003
   0.14285714  0.00000000  0.42857143       0.003
  -0.14285714  0.00000000  0.42857143       0.003
   0.28571429  0.00000000  0.42857143       0.003
  -0.28571429  0.00000000  0.42857143       0.003
   0.42857143  0.00000000  0.42857143       0.003
  -0.42857143  0.00000000  0.42857143       0.003
   0.00000000  0.08333333  0.42857143       0.007
   0.14285714  0.08333333  0.42857143       0.007
  -0.14285714 -0.08333333  0.42857143       0.007
   0.28571429  0.08333333  0.42857143       0.007
  -0.28571429 -0.08333333  0.42857143       0.007
   0.42857143  0.08333333  0.42857143       0.007
  -0.42857143 -0.08333333  0.42857143       0.007
   0.00000000  0.16666667  0.42857143       0.007
   0.14285714  0.16666667  0.42857143       0.007
  -0.14285714 -0.16666667  0.42857143       0.007
   0.28571429  0.16666667  0.42857143       0.007
  -0.28571429 -0.16666667  0.42857143       0.007
   0.42857143  0.16666667  0.42857143       0.007
  -0.42857143 -0.16666667  0.42857143       0.007
   0.00000000  0.25000000  0.42857143       0.007
   0.14285714  0.25000000  0.42857143       0.007
  -0.14285714 -0.25000000  0.42857143       0.007
   0.28571429  0.25000000  0.42857143       0.007
  -0.28571429 -0.25000000  0.42857143       0.007
   0.42857143  0.25000000  0.42857143       0.007
  -0.42857143 -0.25000000  0.42857143       0.007
   0.00000000  0.33333333  0.42857143       0.007
   0.14285714  0.33333333  0.42857143       0.007
  -0.14285714 -0.33333333  0.42857143       0.007
   0.28571429  0.33333333  0.42857143       0.007
  -0.28571429 -0.33333333  0.42857143       0.007
   0.42857143  0.33333333  0.42857143       0.007
  -0.42857143 -0.33333333  0.42857143       0.007
   0.00000000  0.41666667  0.42857143       0.007
   0.14285714  0.41666667  0.42857143       0.007
  -0.14285714 -0.41666667  0.42857143       0.007
   0.28571429  0.41666667  0.42857143       0.007
  -0.28571429 -0.41666667  0.42857143       0.007
   0.42857143  0.41666667  0.42857143       0.007
  -0.42857143 -0.41666667  0.42857143       0.007
   0.00000000  0.50000000  0.42857143       0.003
   0.14285714  0.50000000  0.42857143       0.003
  -0.14285714  0.50000000  0.42857143       0.003
   0.28571429  0.50000000  0.42857143       0.003
  -0.28571429  0.50000000  0.42857143       0.003
   0.42857143  0.50000000  0.42857143       0.003
  -0.42857143  0.50000000  0.42857143       0.003

 position of ions in fractional coordinates (direct lattice)
   0.00000000  0.00000000  0.00137338
   0.50000000  0.50000000  0.00000000
   0.83333333  0.50000000  0.36832500
   0.33333333  0.00000000  0.36832500
   0.16666667  0.50000000  0.63167500
   0.66666667  0.00000000  0.63167500
   0.83333333  0.50000000  0.77474900
   0.33333333  0.00000000  0.77474900
   0.16666667  0.50000000  0.22525100
   0.66666667  0.00000000  0.22525100

 position of ions in cartesian coordinates  (Angst):
   0.00000000  0.00000000  0.01000000
   2.30037149 -3.98436030  0.00000000
   2.30037149 -6.64060049  2.68189587
   0.00000000 -2.65624020  2.68189587
   2.30037149 -1.32812010  4.59943413
   0.00000000 -5.31248039  4.59943413
   2.30037149 -6.64060049  5.64120314
   0.00000000 -2.65624020  5.64120314
   2.30037149 -1.32812010  1.64012686
   0.00000000 -5.31248039  1.64012686



--------------------------------------------------------------------------------------------------------


 k-point   1 :   0.0000 0.0000 0.0000  plane waves:   11211
 k-point   2 :   0.1429 0.0000 0.0000  plane waves:   11201
 k-point   3 :   0.2857 0.0000 0.0000  plane waves:   11222
 k-point   4 :   0.4286 0.0000 0.0000  plane waves:   11234
 k-point   5 :   0.0000 0.0833 0.0000  plane waves:   11206
 k-point   6 :   0.1429 0.0833 0.0000  plane waves:   11209
 k-point   7 :   0.2857 0.0833 0.0000  plane waves:   11216
 k-point   8 :   0.4286 0.0833 0.0000  plane waves:   11216
 k-point   9 :   0.0000 0.1667 0.0000  plane waves:   11204
 k-point  10 :   0.1429 0.1667 0.0000  plane waves:   11222
 k-point  11 :   0.2857 0.1667 0.0000  plane waves:   11223
 k-point  12 :   0.4286 0.1667 0.0000  plane waves:   11242
 k-point  13 :   0.0000 0.2500 0.0000  plane waves:   11240
 k-point  14 :   0.1429 0.2500 0.0000  plane waves:   11237
 k-point  15 :   0.2857 0.2500 0.0000  plane waves:   11242
 k-point  16 :   0.4286 0.2500 0.0000  plane waves:   11223
 k-point  17 :   0.0000 0.3333 0.0000  plane waves:   11272
 k-point  18 :   0.1429 0.3333 0.0000  plane waves:   11228
 k-point  19 :   0.2857 0.3333 0.0000  plane waves:   11227
 k-point  20 :   0.4286 0.3333 0.0000  plane waves:   11231
 k-point  21 :   0.0000 0.4167 0.0000  plane waves:   11250
 k-point  22 :   0.1429 0.4167 0.0000  plane waves:   11234
 k-point  23 :   0.2857 0.4167 0.0000  plane waves:   11228
 k-point  24 :   0.4286 0.4167 0.0000  plane waves:   11228
 k-point  25 :   0.0000 0.5000 0.0000  plane waves:   11220
 k-point  26 :   0.1429 0.5000 0.0000  plane waves:   11226
 k-point  27 :   0.2857 0.5000 0.0000  plane waves:   11230
 k-point  28 :   0.4286 0.5000 0.0000  plane waves:   11252
 k-point  29 :   0.0000 0.0000 0.1429  plane waves:   11207
 k-point  30 :   0.1429 0.0000 0.1429  plane waves:   11224
 k-point  31 :  -0.1429 0.0000 0.1429  plane waves:   11224
 k-point  32 :   0.2857 0.0000 0.1429  plane waves:   11216
 k-point  33 :  -0.2857 0.0000 0.1429  plane waves:   11216
 k-point  34 :   0.4286 0.0000 0.1429  plane waves:   11211
 k-point  35 :  -0.4286 0.0000 0.1429  plane waves:   11211
 k-point  36 :   0.0000 0.0833 0.1429  plane waves:   11221
 k-point  37 :   0.1429 0.0833 0.1429  plane waves:   11223
 k-point  38 :  -0.1429-0.0833 0.1429  plane waves:   11223
 k-point  39 :   0.2857 0.0833 0.1429  plane waves:   11227
 k-point  40 :  -0.2857-0.0833 0.1429  plane waves:   11227
 k-point  41 :   0.4286 0.0833 0.1429  plane waves:   11217
 k-point  42 :  -0.4286-0.0833 0.1429  plane waves:   11217
 k-point  43 :   0.0000 0.1667 0.1429  plane waves:   11232
 k-point  44 :   0.1429 0.1667 0.1429  plane waves:   11217
 k-point  45 :  -0.1429-0.1667 0.1429  plane waves:   11217
 k-point  46 :   0.2857 0.1667 0.1429  plane waves:   11218
 k-point  47 :  -0.2857-0.1667 0.1429  plane waves:   11218
 k-point  48 :   0.4286 0.1667 0.1429  plane waves:   11229
 k-point  49 :  -0.4286-0.1667 0.1429  plane waves:   11229
 k-point  50 :   0.0000 0.2500 0.1429  plane waves:   11224
 k-point  51 :   0.1429 0.2500 0.1429  plane waves:   11230
 k-point  52 :  -0.1429-0.2500 0.1429  plane waves:   11230
 k-point  53 :   0.2857 0.2500 0.1429  plane waves:   11229
 k-point  54 :  -0.2857-0.2500 0.1429  plane waves:   11229
 k-point  55 :   0.4286 0.2500 0.1429  plane waves:   11224
 k-point  56 :  -0.4286-0.2500 0.1429  plane waves:   11224
 k-point  57 :   0.0000 0.3333 0.1429  plane waves:   11240
 k-point  58 :   0.1429 0.3333 0.1429  plane waves:   11222
 k-point  59 :  -0.1429-0.3333 0.1429  plane waves:   11222
 k-point  60 :   0.2857 0.3333 0.1429  plane waves:   11243
 k-point  61 :  -0.2857-0.3333 0.1429  plane waves:   11243
 k-point  62 :   0.4286 0.3333 0.1429  plane waves:   11238
 k-point  63 :  -0.4286-0.3333 0.1429  plane waves:   11238
 k-point  64 :   0.0000 0.4167 0.1429  plane waves:   11250
 k-point  65 :   0.1429 0.4167 0.1429  plane waves:   11236
 k-point  66 :  -0.1429-0.4167 0.1429  plane waves:   11236
 k-point  67 :   0.2857 0.4167 0.1429  plane waves:   11231
 k-point  68 :  -0.2857-0.4167 0.1429  plane waves:   11231
 k-point  69 :   0.4286 0.4167 0.1429  plane waves:   11234
 k-point  70 :  -0.4286-0.4167 0.1429  plane waves:   11234
 k-point  71 :   0.0000 0.5000 0.1429  plane waves:   11244
 k-point  72 :   0.1429 0.5000 0.1429  plane waves:   11246
 k-point  73 :  -0.1429 0.5000 0.1429  plane waves:   11246
 k-point  74 :   0.2857 0.5000 0.1429  plane waves:   11232
 k-point  75 :  -0.2857 0.5000 0.1429  plane waves:   11232
 k-point  76 :   0.4286 0.5000 0.1429  plane waves:   11244
 k-point  77 :  -0.4286 0.5000 0.1429  plane waves:   11244
 k-point  78 :   0.0000 0.0000 0.2857  plane waves:   11223
 k-point  79 :   0.1429 0.0000 0.2857  plane waves:   11201
 k-point  80 :  -0.1429 0.0000 0.2857  plane waves:   11201
 k-point  81 :   0.2857 0.0000 0.2857  plane waves:   11207
 k-point  82 :  -0.2857 0.0000 0.2857  plane waves:   11207
 k-point  83 :   0.4286 0.0000 0.2857  plane waves:   11217
 k-point  84 :  -0.4286 0.0000 0.2857  plane waves:   11217
 k-point  85 :   0.0000 0.0833 0.2857  plane waves:   11194
 k-point  86 :   0.1429 0.0833 0.2857  plane waves:   11201
 k-point  87 :  -0.1429-0.0833 0.2857  plane waves:   11201
 k-point  88 :   0.2857 0.0833 0.2857  plane waves:   11209
 k-point  89 :  -0.2857-0.0833 0.2857  plane waves:   11209
 k-point  90 :   0.4286 0.0833 0.2857  plane waves:   11211
 k-point  91 :  -0.4286-0.0833 0.2857  plane waves:   11211
 k-point  92 :   0.0000 0.1667 0.2857  plane waves:   11211
 k-point  93 :   0.1429 0.1667 0.2857  plane waves:   11211
 k-point  94 :  -0.1429-0.1667 0.2857  plane waves:   11211
 k-point  95 :   0.2857 0.1667 0.2857  plane waves:   11226
 k-point  96 :  -0.2857-0.1667 0.2857  plane waves:   11226
 k-point  97 :   0.4286 0.1667 0.2857  plane waves:   11219
 k-point  98 :  -0.4286-0.1667 0.2857  plane waves:   11219
 k-point  99 :   0.0000 0.2500 0.2857  plane waves:   11232
 k-point 100 :   0.1429 0.2500 0.2857  plane waves:   11226
 k-point 101 :  -0.1429-0.2500 0.2857  plane waves:   11226
 k-point 102 :   0.2857 0.2500 0.2857  plane waves:   11218
 k-point 103 :  -0.2857-0.2500 0.2857  plane waves:   11218
 k-point 104 :   0.4286 0.2500 0.2857  plane waves:   11233
 k-point 105 :  -0.4286-0.2500 0.2857  plane waves:   11233
 k-point 106 :   0.0000 0.3333 0.2857  plane waves:   11223
 k-point 107 :   0.1429 0.3333 0.2857  plane waves:   11230
 k-point 108 :  -0.1429-0.3333 0.2857  plane waves:   11230
 k-point 109 :   0.2857 0.3333 0.2857  plane waves:   11228
 k-point 110 :  -0.2857-0.3333 0.2857  plane waves:   11228
 k-point 111 :   0.4286 0.3333 0.2857  plane waves:   11233
 k-point 112 :  -0.4286-0.3333 0.2857  plane waves:   11233
 k-point 113 :   0.0000 0.4167 0.2857  plane waves:   11239
 k-point 114 :   0.1429 0.4167 0.2857  plane waves:   11242
 k-point 115 :  -0.1429-0.4167 0.2857  plane waves:   11242
 k-point 116 :   0.2857 0.4167 0.2857  plane waves:   11232
 k-point 117 :  -0.2857-0.4167 0.2857  plane waves:   11232
 k-point 118 :   0.4286 0.4167 0.2857  plane waves:   11230
 k-point 119 :  -0.4286-0.4167 0.2857  plane waves:   11230
 k-point 120 :   0.0000 0.5000 0.2857  plane waves:   11206
 k-point 121 :   0.1429 0.5000 0.2857  plane waves:   11234
 k-point 122 :  -0.1429 0.5000 0.2857  plane waves:   11234
 k-point 123 :   0.2857 0.5000 0.2857  plane waves:   11242
 k-point 124 :  -0.2857 0.5000 0.2857  plane waves:   11242
 k-point 125 :   0.4286 0.5000 0.2857  plane waves:   11236
 k-point 126 :  -0.4286 0.5000 0.2857  plane waves:   11236
 k-point 127 :   0.0000 0.0000 0.4286  plane waves:   11190
 k-point 128 :   0.1429 0.0000 0.4286  plane waves:   11190
 k-point 129 :  -0.1429 0.0000 0.4286  plane waves:   11190
 k-point 130 :   0.2857 0.0000 0.4286  plane waves:   11196
 k-point 131 :  -0.2857 0.0000 0.4286  plane waves:   11196
 k-point 132 :   0.4286 0.0000 0.4286  plane waves:   11212
 k-point 133 :  -0.4286 0.0000 0.4286  plane waves:   11212
 k-point 134 :   0.0000 0.0833 0.4286  plane waves:   11191
 k-point 135 :   0.1429 0.0833 0.4286  plane waves:   11183
 k-point 136 :  -0.1429-0.0833 0.4286  plane waves:   11183
 k-point 137 :   0.2857 0.0833 0.4286  plane waves:   11203
 k-point 138 :  -0.2857-0.0833 0.4286  plane waves:   11203
 k-point 139 :   0.4286 0.0833 0.4286  plane waves:   11212
 k-point 140 :  -0.4286-0.0833 0.4286  plane waves:   11212
 k-point 141 :   0.0000 0.1667 0.4286  plane waves:   11230
 k-point 142 :   0.1429 0.1667 0.4286  plane waves:   11211
 k-point 143 :  -0.1429-0.1667 0.4286  plane waves:   11211
 k-point 144 :   0.2857 0.1667 0.4286  plane waves:   11226
 k-point 145 :  -0.2857-0.1667 0.4286  plane waves:   11226
 k-point 146 :   0.4286 0.1667 0.4286  plane waves:   11227
 k-point 147 :  -0.4286-0.1667 0.4286  plane waves:   11227
 k-point 148 :   0.0000 0.2500 0.4286  plane waves:   11243
 k-point 149 :   0.1429 0.2500 0.4286  plane waves:   11220
 k-point 150 :  -0.1429-0.2500 0.4286  plane waves:   11220
 k-point 151 :   0.2857 0.2500 0.4286  plane waves:   11232
 k-point 152 :  -0.2857-0.2500 0.4286  plane waves:   11232
 k-point 153 :   0.4286 0.2500 0.4286  plane waves:   11231
 k-point 154 :  -0.4286-0.2500 0.4286  plane waves:   11231
 k-point 155 :   0.0000 0.3333 0.4286  plane waves:   11244
 k-point 156 :   0.1429 0.3333 0.4286  plane waves:   11245
 k-point 157 :  -0.1429-0.3333 0.4286  plane waves:   11245
 k-point 158 :   0.2857 0.3333 0.4286  plane waves:   11233
 k-point 159 :  -0.2857-0.3333 0.4286  plane waves:   11233
 k-point 160 :   0.4286 0.3333 0.4286  plane waves:   11236
 k-point 161 :  -0.4286-0.3333 0.4286  plane waves:   11236
 k-point 162 :   0.0000 0.4167 0.4286  plane waves:   11257
 k-point 163 :   0.1429 0.4167 0.4286  plane waves:   11246
 k-point 164 :  -0.1429-0.4167 0.4286  plane waves:   11246
 k-point 165 :   0.2857 0.4167 0.4286  plane waves:   11247
 k-point 166 :  -0.2857-0.4167 0.4286  plane waves:   11247
 k-point 167 :   0.4286 0.4167 0.4286  plane waves:   11247
 k-point 168 :  -0.4286-0.4167 0.4286  plane waves:   11247
 k-point 169 :   0.0000 0.5000 0.4286  plane waves:   11236
 k-point 170 :   0.1429 0.5000 0.4286  plane waves:   11252
 k-point 171 :  -0.1429 0.5000 0.4286  plane waves:   11252
 k-point 172 :   0.2857 0.5000 0.4286  plane waves:   11250
 k-point 173 :  -0.2857 0.5000 0.4286  plane waves:   11250
 k-point 174 :   0.4286 0.5000 0.4286  plane waves:   11244
 k-point 175 :  -0.4286 0.5000 0.4286  plane waves:   11244

 maximum and minimum number of plane-waves per node :       507      439

 maximum number of plane-waves:     11272
 maximum index in each direction:
   IXMAX=   17   IYMAX=   10   IZMAX=   15
   IXMIN=  -17   IYMIN=  -10   IZMIN=  -16


 parallel 3D FFT for wavefunctions:
    minimum data exchange during FFTs selected (reduces bandwidth)
 parallel 3D FFT for charge:
    minimum data exchange during FFTs selected (reduces bandwidth)


 total amount of memory used by VASP MPI-rank0    61213. kBytes
=======================================================================

   base      :      30000. kBytes
   nonl-proj :      17841. kBytes
   fftplans  :        620. kBytes
   grid      :       1447. kBytes
   one-center:         16. kBytes
   wavefun   :      11289. kBytes

     INWAV:  cpu time    0.0001: real time    0.0001
 Broyden mixing: mesh for mixing (old mesh)
   NGX = 35   NGY = 19   NGZ = 31
  (NGX  =140   NGY  = 80   NGZ  =128)
  gives a total of  20615 points

 initial charge density was supplied:
 charge density of overlapping atoms calculated
 number of electron      32.0000000 magnetization       6.0000000
 keeping initial charge density in first step


--------------------------------------------------------------------------------------------------------


 Maximum index for augmentation-charges         1102 (set IRDMAX)


--------------------------------------------------------------------------------------------------------


 First call to EWALD:  gamma=   0.275
 Maximum number of real-space cells 2x 4x 2
 Maximum number of reciprocal cells 3x 2x 3

    FEWALD:  cpu time    0.0021: real time    0.0021


--------------------------------------- Iteration      1(   1)  ---------------------------------------


    POTLOK:  cpu time    2.3941: real time    2.3941
    SETDIJ:  cpu time    0.4364: real time    0.4364
     EDDAV:  cpu time   63.0374: real time   63.0386
       DOS:  cpu time    0.0176: real time    0.0176
    --------------------------------------------
      LOOP:  cpu time   65.8854: real time   65.8868

 eigenvalue-minimisations  : 22400
 total energy-change (2. order) : 0.1083807E+03  (-0.1180766E+04)
 number of electron      32.0000000 magnetization       6.0000000
 augmentation part       32.0000000 magnetization       6.0000000

 Free energy of the ion-electron system (eV)
  ---------------------------------------------------
  alpha Z        PSCENC =        10.46941187
  Ewald energy   TEWEN  =      -774.38513513
  -Hartree energ DENC   =       -46.40518168
  -exchange      EXHF   =         0.00000000
  -V(xc)+E(xc)   XCENC  =      -465.86671671
  PAW double counting   =      1034.56103876     -516.80270385
  entropy T*S    EENTRO =        -0.00335460
  eigenvalues    EBANDS =       130.18824804
  atomic energy  EATOM  =       736.62504523
  Solvation  Ediel_sol  =         0.00000000
  ---------------------------------------------------
  free energy    TOTEN  =       108.38065193 eV

  energy without entropy =      108.38400652  energy(sigma->0) =      108.38232922


--------------------------------------------------------------------------------------------------------




--------------------------------------- Iteration      1(   2)  ---------------------------------------


     EDDAV:  cpu time   61.7179: real time   61.7208
       DOS:  cpu time    0.0166: real time    0.0166
    --------------------------------------------
      LOOP:  cpu time   61.7345: real time   61.7374

 eigenvalue-minimisations  : 25712
 total energy-change (2. order) :-0.1300545E+03  (-0.1187611E+03)
 number of electron      32.0000000 magnetization       6.0000000
 augmentation part       32.0000000 magnetization       6.0000000

 Free energy of the ion-electron system (eV)
  ---------------------------------------------------
  alpha Z        PSCENC =        10.46941187
  Ewald energy   TEWEN  =      -774.38513513
  -Hartree energ DENC   =       -46.40518168
  -exchange      EXHF   =         0.00000000
  -V(xc)+E(xc)   XCENC  =      -465.86671671
  PAW double counting   =      1034.56103876     -516.80270385
  entropy T*S    EENTRO =        -0.00113554
  eigenvalues    EBANDS =         0.13150071
  atomic energy  EATOM  =       736.62504523
  Solvation  Ediel_sol  =         0.00000000
  ---------------------------------------------------
  free energy    TOTEN  =       -21.67387634 eV

  energy without entropy =      -21.67274080  energy(sigma->0) =      -21.67330857


--------------------------------------------------------------------------------------------------------




--------------------------------------- Iteration      1(   3)  ---------------------------------------


     EDDAV:  cpu time   66.1660: real time   66.1685
       DOS:  cpu time    0.0162: real time    0.0162
    --------------------------------------------
      LOOP:  cpu time   66.1822: real time   66.1848

 eigenvalue-minimisations  : 29256
 total energy-change (2. order) :-0.1085293E+02  (-0.1064680E+02)
 number of electron      32.0000000 magnetization       6.0000000
 augmentation part       32.0000000 magnetization       6.0000000

 Free energy of the ion-electron system (eV)
  ---------------------------------------------------
  alpha Z        PSCENC =        10.46941187
  Ewald energy   TEWEN  =      -774.38513513
  -Hartree energ DENC   =       -46.40518168
  -exchange      EXHF   =         0.00000000
  -V(xc)+E(xc)   XCENC  =      -465.86671671
  PAW double counting   =      1034.56103876     -516.80270385
  entropy T*S    EENTRO =        -0.00001035
  eigenvalues    EBANDS =       -10.72255714
  atomic energy  EATOM  =       736.62504523
  Solvation  Ediel_sol  =         0.00000000
  ---------------------------------------------------
  free energy    TOTEN  =       -32.52680900 eV

  energy without entropy =      -32.52679865  energy(sigma->0) =      -32.52680383


--------------------------------------------------------------------------------------------------------




--------------------------------------- Iteration      1(   4)  ---------------------------------------


     EDDAV:  cpu time   64.9028: real time   64.9053
       DOS:  cpu time    0.0148: real time    0.0148
    --------------------------------------------
      LOOP:  cpu time   64.9176: real time   64.9200

 eigenvalue-minimisations  : 27192
 total energy-change (2. order) :-0.1816151E+00  (-0.1813726E+00)
 number of electron      32.0000000 magnetization       6.0000000
 augmentation part       32.0000000 magnetization       6.0000000

 Free energy of the ion-electron system (eV)
  ---------------------------------------------------
  alpha Z        PSCENC =        10.46941187
  Ewald energy   TEWEN  =      -774.38513513
  -Hartree energ DENC   =       -46.40518168
  -exchange      EXHF   =         0.00000000
  -V(xc)+E(xc)   XCENC  =      -465.86671671
  PAW double counting   =      1034.56103876     -516.80270385
  entropy T*S    EENTRO =        -0.00000958
  eigenvalues    EBANDS =       -10.90417299
  atomic energy  EATOM  =       736.62504523
  Solvation  Ediel_sol  =         0.00000000
  ---------------------------------------------------
  free energy    TOTEN  =       -32.70842408 eV

  energy without entropy =      -32.70841450  energy(sigma->0) =      -32.70841929


--------------------------------------------------------------------------------------------------------




--------------------------------------- Iteration      1(   5)  ---------------------------------------


     EDDAV:  cpu time   69.3949: real time   69.3963
       DOS:  cpu time    0.0159: real time    0.0159
    CHARGE:  cpu time    0.4141: real time    0.4142
    MIXING:  cpu time    0.0034: real time    0.0034
    --------------------------------------------
      LOOP:  cpu time   69.8283: real time   69.8297

 eigenvalue-minimisations  : 29688
 total energy-change (2. order) :-0.3001666E-02  (-0.3001622E-02)
 number of electron      31.9999999 magnetization       2.3197669
 augmentation part       -3.3041416 magnetization       2.3565389

 Broyden mixing:
  rms(total) = 0.72494E+00    rms(broyden)= 0.72494E+00
  rms(prec ) = 0.10192E+01
  weight for this iteration     100.00

 Free energy of the ion-electron system (eV)
  ---------------------------------------------------
  alpha Z        PSCENC =        10.46941187
  Ewald energy   TEWEN  =      -774.38513513
  -Hartree energ DENC   =       -46.40518168
  -exchange      EXHF   =         0.00000000
  -V(xc)+E(xc)   XCENC  =      -465.86671671
  PAW double counting   =      1034.56103876     -516.80270385
  entropy T*S    EENTRO =        -0.00000957
  eigenvalues    EBANDS =       -10.90717467
  atomic energy  EATOM  =       736.62504523
  Solvation  Ediel_sol  =         0.00000000
  ---------------------------------------------------
  free energy    TOTEN  =       -32.71142575 eV

  energy without entropy =      -32.71141618  energy(sigma->0) =      -32.71142096


--------------------------------------------------------------------------------------------------------




--------------------------------------- Iteration      1(   6)  ---------------------------------------


    POTLOK:  cpu time    1.7446: real time    1.7457
    SETDIJ:  cpu time    0.4309: real time    0.4310
     EDDAV:  cpu time   58.4363: real time   58.4376
       DOS:  cpu time    0.0148: real time    0.0148
    CHARGE:  cpu time    0.1471: real time    0.1471
    MIXING:  cpu time    0.0044: real time    0.0044
    --------------------------------------------
      LOOP:  cpu time   60.7781: real time   60.7805

 eigenvalue-minimisations  : 26088
 total energy-change (2. order) : 0.4080349E+00  (-0.1271181E+00)
 number of electron      31.9999999 magnetization      -0.0215669
 augmentation part       -3.1785860 magnetization       0.0115494

 Broyden mixing:
  rms(total) = 0.38489E+00    rms(broyden)= 0.38489E+00
  rms(prec ) = 0.51246E+00
  weight for this iteration     100.00

 eigenvalues of (default mixing * dielectric matrix)
  average eigenvalue GAMMA=   1.1687
  1.1687

 Free energy of the ion-electron system (eV)
  ---------------------------------------------------
  alpha Z        PSCENC =        10.46941187
  Ewald energy   TEWEN  =      -774.38513513
  -Hartree energ DENC   =       -53.47247048
  -exchange      EXHF   =         0.00000000
  -V(xc)+E(xc)   XCENC  =      -465.35791640
  PAW double counting   =      1277.99163366     -760.56670134
  entropy T*S    EENTRO =        -0.00000269
  eigenvalues    EBANDS =        -3.60725561
  atomic energy  EATOM  =       736.62504523
  Solvation  Ediel_sol  =         0.00000000
  ---------------------------------------------------
  free energy    TOTEN  =       -32.30339090 eV

  energy without entropy =      -32.30338820  energy(sigma->0) =      -32.30338955


--------------------------------------------------------------------------------------------------------




--------------------------------------- Iteration      1(   7)  ---------------------------------------


    POTLOK:  cpu time    2.4899: real time    2.4912
    SETDIJ:  cpu time    0.4369: real time    0.4369
     EDDAV:  cpu time   61.5808: real time   61.5821
       DOS:  cpu time    0.0157: real time    0.0157
    CHARGE:  cpu time    0.3567: real time    0.3567
    MIXING:  cpu time    0.0057: real time    0.0057
    --------------------------------------------
      LOOP:  cpu time   64.8858: real time   64.8884

 eigenvalue-minimisations  : 26352
 total energy-change (2. order) : 0.1577029E-01  (-0.7998365E-01)
 number of electron      31.9999999 magnetization      -0.2105069
 augmentation part       -3.0844601 magnetization      -0.2044852

 Broyden mixing:
  rms(total) = 0.21938E+00    rms(broyden)= 0.21938E+00
  rms(prec ) = 0.23716E+00
  weight for this iteration     100.00

 eigenvalues of (default mixing * dielectric matrix)
  average eigenvalue GAMMA=   1.1817
  1.7186  0.6447

 Free energy of the ion-electron system (eV)
  ---------------------------------------------------
  alpha Z        PSCENC =        10.46941187
  Ewald energy   TEWEN  =      -774.38513513
  -Hartree energ DENC   =       -58.80676031
  -exchange      EXHF   =         0.00000000
  -V(xc)+E(xc)   XCENC  =      -464.55349480
  PAW double counting   =      1579.12590584    -1061.88691408
  entropy T*S    EENTRO =        -0.00003617
  eigenvalues    EBANDS =         1.12435694
  atomic energy  EATOM  =       736.62504523
  Solvation  Ediel_sol  =         0.00000000
  ---------------------------------------------------
  free energy    TOTEN  =       -32.28762061 eV

  energy without entropy =      -32.28758444  energy(sigma->0) =      -32.28760252


--------------------------------------------------------------------------------------------------------




--------------------------------------- Iteration      1(   8)  ---------------------------------------


    POTLOK:  cpu time    2.8825: real time    2.8838
    SETDIJ:  cpu time    0.4339: real time    0.4339
     EDDAV:  cpu time   61.3322: real time   61.3334
       DOS:  cpu time    0.0156: real time    0.0156
    CHARGE:  cpu time    0.3740: real time    0.3740
    MIXING:  cpu time    0.0060: real time    0.0060
    --------------------------------------------
      LOOP:  cpu time   65.0442: real time   65.0467

 eigenvalue-minimisations  : 27064
 total energy-change (2. order) :-0.9404518E-03  (-0.5407749E-02)
 number of electron      31.9999999 magnetization      -0.1419398
 augmentation part       -3.0717630 magnetization      -0.1434125

 Broyden mixing:
  rms(total) = 0.13983E+00    rms(broyden)= 0.13983E+00
  rms(prec ) = 0.15081E+00
  weight for this iteration     100.00

 eigenvalues of (default mixing * dielectric matrix)
  average eigenvalue GAMMA=   1.3054
  2.3398  0.9951  0.5814

 Free energy of the ion-electron system (eV)
  ---------------------------------------------------
  alpha Z        PSCENC =        10.46941187
  Ewald energy   TEWEN  =      -774.38513513
  -Hartree energ DENC   =       -59.43094169
  -exchange      EXHF   =         0.00000000
  -V(xc)+E(xc)   XCENC  =      -464.33405693
  PAW double counting   =      1686.78082982    -1169.52666748
  entropy T*S    EENTRO =        -0.00005689
  eigenvalues    EBANDS =         1.51301014
  atomic energy  EATOM  =       736.62504523
[...]
     17       5.7418      0.00000
     18       5.7418      0.00000
     19       5.8530      0.00000
     20       5.8531      0.00000
     21       6.9295      0.00000
     22       6.9296      0.00000
     23       7.1487      0.00000
     24       7.1487      0.00000
     25       7.5017      0.00000
     26       7.5017      0.00000
     27       8.4807      0.00000
     28       8.4807      0.00000
     29       9.4374      0.00000
     30       9.4377      0.00000
     31       9.6953      0.00000
     32       9.6956      0.00000

 k-point   172 :       0.2857    0.5000    0.4286
  band No.  band energies     occupation
      1      -4.7989      1.00000
      2      -4.7985      1.00000
      3      -4.6720      1.00000
      4      -4.6716      1.00000
      5      -0.5134      1.00000
      6      -0.5132      1.00000
      7      -0.1226      1.00000
      8      -0.1224      1.00000
      9       1.6445      1.00000
     10       1.6446      1.00000
     11       2.1102      1.00000
     12       2.1103      1.00000
     13       2.6738      1.00000
     14       2.6739      1.00000
     15       3.1240      1.00000
     16       3.1240      1.00000
     17       4.8903      0.00000
     18       4.8904      0.00000
     19       6.0055      0.00000
     20       6.0055      0.00000
     21       6.4237      0.00000
     22       6.4238      0.00000
     23       6.7133      0.00000
     24       6.7134      0.00000
     25       7.8260      0.00000
     26       7.8260      0.00000
     27       8.7562      0.00000
     28       8.7562      0.00000
     29      10.4697      0.00000
     30      10.4697      0.00000
     31      10.6081      0.00000
     32      10.6083      0.00000

 k-point   173 :      -0.2857    0.5000    0.4286
  band No.  band energies     occupation
      1      -4.7903      1.00000
      2      -4.7898      1.00000
      3      -4.6818      1.00000
      4      -4.6813      1.00000
      5      -0.4631      1.00000
      6      -0.4628      1.00000
      7      -0.1745      1.00000
      8      -0.1742      1.00000
      9       1.6292      1.00000
     10       1.6293      1.00000
     11       2.1094      1.00000
     12       2.1095      1.00000
     13       2.6572      1.00000
     14       2.6572      1.00000
     15       3.1464      1.00000
     16       3.1464      1.00000
     17       5.1613      0.00000
     18       5.1613      0.00000
     19       5.6556      0.00000
     20       5.6556      0.00000
     21       6.2935      0.00000
     22       6.2935      0.00000
     23       6.9479      0.00000
     24       6.9479      0.00000
     25       7.7170      0.00000
     26       7.7170      0.00000
     27       8.9121      0.00000
     28       8.9121      0.00000
     29      10.2567      0.00000
     30      10.2567      0.00000
     31      10.7610      0.00000
     32      10.7610      0.00000

 k-point   174 :       0.4286    0.5000    0.4286
  band No.  band energies     occupation
      1      -4.7863      1.00000
      2      -4.7858      1.00000
      3      -4.6770      1.00000
      4      -4.6765      1.00000
      5      -0.6221      1.00000
      6      -0.6219      1.00000
      7      -0.2357      1.00000
      8      -0.2356      1.00000
      9       2.1356      1.00000
     10       2.1357      1.00000
     11       2.4982      1.00000
     12       2.4983      1.00000
     13       2.5724      1.00000
     14       2.5726      1.00000
     15       2.9551      1.00000
     16       2.9551      1.00000
     17       4.5681      0.00000
     18       4.5681      0.00000
     19       5.6037      0.00000
     20       5.6038      0.00000
     21       6.0768      0.00000
     22       6.0768      0.00000
     23       6.5216      0.00000
     24       6.5216      0.00000
     25       8.3726      0.00000
     26       8.3726      0.00000
     27       9.4068      0.00000
     28       9.4069      0.00000
     29       9.7038      0.00000
     30       9.7038      0.00000
     31      10.6661      0.00000
     32      10.6661      0.00000

 k-point   175 :      -0.4286    0.5000    0.4286
  band No.  band energies     occupation
      1      -4.7819      1.00000
      2      -4.7814      1.00000
      3      -4.6819      1.00000
      4      -4.6814      1.00000
      5      -0.6051      1.00000
      6      -0.6049      1.00000
      7      -0.2525      1.00000
      8      -0.2523      1.00000
      9       2.1237      1.00000
     10       2.1238      1.00000
     11       2.4740      1.00000
     12       2.4742      1.00000
     13       2.5867      1.00000
     14       2.5869      1.00000
     15       2.9668      1.00000
     16       2.9668      1.00000
     17       4.6686      0.00000
     18       4.6686      0.00000
     19       5.5089      0.00000
     20       5.5090      0.00000
     21       5.9807      0.00000
     22       5.9807      0.00000
     23       6.6247      0.00000
     24       6.6248      0.00000
     25       8.3387      0.00000
     26       8.3387      0.00000
     27       9.4461      0.00000
     28       9.4462      0.00000
     29       9.6926      0.00000
     30       9.6926      0.00000
     31      10.6963      0.00000
     32      10.6963      0.00000


--------------------------------------------------------------------------------------------------------


 soft charge-density along one line, spin component           1
         0         1         2         3         4         5         6         7         8         9
 total charge-density along one line

 soft charge-density along one line, spin component           2
         0         1         2         3         4         5         6         7         8         9
 total charge-density along one line

 pseudopotential strength for first ion, spin component:           1
  3.000   9.585  -0.000   0.000  -0.000  -0.000  -0.000  -0.000
  9.585  30.445  -0.000  -0.000  -0.000  -0.000  -0.000  -0.000
 -0.000  -0.000   7.105  -0.000  -0.000  10.459  -0.000  -0.000
  0.000  -0.000  -0.000   7.106  -0.000  -0.000  10.460  -0.000
 -0.000  -0.000  -0.000  -0.000   7.105  -0.000  -0.000  10.459
 -0.000  -0.000  10.459  -0.000  -0.000  14.541  -0.000  -0.000
 -0.000  -0.000  -0.000  10.460  -0.000  -0.000  14.543   0.000
 -0.000  -0.000  -0.000  -0.000  10.459  -0.000   0.000  14.541
 -0.000  -0.000  -0.000   0.000  -0.000  -0.000   0.000  -0.000
 -0.000  -0.000  -0.000  -0.000   0.000  -0.000  -0.000   0.000
  0.000   0.001   0.000  -0.000   0.000   0.000  -0.000   0.000
 -0.000   0.000   0.000  -0.000  -0.000   0.000  -0.000  -0.000
 -0.000  -0.000   0.000   0.000  -0.000   0.000   0.000  -0.000
 pseudopotential strength for first ion, spin component:           2
  3.000   9.585  -0.000   0.000  -0.000  -0.000  -0.000  -0.000
  9.585  30.445  -0.000  -0.000  -0.000  -0.000  -0.000  -0.000
 -0.000  -0.000   7.105  -0.000  -0.000  10.459  -0.000  -0.000
  0.000  -0.000  -0.000   7.106   0.000  -0.000  10.460   0.000
 -0.000  -0.000  -0.000   0.000   7.105  -0.000   0.000  10.459
 -0.000  -0.000  10.459  -0.000  -0.000  14.541  -0.000  -0.000
 -0.000  -0.000  -0.000  10.460   0.000  -0.000  14.543   0.000
 -0.000  -0.000  -0.000   0.000  10.459  -0.000   0.000  14.541
 -0.000  -0.000  -0.000   0.000  -0.000  -0.000   0.000  -0.000
 -0.000  -0.000  -0.000  -0.000   0.000  -0.000  -0.000   0.000
  0.000   0.001   0.000  -0.000   0.000   0.000  -0.000   0.000
  0.000   0.000   0.000  -0.000  -0.000   0.000  -0.000  -0.000
 -0.000  -0.000   0.000   0.000  -0.000   0.000   0.000  -0.000
 total augmentation occupancy for first ion, spin component:           1
  0.910  -0.018   0.000   0.001   0.000  -0.000  -0.000   0.000   0.000   0.000  -0.005   0.000   0.000
 -0.018   0.000   0.000  -0.000   0.000  -0.000   0.000   0.000   0.000   0.000   0.000   0.000   0.000
  0.000   0.000   0.060   0.000   0.000  -0.005  -0.000   0.000   0.000   0.000   0.000   0.000  -0.000
  0.001  -0.000   0.000   0.058   0.000  -0.000  -0.004   0.000   0.000   0.000  -0.000   0.000  -0.000
  0.000   0.000   0.000   0.000   0.060   0.000   0.000  -0.005  -0.000   0.000   0.000   0.000   0.000
 -0.000  -0.000  -0.005  -0.000   0.000   0.000   0.000   0.000   0.000  -0.000  -0.000   0.000   0.000
 -0.000   0.000  -0.000  -0.004   0.000   0.000   0.000   0.000   0.000  -0.000   0.000   0.000   0.000
  0.000   0.000   0.000   0.000  -0.005   0.000   0.000   0.000   0.000   0.000   0.000  -0.000   0.000
  0.000   0.000   0.000   0.000  -0.000   0.000   0.000   0.000   0.006   0.000   0.000  -0.004   0.000
  0.000   0.000   0.000   0.000   0.000  -0.000  -0.000   0.000   0.000   0.009   0.000   0.000  -0.004
 -0.005   0.000   0.000  -0.000   0.000  -0.000   0.000   0.000   0.000   0.000   0.002   0.000   0.000
  0.000   0.000   0.000   0.000   0.000   0.000   0.000  -0.000  -0.004   0.000   0.000   0.009   0.000
  0.000   0.000  -0.000  -0.000   0.000   0.000   0.000   0.000   0.000  -0.004   0.000   0.000   0.006
 total augmentation occupancy for first ion, spin component:           2
  0.000  -0.000  -0.000   0.000   0.000  -0.000  -0.000   0.000   0.000  -0.000   0.000   0.000  -0.000
 -0.000   0.000   0.000  -0.000   0.000   0.000   0.000   0.000   0.000   0.000  -0.000   0.000   0.000
 -0.000   0.000  -0.000  -0.000   0.000   0.000   0.000   0.000   0.000  -0.000   0.000   0.000   0.000
  0.000  -0.000  -0.000  -0.000   0.000   0.000  -0.000   0.000   0.000  -0.000   0.000   0.000  -0.000
  0.000   0.000   0.000   0.000  -0.000   0.000   0.000   0.000   0.000   0.000   0.000  -0.000   0.000
 -0.000   0.000   0.000   0.000   0.000   0.000  -0.000   0.000   0.000  -0.000   0.000   0.000  -0.000
 -0.000   0.000   0.000  -0.000   0.000  -0.000   0.000   0.000   0.000   0.000  -0.000   0.000   0.000
  0.000   0.000   0.000   0.000   0.000   0.000   0.000   0.000  -0.000   0.000   0.000  -0.000   0.000
  0.000   0.000   0.000   0.000   0.000   0.000   0.000  -0.000  -0.000   0.000   0.000   0.000   0.000
 -0.000   0.000  -0.000  -0.000   0.000  -0.000   0.000   0.000   0.000  -0.000  -0.000   0.000   0.000
  0.000  -0.000   0.000   0.000   0.000   0.000  -0.000   0.000   0.000  -0.000   0.000   0.000  -0.000
  0.000   0.000   0.000   0.000  -0.000   0.000   0.000  -0.000   0.000   0.000   0.000  -0.000   0.000
 -0.000   0.000   0.000  -0.000   0.000  -0.000   0.000   0.000   0.000   0.000  -0.000   0.000  -0.000


------------------------ aborting loop because EDIFF is reached ----------------------------------------





 total charge

# of ion       s       p       d       tot
------------------------------------------
    1        0.150   0.096   0.018   0.263
    2        0.150   0.096   0.018   0.263
    3        0.181   0.129   0.022   0.331
    4        0.181   0.129   0.022   0.331
    5        0.181   0.129   0.022   0.331
    6        0.181   0.129   0.022   0.331
    7        1.126   1.399   0.012   2.536
    8        1.126   1.399   0.012   2.536
    9        1.126   1.400   0.012   2.537
   10        1.126   1.400   0.012   2.537
--------------------------------------------------
tot          5.526   6.303   0.169  11.998



 magnetization (x)

# of ion       s       p       d       tot
------------------------------------------
    1       -0.000  -0.000  -0.000  -0.000
    2       -0.000  -0.000  -0.000  -0.000
    3        0.000   0.000   0.000   0.000
    4        0.000   0.000   0.000   0.000
    5        0.000   0.000   0.000   0.000
    6        0.000   0.000   0.000   0.000
    7        0.000  -0.000   0.000  -0.000
    8        0.000  -0.000   0.000  -0.000
    9        0.000  -0.000   0.000  -0.000
   10        0.000  -0.000   0.000  -0.000
--------------------------------------------------
tot          0.000  -0.000   0.000  -0.000

    CHARGE:  cpu time    0.1509: real time    0.1509
    FORLOC:  cpu time    0.0020: real time    0.0020
    FORNL :  cpu time    1.1156: real time    1.1157
    STRESS:  cpu time    1.6698: real time    1.6699
    FORCOR:  cpu time    1.6788: real time    1.6788
    FORHAR:  cpu time    0.6875: real time    0.6875
    MIXING:  cpu time    0.0060: real time    0.0060
    OFIELD:  cpu time    0.0000: real time    0.0000

  FORCE on cell =-STRESS in cart. coord.  units (eV):
  Direction    XX          YY          ZZ          XY          YZ          ZX
  --------------------------------------------------------------------------------------
  Alpha Z    10.46941    10.46941    10.46941
  Ewald    -258.14642  -258.14655  -258.09319    -0.00000    -0.00000    -0.00000
  Hartree    18.93438    18.93463    21.61779     0.00000    -0.00004    -0.00000
  E(xc)    -111.97288  -111.97261  -111.49392    -0.00000    -0.00002     0.00000
  Local    -144.67709  -144.67412  -147.24217    -0.00000    -0.00006    -0.00000
  n-local   374.20490   374.20243   370.01352     2.26574     0.00009     0.04076
  augment   -67.02075   -67.01997   -66.20160     0.00000    -0.00001     0.00000
  Kinetic   175.82840   175.82578   178.57565     2.88655    -0.00010     0.15024
  Fock        0.00000     0.00000     0.00000     0.00000     0.00000     0.00000
  -------------------------------------------------------------------------------------
  Total      -2.38005    -2.38100    -2.35452     0.00000    -0.00013     0.00000
  in kB     -14.28466   -14.29036   -14.13140     0.00000    -0.00080     0.00000
  external pressure =      -14.24 kB  Pullay stress =        0.00 kB


 VOLUME and BASIS-vectors are now :
 -----------------------------------------------------------------------------
  energy-cutoff  :      700.00
  volume of cell :      266.95
      direct lattice vectors                 reciprocal lattice vectors
     0.000000000 -7.968720590  0.000000000     0.000000000 -0.125490659  0.000000000
     4.600742978  0.000000000  0.000000000     0.217356198  0.000000000 -0.000000000
     0.000000000  0.000000000  7.281330000    -0.000000000  0.000000000  0.137337547

  length of vectors
     7.968720590  4.600742978  7.281330000     0.125490659  0.217356198  0.137337547


 FORCES acting on ions
    electron-ion (+dipol)            ewald-force                    non-local-force                 convergence-correction
 -----------------------------------------------------------------------------------------------
   -.995E-14 0.390E-02 0.128E+00   -.114E-14 -.178E-14 -.107E+00   0.000E+00 -.122E-02 -.407E-01   0.148E-15 -.175E-05 0.241E-05
   -.930E-13 -.390E-02 0.418E-02   -.361E-15 0.711E-14 -.120E-01   0.000E+00 0.121E-02 0.131E-02   0.127E-15 0.176E-05 0.868E-06
   -.402E-13 -.772E-02 -.221E+01   -.136E-15 0.110E-01 0.233E+01   0.000E+00 -.337E-03 -.135E+00   0.256E-15 -.119E-05 0.485E-04
   -.363E-13 0.765E-02 -.220E+01   -.148E-15 -.110E-01 0.232E+01   0.000E+00 0.427E-03 -.138E+00   0.891E-16 0.126E-05 0.491E-04
   0.371E-13 -.753E-02 0.218E+01   0.403E-15 0.109E-01 -.228E+01   0.000E+00 -.453E-03 0.131E+00   -.336E-16 -.126E-05 -.511E-04
   -.124E-13 0.760E-02 0.219E+01   0.146E-15 -.109E-01 -.229E+01   0.000E+00 0.362E-03 0.128E+00   -.939E-16 0.119E-05 -.506E-04
   0.541E-14 0.498E-01 0.254E+01   0.667E-15 -.567E-01 -.745E+00   0.000E+00 0.448E-02 -.181E+01   -.155E-15 -.224E-06 -.175E-03
   -.293E-13 -.498E-01 0.255E+01   -.167E-15 0.567E-01 -.753E+00   0.000E+00 -.441E-02 -.181E+01   0.643E-16 0.555E-06 -.175E-03
   -.246E-12 0.500E-01 -.256E+01   0.334E-15 -.569E-01 0.771E+00   0.000E+00 0.433E-02 0.180E+01   -.208E-14 -.508E-06 0.176E-03
   -.340E-13 -.500E-01 -.255E+01   0.420E-15 0.569E-01 0.763E+00   0.000E+00 -.440E-02 0.180E+01   -.234E-14 0.150E-06 0.176E-03
 -----------------------------------------------------------------------------------------------
   -.458E-12 0.215E-05 0.707E-01   0.195E-16 -.163E-14 0.000E+00   0.000E+00 -.201E-05 -.707E-01   -.402E-14 -.190E-07 0.425E-06


 POSITION                                       TOTAL-FORCE (eV/Angst)
 -----------------------------------------------------------------------------------
      0.00000      0.00000      0.01000         0.000000      0.002687     -0.019825
      2.30037     -3.98436      0.00000         0.000000     -0.002687     -0.006470
      2.30037     -6.64060      2.68190         0.000000      0.002974     -0.020295
      0.00000     -2.65624      2.68190         0.000000     -0.002949     -0.021524
      2.30037     -1.32812      4.59943         0.000000      0.002920      0.033860
      0.00000     -5.31248      4.59943         0.000000     -0.002947      0.032626
      2.30037     -6.64060      5.64120         0.000000     -0.002429     -0.012064
      0.00000     -2.65624      5.64120         0.000000      0.002474     -0.014293
      2.30037     -1.32812      1.64013         0.000000     -0.002556      0.015139
      0.00000     -5.31248      1.64013         0.000000      0.002511      0.012848
 -----------------------------------------------------------------------------------
    total drift:                               -0.000000      0.000000     -0.000004


--------------------------------------------------------------------------------------------------------



  FREE ENERGIE OF THE ION-ELECTRON SYSTEM (eV)
  ---------------------------------------------------
  free  energy   TOTEN  =       -32.28460936 eV

  energy  without entropy=      -32.28456634  energy(sigma->0) =      -32.28458785



--------------------------------------------------------------------------------------------------------


    POTLOK:  cpu time    2.2901: real time    2.2902


--------------------------------------------------------------------------------------------------------


     LOOP+:  cpu time 1042.0007: real time 1042.0415
    4ORBIT:  cpu time    0.0000: real time    0.0000



 total charge

# of ion       s       p       d       tot
------------------------------------------
    1        0.150   0.096   0.018   0.263
    2        0.150   0.096   0.018   0.263
    3        0.181   0.129   0.022   0.331
    4        0.181   0.129   0.022   0.331
    5        0.181   0.129   0.022   0.331
    6        0.181   0.129   0.022   0.331
    7        1.126   1.399   0.012   2.536
    8        1.126   1.399   0.012   2.536
    9        1.126   1.400   0.012   2.537
   10        1.126   1.400   0.012   2.537
--------------------------------------------------
tot          5.526   6.303   0.169  11.998



 magnetization (x)

# of ion       s       p       d       tot
------------------------------------------
    1       -0.000  -0.000  -0.000  -0.000
    2       -0.000  -0.000  -0.000  -0.000
    3        0.000   0.000   0.000   0.000
    4        0.000   0.000   0.000   0.000
    5        0.000   0.000   0.000   0.000
    6        0.000   0.000   0.000   0.000
    7        0.000  -0.000   0.000  -0.000
    8        0.000  -0.000   0.000  -0.000
    9        0.000  -0.000   0.000  -0.000
   10        0.000  -0.000   0.000  -0.000
--------------------------------------------------
tot          0.000  -0.000   0.000  -0.000


 total amount of memory used by VASP MPI-rank0    61213. kBytes
=======================================================================

   base      :      30000. kBytes
   nonl-proj :      17841. kBytes
   fftplans  :        620. kBytes
   grid      :       1447. kBytes
   one-center:         16. kBytes
   wavefun   :      11289. kBytes



 General timing and accounting informations for this job:
 ========================================================

                  Total CPU time used (sec):     1137.938
                            User time (sec):      338.910
                          System time (sec):      799.027
                         Elapsed time (sec):     1138.138

                   Maximum memory used (kb):      104276.
                   Average memory used (kb):          N/A

                          Minor page faults:         8665
                          Major page faults:         1044
                 Voluntary context switches:          693
