   2   2   1   0
  0.2016476E+02  0.3849278E-09  0.3849279E-09  0.3849278E-09  0.5000000E-15
   1.0000000000000000E-004
  CAR
 unknown system
    124.62662278    -12.45424099  301      6.08731118      1.00000000
    -12.454  0.0000E+00  0.0000E+00  0.0000E+00  0.0000E+00
    -11.997  0.0000E+00  0.0000E+00  0.0000E+00  0.0000E+00
    -11.540  0.0000E+00  0.0000E+00  0.0000E+00  0.0000E+00
    -11.083  0.0000E+00  0.0000E+00  0.0000E+00  0.0000E+00
    -10.626  0.0000E+00  0.0000E+00  0.0000E+00  0.0000E+00
    -10.170  0.0000E+00  0.0000E+00  0.0000E+00  0.0000E+00
     -9.713  0.0000E+00  0.0000E+00  0.0000E+00  0.0000E+00
     -9.256  0.0000E+00  0.0000E+00  0.0000E+00  0.0000E+00
     -8.799  0.0000E+00  0.0000E+00  0.0000E+00  0.0000E+00
     -8.342  0.0000E+00  0.0000E+00  0.0000E+00  0.0000E+00
     -7.885  0.1795E-32  0.1795E-32  0.8202E-33  0.8202E-33
     -7.428  0.1083E-18  0.1083E-18  0.4948E-19  0.4948E-19
     -6.971  0.1135E-09  0.1135E-09  0.5187E-10  0.5187E-10
     -6.514  0.9894E-06  0.9894E-06  0.4522E-06  0.4522E-06
     -6.057  0.1867E-03  0.1867E-03  0.8574E-04  0.8574E-04
     -5.600  0.1105E-02  0.1105E-02  0.5908E-03  0.5908E-03
     -5.143  0.1780E-02  0.1780E-02  0.1404E-02  0.1404E-02
     -4.686  0.2221E-02  0.2221E-02  0.2419E-02  0.2419E-02
     -4.229  0.2231E-02  0.2231E-02  0.3438E-02  0.3438E-02
     -3.772  0.4454E-02  0.4454E-02  0.5473E-02  0.5473E-02
     -3.316  0.3855E-02  0.3855E-02  0.7235E-02  0.7235E-02
     -2.859  0.2622E-02  0.2622E-02  0.8433E-02  0.8433E-02
     -2.402  0.2880E-02  0.2880E-02  0.9749E-02  0.9749E-02
     -1.945  0.1030E-02  0.1030E-02  0.1022E-01  0.1022E-01
     -1.488  0.4919E-03  0.4919E-03  0.1044E-01  0.1044E-01
     -1.031  0.4916E-02  0.4916E-02  0.1269E-01  0.1269E-01
     -0.574  0.4792E-02  0.4792E-02  0.1488E-01  0.1488E-01
     -0.117  0.2572E-02  0.2572E-02  0.1606E-01  0.1606E-01
      0.340  0.2310E-02  0.2310E-02  0.1711E-01  0.1711E-01
      0.797  0.1011E-02  0.1011E-02  0.1757E-01  0.1757E-01
      1.254  0.1971E-02  0.1971E-02  0.1847E-01  0.1847E-01
      1.711  0.3845E-02  0.3845E-02  0.2023E-01  0.2023E-01
      2.168  0.5538E-02  0.5538E-02  0.2276E-01  0.2276E-01
      2.625  0.5260E-02  0.5260E-02  0.2516E-01  0.2516E-01
      3.082  0.7582E-02  0.7582E-02  0.2863E-01  0.2863E-01
      3.539  0.6331E-02  0.6331E-02  0.3152E-01  0.3152E-01
      3.995  0.7786E-02  0.7786E-02  0.3508E-01  0.3508E-01
      4.452  0.5190E-02  0.5190E-02  0.3745E-01  0.3745E-01
      4.909  0.4356E-02  0.4356E-02  0.3944E-01  0.3944E-01
      5.366  0.1439E-02  0.1439E-02  0.4010E-01  0.4010E-01
      5.823  0.6749E-03  0.6749E-03  0.4041E-01  0.4041E-01
      6.280  0.1307E-03  0.1307E-03  0.4047E-01  0.4047E-01
      6.737  0.1502E-02  0.1502E-02  0.4115E-01  0.4115E-01
      7.194  0.2705E-02  0.2705E-02  0.4239E-01  0.4239E-01
      7.651  0.4504E-02  0.4504E-02  0.4445E-01  0.4445E-01
      8.108  0.8209E-02  0.8209E-02  0.4820E-01  0.4820E-01
      8.565  0.5610E-02  0.5610E-02  0.5076E-01  0.5076E-01
      9.022  0.7384E-02  0.7384E-02  0.5413E-01  0.5413E-01
      9.479  0.1062E-01  0.1062E-01  0.5899E-01  0.5899E-01
      9.936  0.4860E-02  0.4860E-02  0.6121E-01  0.6121E-01
     10.393  0.6319E-02  0.6319E-02  0.6410E-01  0.6410E-01
     10.850  0.7953E-02  0.7953E-02  0.6773E-01  0.6773E-01
     11.306  0.4466E-02  0.4466E-02  0.6977E-01  0.6977E-01
     11.763  0.5300E-02  0.5300E-02  0.7219E-01  0.7219E-01
     12.220  0.4584E-02  0.4584E-02  0.7429E-01  0.7429E-01
     12.677  0.9214E-02  0.9214E-02  0.7850E-01  0.7850E-01
     13.134  0.2508E-02  0.2508E-02  0.7964E-01  0.7964E-01
     13.591  0.7430E-02  0.7430E-02  0.8304E-01  0.8304E-01
     14.048  0.5036E-02  0.5036E-02  0.8534E-01  0.8534E-01
     14.505  0.8340E-02  0.8340E-02  0.8915E-01  0.8915E-01
     14.962  0.7180E-02  0.7180E-02  0.9243E-01  0.9243E-01
     15.419  0.5321E-02  0.5321E-02  0.9486E-01  0.9486E-01
     15.876  0.4777E-02  0.4777E-02  0.9705E-01  0.9705E-01
     16.333  0.8831E-02  0.8831E-02  0.1011E+00  0.1011E+00
     16.790  0.7850E-02  0.7850E-02  0.1047E+00  0.1047E+00
     17.247  0.5650E-02  0.5650E-02  0.1072E+00  0.1072E+00
     17.704  0.4413E-02  0.4413E-02  0.1093E+00  0.1093E+00
     18.160  0.8378E-02  0.8378E-02  0.1131E+00  0.1131E+00
     18.617  0.1138E-01  0.1138E-01  0.1183E+00  0.1183E+00
     19.074  0.5421E-02  0.5421E-02  0.1208E+00  0.1208E+00
     19.531  0.7338E-02  0.7338E-02  0.1241E+00  0.1241E+00
     19.988  0.8480E-02  0.8480E-02  0.1280E+00  0.1280E+00
     20.445  0.6791E-02  0.6791E-02  0.1311E+00  0.1311E+00
     20.902  0.1012E-01  0.1012E-01  0.1357E+00  0.1357E+00
     21.359  0.7007E-02  0.7007E-02  0.1389E+00  0.1389E+00
     21.816  0.3827E-02  0.3827E-02  0.1407E+00  0.1407E+00
     22.273  0.8673E-02  0.8673E-02  0.1446E+00  0.1446E+00
     22.730  0.8773E-02  0.8773E-02  0.1486E+00  0.1486E+00
     23.187  0.8961E-02  0.8961E-02  0.1527E+00  0.1527E+00
     23.644  0.6785E-02  0.6785E-02  0.1558E+00  0.1558E+00
     24.101  0.9471E-02  0.9471E-02  0.1602E+00  0.1602E+00
     24.558  0.9435E-02  0.9435E-02  0.1645E+00  0.1645E+00
     25.015  0.9172E-02  0.9172E-02  0.1687E+00  0.1687E+00
     25.471  0.7966E-02  0.7966E-02  0.1723E+00  0.1723E+00
     25.928  0.7839E-02  0.7839E-02  0.1759E+00  0.1759E+00
     26.385  0.9716E-02  0.9716E-02  0.1803E+00  0.1803E+00
     26.842  0.7597E-02  0.7597E-02  0.1838E+00  0.1838E+00
     27.299  0.8881E-02  0.8881E-02  0.1879E+00  0.1879E+00
     27.756  0.8587E-02  0.8587E-02  0.1918E+00  0.1918E+00
     28.213  0.1038E-01  0.1038E-01  0.1965E+00  0.1965E+00
     28.670  0.5432E-02  0.5432E-02  0.1990E+00  0.1990E+00
     29.127  0.1147E-01  0.1147E-01  0.2043E+00  0.2043E+00
     29.584  0.6499E-02  0.6499E-02  0.2072E+00  0.2072E+00
     30.041  0.9011E-02  0.9011E-02  0.2113E+00  0.2113E+00
     30.498  0.5600E-02  0.5600E-02  0.2139E+00  0.2139E+00
     30.955  0.1019E-01  0.1019E-01  0.2186E+00  0.2186E+00
     31.412  0.5744E-02  0.5744E-02  0.2212E+00  0.2212E+00
     31.869  0.9601E-02  0.9601E-02  0.2256E+00  0.2256E+00
     32.326  0.8782E-02  0.8782E-02  0.2296E+00  0.2296E+00
     32.782  0.9969E-02  0.9969E-02  0.2341E+00  0.2341E+00
     33.239  0.7789E-02  0.7789E-02  0.2377E+00  0.2377E+00
     33.696  0.9537E-02  0.9537E-02  0.2421E+00  0.2421E+00
     34.153  0.7615E-02  0.7615E-02  0.2455E+00  0.2455E+00
     34.610  0.7699E-02  0.7699E-02  0.2491E+00  0.2491E+00
     35.067  0.1414E-01  0.1414E-01  0.2555E+00  0.2555E+00
     35.524  0.8196E-02  0.8196E-02  0.2593E+00  0.2593E+00
     35.981  0.8660E-02  0.8660E-02  0.2632E+00  0.2632E+00
     36.438  0.1436E-01  0.1436E-01  0.2698E+00  0.2698E+00
     36.895  0.7176E-02  0.7176E-02  0.2731E+00  0.2731E+00
     37.352  0.9670E-02  0.9670E-02  0.2775E+00  0.2775E+00
     37.809  0.9746E-02  0.9746E-02  0.2819E+00  0.2819E+00
     38.266  0.1128E-01  0.1128E-01  0.2871E+00  0.2871E+00
     38.723  0.8099E-02  0.8099E-02  0.2908E+00  0.2908E+00
     39.180  0.1026E-01  0.1026E-01  0.2955E+00  0.2955E+00
     39.636  0.9072E-02  0.9072E-02  0.2996E+00  0.2996E+00
     40.093  0.1133E-01  0.1133E-01  0.3048E+00  0.3048E+00
     40.550  0.7123E-02  0.7123E-02  0.3080E+00  0.3080E+00
     41.007  0.7650E-02  0.7650E-02  0.3115E+00  0.3115E+00
     41.464  0.8289E-02  0.8289E-02  0.3153E+00  0.3153E+00
     41.921  0.8303E-02  0.8303E-02  0.3191E+00  0.3191E+00
     42.378  0.8948E-02  0.8948E-02  0.3232E+00  0.3232E+00
     42.835  0.9172E-02  0.9172E-02  0.3274E+00  0.3274E+00
     43.292  0.7890E-02  0.7890E-02  0.3310E+00  0.3310E+00
     43.749  0.9551E-02  0.9551E-02  0.3354E+00  0.3354E+00
     44.206  0.1236E-01  0.1236E-01  0.3410E+00  0.3410E+00
     44.663  0.1209E-01  0.1209E-01  0.3465E+00  0.3465E+00
     45.120  0.1048E-01  0.1048E-01  0.3513E+00  0.3513E+00
     45.577  0.7816E-02  0.7816E-02  0.3549E+00  0.3549E+00
     46.034  0.1087E-01  0.1087E-01  0.3599E+00  0.3599E+00
     46.491  0.1470E-01  0.1470E-01  0.3666E+00  0.3666E+00
     46.947  0.5549E-02  0.5549E-02  0.3691E+00  0.3691E+00
     47.404  0.9543E-02  0.9543E-02  0.3735E+00  0.3735E+00
     47.861  0.6090E-02  0.6090E-02  0.3763E+00  0.3763E+00
     48.318  0.1350E-01  0.1350E-01  0.3824E+00  0.3824E+00
     48.775  0.1233E-01  0.1233E-01  0.3881E+00  0.3881E+00
     49.232  0.1045E-01  0.1045E-01  0.3929E+00  0.3929E+00
     49.689  0.1228E-01  0.1228E-01  0.3985E+00  0.3985E+00
     50.146  0.9276E-02  0.9276E-02  0.4027E+00  0.4027E+00
     50.603  0.1324E-01  0.1324E-01  0.4088E+00  0.4088E+00
     51.060  0.9568E-02  0.9568E-02  0.4131E+00  0.4131E+00
     51.517  0.1047E-01  0.1047E-01  0.4179E+00  0.4179E+00
     51.974  0.9369E-02  0.9369E-02  0.4222E+00  0.4222E+00
     52.431  0.1230E-01  0.1230E-01  0.4278E+00  0.4278E+00
     52.888  0.1122E-01  0.1122E-01  0.4329E+00  0.4329E+00
     53.345  0.1093E-01  0.1093E-01  0.4379E+00  0.4379E+00
     53.802  0.1273E-01  0.1273E-01  0.4438E+00  0.4438E+00
     54.258  0.1285E-01  0.1285E-01  0.4496E+00  0.4496E+00
     54.715  0.1072E-01  0.1072E-01  0.4545E+00  0.4545E+00
     55.172  0.1038E-01  0.1038E-01  0.4593E+00  0.4593E+00
     55.629  0.1185E-01  0.1185E-01  0.4647E+00  0.4647E+00
     56.086  0.9927E-02  0.9927E-02  0.4692E+00  0.4692E+00
     56.543  0.9608E-02  0.9608E-02  0.4736E+00  0.4736E+00
     57.000  0.6330E-02  0.6330E-02  0.4765E+00  0.4765E+00
     57.457  0.1187E-01  0.1187E-01  0.4819E+00  0.4819E+00
     57.914  0.6552E-02  0.6552E-02  0.4849E+00  0.4849E+00
     58.371  0.8409E-02  0.8409E-02  0.4888E+00  0.4888E+00
     58.828  0.1218E-01  0.1218E-01  0.4943E+00  0.4943E+00
     59.285  0.1158E-01  0.1158E-01  0.4996E+00  0.4996E+00
     59.742  0.1211E-01  0.1211E-01  0.5051E+00  0.5051E+00
     60.199  0.1582E-01  0.1582E-01  0.5124E+00  0.5124E+00
     60.656  0.1077E-01  0.1077E-01  0.5173E+00  0.5173E+00
     61.112  0.1128E-01  0.1128E-01  0.5224E+00  0.5224E+00
     61.569  0.1122E-01  0.1122E-01  0.5276E+00  0.5276E+00
     62.026  0.1387E-01  0.1387E-01  0.5339E+00  0.5339E+00
     62.483  0.9674E-02  0.9674E-02  0.5383E+00  0.5383E+00
     62.940  0.1346E-01  0.1346E-01  0.5445E+00  0.5445E+00
     63.397  0.1533E-01  0.1533E-01  0.5515E+00  0.5515E+00
     63.854  0.1147E-01  0.1147E-01  0.5567E+00  0.5567E+00
     64.311  0.1141E-01  0.1141E-01  0.5619E+00  0.5619E+00
     64.768  0.1130E-01  0.1130E-01  0.5671E+00  0.5671E+00
     65.225  0.9503E-02  0.9503E-02  0.5714E+00  0.5714E+00
     65.682  0.1400E-01  0.1400E-01  0.5778E+00  0.5778E+00
     66.139  0.1222E-01  0.1222E-01  0.5834E+00  0.5834E+00
     66.596  0.1349E-01  0.1349E-01  0.5896E+00  0.5896E+00
     67.053  0.1426E-01  0.1426E-01  0.5961E+00  0.5961E+00
     67.510  0.1235E-01  0.1235E-01  0.6018E+00  0.6018E+00
     67.967  0.1327E-01  0.1327E-01  0.6078E+00  0.6078E+00
     68.423  0.9344E-02  0.9344E-02  0.6121E+00  0.6121E+00
     68.880  0.1198E-01  0.1198E-01  0.6176E+00  0.6176E+00
     69.337  0.1190E-01  0.1190E-01  0.6230E+00  0.6230E+00
     69.794  0.1541E-01  0.1541E-01  0.6300E+00  0.6300E+00
     70.251  0.1255E-01  0.1255E-01  0.6358E+00  0.6358E+00
     70.708  0.1422E-01  0.1422E-01  0.6423E+00  0.6423E+00
     71.165  0.1181E-01  0.1181E-01  0.6477E+00  0.6477E+00
     71.622  0.1096E-01  0.1096E-01  0.6527E+00  0.6527E+00
     72.079  0.1480E-01  0.1480E-01  0.6594E+00  0.6594E+00
     72.536  0.1285E-01  0.1285E-01  0.6653E+00  0.6653E+00
     72.993  0.1200E-01  0.1200E-01  0.6708E+00  0.6708E+00
     73.450  0.1100E-01  0.1100E-01  0.6758E+00  0.6758E+00
     73.907  0.1560E-01  0.1560E-01  0.6830E+00  0.6830E+00
     74.364  0.1450E-01  0.1450E-01  0.6896E+00  0.6896E+00
     74.821  0.1317E-01  0.1317E-01  0.6956E+00  0.6956E+00
     75.278  0.1522E-01  0.1522E-01  0.7025E+00  0.7025E+00
     75.734  0.1033E-01  0.1033E-01  0.7073E+00  0.7073E+00
     76.191  0.1019E-01  0.1019E-01  0.7119E+00  0.7119E+00
     76.648  0.1828E-01  0.1828E-01  0.7203E+00  0.7203E+00
     77.105  0.1181E-01  0.1181E-01  0.7257E+00  0.7257E+00
     77.562  0.1301E-01  0.1301E-01  0.7316E+00  0.7316E+00
     78.019  0.1384E-01  0.1384E-01  0.7379E+00  0.7379E+00
     78.476  0.1329E-01  0.1329E-01  0.7440E+00  0.7440E+00
     78.933  0.1072E-01  0.1072E-01  0.7489E+00  0.7489E+00
     79.390  0.1400E-01  0.1400E-01  0.7553E+00  0.7553E+00
     79.847  0.8123E-02  0.8123E-02  0.7590E+00  0.7590E+00
     80.304  0.6407E-02  0.6407E-02  0.7620E+00  0.7620E+00
     80.761  0.1276E-01  0.1276E-01  0.7678E+00  0.7678E+00
     81.218  0.1931E-01  0.1931E-01  0.7766E+00  0.7766E+00
     81.675  0.8875E-02  0.8875E-02  0.7807E+00  0.7807E+00
     82.132  0.1347E-01  0.1347E-01  0.7868E+00  0.7868E+00
     82.588  0.1083E-01  0.1083E-01  0.7918E+00  0.7918E+00
     83.045  0.1815E-01  0.1815E-01  0.8001E+00  0.8001E+00
     83.502  0.1317E-01  0.1317E-01  0.8061E+00  0.8061E+00
     83.959  0.1086E-01  0.1086E-01  0.8110E+00  0.8110E+00
     84.416  0.1390E-01  0.1390E-01  0.8174E+00  0.8174E+00
     84.873  0.1884E-01  0.1884E-01  0.8260E+00  0.8260E+00
     85.330  0.1177E-01  0.1177E-01  0.8314E+00  0.8314E+00
     85.787  0.1389E-01  0.1389E-01  0.8377E+00  0.8377E+00
     86.244  0.1614E-01  0.1614E-01  0.8451E+00  0.8451E+00
     86.701  0.1148E-01  0.1148E-01  0.8503E+00  0.8503E+00
     87.158  0.1433E-01  0.1433E-01  0.8569E+00  0.8569E+00
     87.615  0.1313E-01  0.1313E-01  0.8629E+00  0.8629E+00
     88.072  0.1229E-01  0.1229E-01  0.8685E+00  0.8685E+00
     88.529  0.1388E-01  0.1388E-01  0.8748E+00  0.8748E+00
     88.986  0.1304E-01  0.1304E-01  0.8808E+00  0.8808E+00
     89.443  0.1518E-01  0.1518E-01  0.8877E+00  0.8877E+00
     89.899  0.1317E-01  0.1317E-01  0.8938E+00  0.8938E+00
     90.356  0.1532E-01  0.1532E-01  0.9008E+00  0.9008E+00
     90.813  0.1610E-01  0.1610E-01  0.9081E+00  0.9081E+00
     91.270  0.1166E-01  0.1166E-01  0.9134E+00  0.9134E+00
     91.727  0.1174E-01  0.1174E-01  0.9188E+00  0.9188E+00
     92.184  0.1166E-01  0.1166E-01  0.9241E+00  0.9241E+00
     92.641  0.1441E-01  0.1441E-01  0.9307E+00  0.9307E+00
     93.098  0.1674E-01  0.1674E-01  0.9384E+00  0.9384E+00
     93.555  0.1288E-01  0.1288E-01  0.9443E+00  0.9443E+00
     94.012  0.1629E-01  0.1629E-01  0.9517E+00  0.9517E+00
     94.469  0.1546E-01  0.1546E-01  0.9588E+00  0.9588E+00
     94.926  0.1133E-01  0.1133E-01  0.9639E+00  0.9639E+00
     95.383  0.1733E-01  0.1733E-01  0.9719E+00  0.9719E+00
     95.840  0.1456E-01  0.1456E-01  0.9785E+00  0.9785E+00
     96.297  0.1577E-01  0.1577E-01  0.9857E+00  0.9857E+00
     96.754  0.1377E-01  0.1377E-01  0.9920E+00  0.9920E+00
     97.210  0.1527E-01  0.1527E-01  0.9990E+00  0.9990E+00
     97.667  0.1358E-01  0.1358E-01  0.1005E+01  0.1005E+01
     98.124  0.1737E-01  0.1737E-01  0.1013E+01  0.1013E+01
     98.581  0.1404E-01  0.1404E-01  0.1020E+01  0.1020E+01
     99.038  0.1303E-01  0.1303E-01  0.1026E+01  0.1026E+01
     99.495  0.1494E-01  0.1494E-01  0.1032E+01  0.1032E+01
     99.952  0.1463E-01  0.1463E-01  0.1039E+01  0.1039E+01
    100.409  0.1275E-01  0.1275E-01  0.1045E+01  0.1045E+01
    100.866  0.1801E-01  0.1801E-01  0.1053E+01  0.1053E+01
    101.323  0.1827E-01  0.1827E-01  0.1061E+01  0.1061E+01
    101.780  0.1752E-01  0.1752E-01  0.1069E+01  0.1069E+01
    102.237  0.1195E-01  0.1195E-01  0.1075E+01  0.1075E+01
    102.694  0.1682E-01  0.1682E-01  0.1083E+01  0.1083E+01
    103.151  0.1188E-01  0.1188E-01  0.1088E+01  0.1088E+01
    103.608  0.1287E-01  0.1287E-01  0.1094E+01  0.1094E+01
    104.064  0.1441E-01  0.1441E-01  0.1100E+01  0.1100E+01
    104.521  0.1532E-01  0.1532E-01  0.1107E+01  0.1107E+01
    104.978  0.1609E-01  0.1609E-01  0.1115E+01  0.1115E+01
    105.435  0.1770E-01  0.1770E-01  0.1123E+01  0.1123E+01
    105.892  0.1476E-01  0.1476E-01  0.1130E+01  0.1130E+01
    106.349  0.1237E-01  0.1237E-01  0.1135E+01  0.1135E+01
    106.806  0.1860E-01  0.1860E-01  0.1144E+01  0.1144E+01
    107.263  0.2037E-01  0.2037E-01  0.1153E+01  0.1153E+01
    107.720  0.1418E-01  0.1418E-01  0.1160E+01  0.1160E+01
    108.177  0.1244E-01  0.1244E-01  0.1165E+01  0.1165E+01
    108.634  0.1674E-01  0.1674E-01  0.1173E+01  0.1173E+01
    109.091  0.1480E-01  0.1480E-01  0.1180E+01  0.1180E+01
    109.548  0.1758E-01  0.1758E-01  0.1188E+01  0.1188E+01
    110.005  0.1610E-01  0.1610E-01  0.1195E+01  0.1195E+01
    110.462  0.1618E-01  0.1618E-01  0.1202E+01  0.1202E+01
    110.919  0.1322E-01  0.1322E-01  0.1209E+01  0.1209E+01
    111.375  0.1713E-01  0.1713E-01  0.1216E+01  0.1216E+01
    111.832  0.1338E-01  0.1338E-01  0.1222E+01  0.1222E+01
    112.289  0.1701E-01  0.1700E-01  0.1230E+01  0.1230E+01
    112.746  0.1984E-01  0.1984E-01  0.1239E+01  0.1239E+01
    113.203  0.1398E-01  0.1398E-01  0.1246E+01  0.1246E+01
    113.660  0.1546E-01  0.1546E-01  0.1253E+01  0.1253E+01
    114.117  0.1662E-01  0.1662E-01  0.1260E+01  0.1260E+01
    114.574  0.1467E-01  0.1467E-01  0.1267E+01  0.1267E+01
    115.031  0.1133E-01  0.1133E-01  0.1272E+01  0.1272E+01
    115.488  0.1669E-01  0.1669E-01  0.1280E+01  0.1280E+01
    115.945  0.8738E-02  0.8737E-02  0.1284E+01  0.1284E+01
    116.402  0.5227E-02  0.5228E-02  0.1286E+01  0.1286E+01
    116.859  0.5417E-02  0.5417E-02  0.1289E+01  0.1289E+01
    117.316  0.4360E-02  0.4361E-02  0.1291E+01  0.1291E+01
    117.773  0.2963E-02  0.2963E-02  0.1292E+01  0.1292E+01
    118.230  0.1227E-02  0.1227E-02  0.1293E+01  0.1293E+01
    118.686  0.7240E-03  0.7240E-03  0.1293E+01  0.1293E+01
    119.143  0.1245E-06  0.1279E-06  0.1293E+01  0.1293E+01
    119.600  0.9689E-09  0.9677E-09  0.1293E+01  0.1293E+01
    120.057  0.0000E+00  0.0000E+00  0.1293E+01  0.1293E+01
    120.514  0.0000E+00  0.0000E+00  0.1293E+01  0.1293E+01
    120.971  0.0000E+00  0.0000E+00  0.1293E+01  0.1293E+01
    121.428  0.0000E+00  0.0000E+00  0.1293E+01  0.1293E+01
    121.885  0.0000E+00  0.0000E+00  0.1293E+01  0.1293E+01
    122.342  0.0000E+00  0.0000E+00  0.1293E+01  0.1293E+01
    122.799  0.0000E+00  0.0000E+00  0.1293E+01  0.1293E+01
    123.256  0.0000E+00  0.0000E+00  0.1293E+01  0.1293E+01
    123.713  0.0000E+00  0.0000E+00  0.1293E+01  0.1293E+01
    124.170  0.0000E+00  0.0000E+00  0.1293E+01  0.1293E+01
    124.627  0.0000E+00  0.0000E+00  0.1293E+01  0.1293E+01
    124.62662278    -12.45424099  301      6.08731118      1.00000000
    -12.454  0.0000E+00  0.0000E+00  0.0000E+00  0.0000E+00  0.0000E+00  0.0000E+00  0.0000E+00  0.0000E+00  0.0000E+00  0.0000E+00  0.0000E+00  0.0000E+00  0.0000E+00  0.0000E+00  0.0000E+00  0.0000E+00  0.0000E+00  0.0000E+00
    -11.997  0.0000E+00  0.0000E+00  0.0000E+00  0.0000E+00  0.0000E+00  0.0000E+00  0.0000E+00  0.0000E+00  0.0000E+00  0.0000E+00  0.0000E+00  0.0000E+00  0.0000E+00  0.0000E+00  0.0000E+00  0.0000E+00  0.0000E+00  0.0000E+00
    -11.540  0.0000E+00  0.0000E+00  0.0000E+00  0.0000E+00  0.0000E+00  0.0000E+00  0.0000E+00  0.0000E+00  0.0000E+00  0.0000E+00  0.0000E+00  0.0000E+00  0.0000E+00  0.0000E+00  0.0000E+00  0.0000E+00  0.0000E+00  0.0000E+00
    -11.083  0.0000E+00  0.0000E+00  0.0000E+00  0.0000E+00  0.0000E+00  0.0000E+00  0.0000E+00  0.0000E+00  0.0000E+00  0.0000E+00  0.0000E+00  0.0000E+00  0.0000E+00  0.0000E+00  0.0000E+00  0.0000E+00  0.0000E+00  0.0000E+00
    -10.626  0.0000E+00  0.0000E+00  0.0000E+00  0.0000E+00  0.0000E+00  0.0000E+00  0.0000E+00  0.0000E+00  0.0000E+00  0.0000E+00  0.0000E+00  0.0000E+00  0.0000E+00  0.0000E+00  0.0000E+00  0.0000E+00  0.0000E+00  0.0000E+00
    -10.170  0.0000E+00  0.0000E+00  0.0000E+00  0.0000E+00  0.0000E+00  0.0000E+00  0.0000E+00  0.0000E+00  0.0000E+00  0.0000E+00  0.0000E+00  0.0000E+00  0.0000E+00  0.0000E+00  0.0000E+00  0.0000E+00  0.0000E+00  0.0000E+00
     -9.713  0.0000E+00  0.0000E+00  0.0000E+00  0.0000E+00  0.0000E+00  0.0000E+00  0.0000E+00  0.0000E+00  0.0000E+00  0.0000E+00  0.0000E+00  0.0000E+00  0.0000E+00  0.0000E+00  0.0000E+00  0.0000E+00  0.0000E+00  0.0000E+00
     -9.256  0.0000E+00  0.0000E+00  0.0000E+00  0.0000E+00  0.0000E+00  0.0000E+00  0.0000E+00  0.0000E+00  0.0000E+00  0.0000E+00  0.0000E+00  0.0000E+00  0.0000E+00  0.0000E+00  0.0000E+00  0.0000E+00  0.0000E+00  0.0000E+00
     -8.799  0.0000E+00  0.0000E+00  0.0000E+00  0.0000E+00  0.0000E+00  0.0000E+00  0.0000E+00  0.0000E+00  0.0000E+00  0.0000E+00  0.0000E+00  0.0000E+00  0.0000E+00  0.0000E+00  0.0000E+00  0.0000E+00  0.0000E+00  0.0000E+00
     -8.342  0.0000E+00  0.0000E+00  0.0000E+00  0.0000E+00  0.0000E+00  0.0000E+00  0.0000E+00  0.0000E+00  0.0000E+00  0.0000E+00  0.0000E+00  0.0000E+00  0.0000E+00  0.0000E+00  0.0000E+00  0.0000E+00  0.0000E+00  0.0000E+00
     -7.885  0.3775E-31  0.3775E-31  0.1093E-37  0.1093E-37  0.1093E-37  0.1093E-37  0.1093E-37  0.1093E-37  0.0000E+00  0.0000E+00  0.0000E+00  0.0000E+00  0.0000E+00  0.0000E+00  0.0000E+00  0.0000E+00  0.0000E+00  0.0000E+00
     -7.428  0.2277E-17  0.2277E-17  0.1479E-22  0.1479E-22  0.1479E-22  0.1479E-22  0.1479E-22  0.1479E-22  0.0000E+00  0.0000E+00  0.0000E+00  0.0000E+00  0.0000E+00  0.0000E+00  0.0000E+00  0.0000E+00  0.0000E+00  0.0000E+00
     -6.971  0.2387E-08  0.2387E-08  0.3983E-12  0.3983E-12  0.3983E-12  0.3983E-12  0.3983E-12  0.3983E-12  0.0000E+00  0.0000E+00  0.0000E+00  0.0000E+00  0.0000E+00  0.0000E+00  0.0000E+00  0.0000E+00  0.0000E+00  0.0000E+00
     -6.514  0.2071E-04  0.2071E-04  0.7077E-07  0.7077E-07  0.7077E-07  0.7077E-07  0.7077E-07  0.7077E-07  0.0000E+00  0.0000E+00  0.0000E+00  0.0000E+00  0.0000E+00  0.0000E+00  0.0000E+00  0.0000E+00  0.0000E+00  0.0000E+00
     -6.057  0.3916E-02  0.3916E-02  0.7181E-05  0.7181E-05  0.7181E-05  0.7181E-05  0.7181E-05  0.7181E-05  0.0000E+00  0.0000E+00  0.0000E+00  0.0000E+00  0.0000E+00  0.0000E+00  0.0000E+00  0.0000E+00  0.0000E+00  0.0000E+00
     -5.600  0.2304E-01  0.2304E-01  0.1572E-03  0.1572E-03  0.1572E-03  0.1572E-03  0.1572E-03  0.1572E-03  0.0000E+00  0.0000E+00  0.0000E+00  0.0000E+00  0.0000E+00  0.0000E+00  0.0000E+00  0.0000E+00  0.0000E+00  0.0000E+00
     -5.143  0.3681E-01  0.3681E-01  0.5424E-03  0.5424E-03  0.5424E-03  0.5424E-03  0.5424E-03  0.5424E-03  0.0000E+00  0.0000E+00  0.0000E+00  0.0000E+00  0.0000E+00  0.0000E+00  0.0000E+00  0.0000E+00  0.0000E+00  0.0000E+00
     -4.686  0.4576E-01  0.4576E-01  0.9912E-03  0.9912E-03  0.9912E-03  0.9912E-03  0.9912E-03  0.9912E-03  0.0000E+00  0.0000E+00  0.0000E+00  0.0000E+00  0.0000E+00  0.0000E+00  0.0000E+00  0.0000E+00  0.0000E+00  0.0000E+00
     -4.229  0.4600E-01  0.4600E-01  0.1212E-02  0.1212E-02  0.1212E-02  0.1212E-02  0.1212E-02  0.1212E-02  0.0000E+00  0.0000E+00  0.0000E+00  0.0000E+00  0.0000E+00  0.0000E+00  0.0000E+00  0.0000E+00  0.0000E+00  0.0000E+00
     -3.772  0.9306E-01  0.9306E-01  0.2882E-02  0.2882E-02  0.2882E-02  0.2882E-02  0.2882E-02  0.2882E-02  0.0000E+00  0.0000E+00  0.0000E+00  0.0000E+00  0.0000E+00  0.0000E+00  0.0000E+00  0.0000E+00  0.0000E+00  0.0000E+00
     -3.316  0.8104E-01  0.8104E-01  0.2972E-02  0.2972E-02  0.2972E-02  0.2972E-02  0.2972E-02  0.2972E-02  0.0000E+00  0.0000E+00  0.0000E+00  0.0000E+00  0.0000E+00  0.0000E+00  0.0000E+00  0.0000E+00  0.0000E+00  0.0000E+00
     -2.859  0.5492E-01  0.5492E-01  0.2345E-02  0.2345E-02  0.2345E-02  0.2345E-02  0.2345E-02  0.2345E-02  0.0000E+00  0.0000E+00  0.0000E+00  0.0000E+00  0.0000E+00  0.0000E+00  0.0000E+00  0.0000E+00  0.0000E+00  0.0000E+00
     -2.402  0.5925E-01  0.5925E-01  0.3168E-02  0.3168E-02  0.3168E-02  0.3168E-02  0.3168E-02  0.3168E-02  0.0000E+00  0.0000E+00  0.0000E+00  0.0000E+00  0.0000E+00  0.0000E+00  0.0000E+00  0.0000E+00  0.0000E+00  0.0000E+00
     -1.945  0.2041E-01  0.2041E-01  0.1444E-02  0.1444E-02  0.1444E-02  0.1444E-02  0.1444E-02  0.1444E-02  0.0000E+00  0.0000E+00  0.0000E+00  0.0000E+00  0.0000E+00  0.0000E+00  0.0000E+00  0.0000E+00  0.0000E+00  0.0000E+00
     -1.488  0.9578E-02  0.9578E-02  0.7273E-03  0.7273E-03  0.7273E-03  0.7273E-03  0.7273E-03  0.7273E-03  0.0000E+00  0.0000E+00  0.0000E+00  0.0000E+00  0.0000E+00  0.0000E+00  0.0000E+00  0.0000E+00  0.0000E+00  0.0000E+00
     -1.031  0.8088E-01  0.8088E-01  0.1049E-01  0.1049E-01  0.1049E-01  0.1049E-01  0.1049E-01  0.1049E-01  0.0000E+00  0.0000E+00  0.0000E+00  0.0000E+00  0.0000E+00  0.0000E+00  0.0000E+00  0.0000E+00  0.0000E+00  0.0000E+00
     -0.574  0.7188E-01  0.7188E-01  0.1179E-01  0.1179E-01  0.1179E-01  0.1179E-01  0.1179E-01  0.1179E-01  0.0000E+00  0.0000E+00  0.0000E+00  0.0000E+00  0.0000E+00  0.0000E+00  0.0000E+00  0.0000E+00  0.0000E+00  0.0000E+00
     -0.117  0.3772E-01  0.3772E-01  0.6780E-02  0.6780E-02  0.6780E-02  0.6780E-02  0.6780E-02  0.6780E-02  0.0000E+00  0.0000E+00  0.0000E+00  0.0000E+00  0.0000E+00  0.0000E+00  0.0000E+00  0.0000E+00  0.0000E+00  0.0000E+00
      0.340  0.3405E-01  0.3405E-01  0.6371E-02  0.6371E-02  0.6371E-02  0.6371E-02  0.6371E-02  0.6371E-02  0.0000E+00  0.0000E+00  0.0000E+00  0.0000E+00  0.0000E+00  0.0000E+00  0.0000E+00  0.0000E+00  0.0000E+00  0.0000E+00
      0.797  0.1324E-01  0.1324E-01  0.3088E-02  0.3088E-02  0.3088E-02  0.3088E-02  0.3088E-02  0.3088E-02  0.0000E+00  0.0000E+00  0.0000E+00  0.0000E+00  0.0000E+00  0.0000E+00  0.0000E+00  0.0000E+00  0.0000E+00  0.0000E+00
      1.254  0.2705E-01  0.2705E-01  0.6213E-02  0.6213E-02  0.6213E-02  0.6213E-02  0.6213E-02  0.6213E-02  0.0000E+00  0.0000E+00  0.0000E+00  0.0000E+00  0.0000E+00  0.0000E+00  0.0000E+00  0.0000E+00  0.0000E+00  0.0000E+00
      1.711  0.1158E-01  0.1158E-01  0.1811E-01  0.1811E-01  0.1811E-01  0.1811E-01  0.1811E-01  0.1811E-01  0.0000E+00  0.0000E+00  0.0000E+00  0.0000E+00  0.0000E+00  0.0000E+00  0.0000E+00  0.0000E+00  0.0000E+00  0.0000E+00
      2.168  0.1835E-01  0.1835E-01  0.2666E-01  0.2666E-01  0.2666E-01  0.2666E-01  0.2666E-01  0.2666E-01  0.0000E+00  0.0000E+00  0.0000E+00  0.0000E+00  0.0000E+00  0.0000E+00  0.0000E+00  0.0000E+00  0.0000E+00  0.0000E+00
      2.625  0.1472E-01  0.1472E-01  0.2728E-01  0.2728E-01  0.2728E-01  0.2728E-01  0.2728E-01  0.2728E-01  0.0000E+00  0.0000E+00  0.0000E+00  0.0000E+00  0.0000E+00  0.0000E+00  0.0000E+00  0.0000E+00  0.0000E+00  0.0000E+00
      3.082  0.1327E-01  0.1327E-01  0.4258E-01  0.4258E-01  0.4258E-01  0.4258E-01  0.4258E-01  0.4258E-01  0.0000E+00  0.0000E+00  0.0000E+00  0.0000E+00  0.0000E+00  0.0000E+00  0.0000E+00  0.0000E+00  0.0000E+00  0.0000E+00
      3.539  0.8382E-02  0.8382E-02  0.3816E-01  0.3816E-01  0.3816E-01  0.3816E-01  0.3816E-01  0.3816E-01  0.0000E+00  0.0000E+00  0.0000E+00  0.0000E+00  0.0000E+00  0.0000E+00  0.0000E+00  0.0000E+00  0.0000E+00  0.0000E+00
      3.995  0.1046E-01  0.1046E-01  0.4813E-01  0.4813E-01  0.4813E-01  0.4813E-01  0.4813E-01  0.4813E-01  0.0000E+00  0.0000E+00  0.0000E+00  0.0000E+00  0.0000E+00  0.0000E+00  0.0000E+00  0.0000E+00  0.0000E+00  0.0000E+00
      4.452  0.3160E-02  0.3160E-02  0.3445E-01  0.3445E-01  0.3445E-01  0.3445E-01  0.3445E-01  0.3445E-01  0.0000E+00  0.0000E+00  0.0000E+00  0.0000E+00  0.0000E+00  0.0000E+00  0.0000E+00  0.0000E+00  0.0000E+00  0.0000E+00
      4.909  0.4160E-02  0.4160E-02  0.2919E-01  0.2919E-01  0.2919E-01  0.2919E-01  0.2919E-01  0.2919E-01  0.0000E+00  0.0000E+00  0.0000E+00  0.0000E+00  0.0000E+00  0.0000E+00  0.0000E+00  0.0000E+00  0.0000E+00  0.0000E+00
      5.366  0.3090E-03  0.3090E-03  0.1007E-01  0.1007E-01  0.1007E-01  0.1007E-01  0.1007E-01  0.1007E-01  0.0000E+00  0.0000E+00  0.0000E+00  0.0000E+00  0.0000E+00  0.0000E+00  0.0000E+00  0.0000E+00  0.0000E+00  0.0000E+00
      5.823  0.8068E-05  0.8068E-05  0.4809E-02  0.4809E-02  0.4809E-02  0.4809E-02  0.4809E-02  0.4809E-02  0.0000E+00  0.0000E+00  0.0000E+00  0.0000E+00  0.0000E+00  0.0000E+00  0.0000E+00  0.0000E+00  0.0000E+00  0.0000E+00
      6.280  0.7218E-03  0.7218E-03  0.1530E-03  0.1530E-03  0.1530E-03  0.1530E-03  0.1530E-03  0.1530E-03  0.0000E+00  0.0000E+00  0.0000E+00  0.0000E+00  0.0000E+00  0.0000E+00  0.0000E+00  0.0000E+00  0.0000E+00  0.0000E+00
      6.737  0.7485E-02  0.7485E-02  0.2353E-02  0.2353E-02  0.2353E-02  0.2353E-02  0.2353E-02  0.2353E-02  0.0000E+00  0.0000E+00  0.0000E+00  0.0000E+00  0.0000E+00  0.0000E+00  0.0000E+00  0.0000E+00  0.0000E+00  0.0000E+00
      7.194  0.1374E-01  0.1374E-01  0.5012E-02  0.5012E-02  0.5012E-02  0.5012E-02  0.5012E-02  0.5012E-02  0.0000E+00  0.0000E+00  0.0000E+00  0.0000E+00  0.0000E+00  0.0000E+00  0.0000E+00  0.0000E+00  0.0000E+00  0.0000E+00
      7.651  0.2417E-01  0.2417E-01  0.9309E-02  0.9309E-02  0.9309E-02  0.9309E-02  0.9309E-02  0.9309E-02  0.0000E+00  0.0000E+00  0.0000E+00  0.0000E+00  0.0000E+00  0.0000E+00  0.0000E+00  0.0000E+00  0.0000E+00  0.0000E+00
      8.108  0.5346E-01  0.5346E-01  0.1946E-01  0.1946E-01  0.1946E-01  0.1946E-01  0.1946E-01  0.1946E-01  0.0000E+00  0.0000E+00  0.0000E+00  0.0000E+00  0.0000E+00  0.0000E+00  0.0000E+00  0.0000E+00  0.0000E+00  0.0000E+00
      8.565  0.3564E-01  0.3564E-01  0.1617E-01  0.1617E-01  0.1617E-01  0.1617E-01  0.1617E-01  0.1617E-01  0.0000E+00  0.0000E+00  0.0000E+00  0.0000E+00  0.0000E+00  0.0000E+00  0.0000E+00  0.0000E+00  0.0000E+00  0.0000E+00
      9.022  0.2240E-01  0.2240E-01  0.2246E-01  0.2246E-01  0.2246E-01  0.2246E-01  0.2246E-01  0.2246E-01  0.0000E+00  0.0000E+00  0.0000E+00  0.0000E+00  0.0000E+00  0.0000E+00  0.0000E+00  0.0000E+00  0.0000E+00  0.0000E+00
      9.479  0.2835E-01  0.2835E-01  0.3541E-01  0.3541E-01  0.3541E-01  0.3541E-01  0.3541E-01  0.3541E-01  0.0000E+00  0.0000E+00  0.0000E+00  0.0000E+00  0.0000E+00  0.0000E+00  0.0000E+00  0.0000E+00  0.0000E+00  0.0000E+00
      9.936  0.1585E-01  0.1585E-01  0.1692E-01  0.1692E-01  0.1692E-01  0.1692E-01  0.1692E-01  0.1692E-01  0.0000E+00  0.0000E+00  0.0000E+00  0.0000E+00  0.0000E+00  0.0000E+00  0.0000E+00  0.0000E+00  0.0000E+00  0.0000E+00
     10.393  0.2141E-01  0.2141E-01  0.2056E-01  0.2056E-01  0.2056E-01  0.2056E-01  0.2056E-01  0.2056E-01  0.0000E+00  0.0000E+00  0.0000E+00  0.0000E+00  0.0000E+00  0.0000E+00  0.0000E+00  0.0000E+00  0.0000E+00  0.0000E+00