 vasp.6.3.2 27Jun22 (build Jun 30 2023 15:13:53) complex
 executed on    LinuxNV_CrayMPICH date 2023.07.25  17:55:38
 running  128 mpi-ranks, with    1 threads/rank
 distrk:  each k-point on  128 cores,    1 groups
 distr:  one band on NCORE=   1 cores,  128 groups


--------------------------------------------------------------------------------------------------------


 INCAR:
   ALGO = All
   EDIFF = 1e-05
   EDIFFG = -0.05
   ENAUG = 1360
   ENCUT = 680
   GGA = Ps
   IBRION = 2
   ISIF = 3
   ISMEAR = 2
   ISPIN = 2
   KSPACING = 0.22
   LAECHG = True
   LASPH = True
   LCHARG = True
   LELF = True
   LMIXTAU = True
   LORBIT = 11
   LREAL = Auto
   LVTOT = True
   LWAVE = True
   MAGMOM = 2*-0.0
   NELM = 200
   NSW = 99
   PREC = Accurate
   SIGMA = 0.2

 POTCAR:    PAW_PBE Si 05Jan2001
 WARNING: For LVTOT=.TRUE., VASP.5.x writes the TOTAL local potential to the
     file LOCPOT. If you want only the Hartree contributions, use LVHAR=.TRUE.
     instead.

 POTCAR:    PAW_PBE Si 05Jan2001
   VRHFIN =Si: s2p2
   LEXCH  = PE
   EATOM  =   103.0669 eV,    7.5752 Ry

   TITEL  = PAW_PBE Si 05Jan2001
   LULTRA =        F    use ultrasoft PP ?
   IUNSCR =        1    unscreen: 0-lin 1-nonlin 2-no
   RPACOR =    1.500    partial core radius
   POMASS =   28.085; ZVAL   =    4.000    mass and valenz
   RCORE  =    1.900    outmost cutoff radius
   RWIGS  =    2.480; RWIGS  =    1.312    wigner-seitz radius (au A)
   ENMAX  =  245.345; ENMIN  =  184.009 eV
   ICORE  =        2    local potential
   LCOR   =        T    correct aug charges
   LPAW   =        T    paw PP
   EAUG   =  322.069
   DEXC   =    0.000
   RMAX   =    1.950    core radius for proj-oper
   RAUG   =    1.300    factor for augmentation sphere
   RDEP   =    1.993    radius for radial grids
   RDEPT  =    1.837    core radius for aug-charge

   Atomic configuration
    6 entries
     n  l   j            E        occ.
     1  0  0.50     -1785.8828   2.0000
     2  0  0.50      -139.4969   2.0000
     2  1  1.50       -95.5546   6.0000
     3  0  0.50       -10.8127   2.0000
     3  1  0.50        -4.0811   2.0000
     3  2  1.50        -4.0817   0.0000
   Description
     l       E           TYP  RCUT    TYP  RCUT
     0    -10.8127223     23  1.900
     0     -7.6451159     23  1.900
     1     -4.0811372     23  1.900
     1      2.4879257     23  1.900
     2     -4.0817478      7  1.900
  local pseudopotential read in
  partial core-charges read in
  partial kinetic energy density read in
  atomic valenz-charges read in
  non local Contribution for L=            0  read in
    real space projection operators read in
  non local Contribution for L=            0  read in
    real space projection operators read in
  non local Contribution for L=            1  read in
    real space projection operators read in
  non local Contribution for L=            1  read in
    real space projection operators read in
    PAW grid and wavefunctions read in

   number of l-projection  operators is LMAX  =            4
   number of lm-projection operators is LMMAX =            8

 -----------------------------------------------------------------------------
|                                                                             |
|               ----> ADVICE to this user running VASP <----                  |
|                                                                             |
|     You have a (more or less) 'small supercell' and for smaller cells       |
|     it is recommended to use the reciprocal-space projection scheme!        |
|     The real-space optimization is not efficient for small cells and it     |
|     is also less accurate ...                                               |
|     Therefore, set LREAL=.FALSE. in the INCAR file.                         |
|                                                                             |
 -----------------------------------------------------------------------------

 Optimization of the real space projectors (new method)

 maximal supplied QI-value         = 19.84
 optimisation between [QCUT,QGAM] = [ 13.29, 26.59] = [ 49.49,197.96] Ry
 Optimized for a Real-space Cutoff    1.12 Angstroem

   l    n(q)    QCUT    max X(q) W(low)/X(q) W(high)/X(q)  e(spline)
   0      9    13.294   159.560    0.23E-03    0.88E-04    0.53E-07
   0      9    13.294   115.863    0.22E-03    0.87E-04    0.52E-07
   1      8    13.294    88.339    0.81E-04    0.17E-03    0.12E-06
   1      8    13.294    48.592    0.79E-04    0.17E-03    0.12E-06
 -----------------------------------------------------------------------------
|                                                                             |
|               ----> ADVICE to this user running VASP <----                  |
|                                                                             |
|     You enforced a specific xc type in the INCAR file but a different       |
|     type was found in the POTCAR file.                                      |
|     I HOPE YOU KNOW WHAT YOU ARE DOING!                                     |
|                                                                             |
 -----------------------------------------------------------------------------

  PAW_PBE Si 05Jan2001                  :
 energy of atom  1       EATOM= -103.0669
 kinetic energy error for atom=    0.0003 (will be added to EATOM!!)


 POSCAR: Si2
  positions in direct lattice
  No initial velocities read in
 exchange correlation table for  LEXCH =       14
   RHO(1)=    0.500       N(1)  =     2000
   RHO(2)=  100.500       N(2)  =     4000



--------------------------------------------------------------------------------------------------------


 ion  position               nearest neighbor table
   1  0.875  0.875  0.875-   2 2.36   2 2.36   2 2.36   2 2.36
   2  0.125  0.125  0.125-   1 2.36   1 2.36   1 2.36   1 2.36

  LATTYP: Found a face centered cubic cell.
 ALAT       =     5.4437031493

  Lattice vectors:

 A1 = (   3.3335730000,   0.0000000000,   1.9246390000)
 A2 = (   1.1111910000,   3.1429240000,   1.9246390000)
 A3 = (   0.0000000000,   0.0000000000,   3.8492780000)


Analysis of symmetry for initial positions (statically):
=====================================================================
 Subroutine PRICEL returns:
 Original cell was already a primitive cell.


 Routine SETGRP: Setting up the symmetry group for a
 face centered cubic supercell.


 Subroutine GETGRP returns: Found 48 space group operations
 (whereof 12 operations were pure point group operations)
 out of a pool of 48 trial point group operations.


The static configuration has the point symmetry D_3d.
 The point group associated with its full space group is O_h .


Analysis of symmetry for dynamics (positions and initial velocities):
=====================================================================
 Subroutine PRICEL returns:
 Original cell was already a primitive cell.


 Routine SETGRP: Setting up the symmetry group for a
 face centered cubic supercell.


 Subroutine GETGRP returns: Found 48 space group operations
 (whereof 12 operations were pure point group operations)
 out of a pool of 48 trial point group operations.


The dynamic configuration has the point symmetry D_3d.
 The point group associated with its full space group is O_h .


Analysis of structural, dynamic, and magnetic symmetry:
=====================================================================
 Subroutine PRICEL returns:
 Original cell was already a primitive cell.


 Routine SETGRP: Setting up the symmetry group for a
 face centered cubic supercell.


 Subroutine GETGRP returns: Found 48 space group operations
 (whereof 12 operations were pure point group operations)
 out of a pool of 48 trial point group operations.


The overall configuration has the point symmetry D_3d.
 The point group associated with its full space group is O_h .


 Subroutine INISYM returns: Found 48 space group operations
 (whereof 12 operations are pure point group operations),
 and found     1 'primitive' translations


----------------------------------------------------------------------------------------

                                     Primitive cell

  volume of cell :      40.3295

  direct lattice vectors                    reciprocal lattice vectors
     3.333573000  0.000000000  1.924639000     0.299978432 -0.106058350  0.000000000
     1.111191000  3.142924000  1.924639000     0.000000000  0.318175050  0.000000000
     0.000000000  0.000000000  3.849278000    -0.149989216 -0.106058350  0.259788979

  length of vectors
     3.849278403  3.849279412  3.849278000     0.318175161  0.318175050  0.318175190

  position of ions in fractional coordinates (direct lattice)
     0.875000000  0.875000000  0.875000000
     0.125000000  0.125000000  0.125000000

  ion indices of the primitive-cell ions
   primitive index   ion index
                 1           1
                 2           2

----------------------------------------------------------------------------------------


 -----------------------------------------------------------------------------
|                                                                             |
|           W    W    AA    RRRRR   N    N  II  N    N   GGGG   !!!           |
|           W    W   A  A   R    R  NN   N  II  NN   N  G    G  !!!           |
|           W    W  A    A  R    R  N N  N  II  N N  N  G       !!!           |
|           W WW W  AAAAAA  RRRRR   N  N N  II  N  N N  G  GGG   !            |
|           WW  WW  A    A  R   R   N   NN  II  N   NN  G    G                |
|           W    W  A    A  R    R  N    N  II  N    N   GGGG   !!!           |
|                                                                             |
|     The requested file  could not be found or opened for reading            |
|     k-point information. Automatic k-point generation is used as a          |
|     fallback, which may lead to unwanted results.                           |
|                                                                             |
 -----------------------------------------------------------------------------



Automatic generation of k-mesh.
 Grid dimensions derived from KSPACING:
 generate k-points for:   10   10   10

 Generating k-lattice:

  Cartesian coordinates                     Fractional coordinates (reciprocal lattice)
     0.029997843 -0.010605835  0.000000000     0.100000000 -0.000000000  0.000000000
     0.000000000  0.031817505  0.000000000     0.000000000  0.100000000  0.000000000
    -0.014998922 -0.010605835  0.025978898    -0.000000000 -0.000000000  0.100000000

  Length of vectors
     0.031817516  0.031817505  0.031817519

  Shift w.r.t. Gamma in fractional coordinates (k-lattice)
     0.000000000  0.000000000  0.000000000


 Subroutine IBZKPT returns following result:
 ===========================================

 Found     47 irreducible k-points:

 Following reciprocal coordinates:
            Coordinates               Weight
  0.000000  0.000000  0.000000      1.000000
  0.100000  0.000000  0.000000      8.000000
  0.200000  0.000000  0.000000      8.000000
  0.300000  0.000000  0.000000      8.000000
  0.400000  0.000000  0.000000      8.000000
  0.500000  0.000000  0.000000      4.000000
  0.100000  0.100000  0.000000      6.000000
  0.200000  0.100000  0.000000     24.000000
  0.300000  0.100000  0.000000     24.000000
  0.400000  0.100000  0.000000     24.000000
  0.500000  0.100000  0.000000     24.000000
 -0.400000  0.100000  0.000000     24.000000
 -0.300000  0.100000  0.000000     24.000000
 -0.200000  0.100000  0.000000     24.000000
 -0.100000  0.100000  0.000000     12.000000
  0.200000  0.200000  0.000000      6.000000
  0.300000  0.200000  0.000000     24.000000
  0.400000  0.200000  0.000000     24.000000
  0.500000  0.200000  0.000000     24.000000
 -0.400000  0.200000  0.000000     24.000000
 -0.300000  0.200000  0.000000     24.000000
 -0.200000  0.200000  0.000000     12.000000
  0.300000  0.300000  0.000000      6.000000
  0.400000  0.300000  0.000000     24.000000
  0.500000  0.300000  0.000000     24.000000
 -0.400000  0.300000  0.000000     24.000000
 -0.300000  0.300000  0.000000     12.000000
  0.400000  0.400000  0.000000      6.000000
  0.500000  0.400000  0.000000     24.000000
 -0.400000  0.400000  0.000000     12.000000
  0.500000  0.500000  0.000000      3.000000
  0.300000  0.200000  0.100000     24.000000
  0.400000  0.200000  0.100000     48.000000
  0.500000  0.200000  0.100000     48.000000
 -0.400000  0.200000  0.100000     24.000000
  0.400000  0.300000  0.100000     24.000000
  0.500000  0.300000  0.100000     48.000000
 -0.400000  0.300000  0.100000     48.000000
 -0.300000  0.300000  0.100000     48.000000
 -0.200000  0.300000  0.100000     24.000000
  0.500000  0.400000  0.100000     24.000000
 -0.400000  0.400000  0.100000     48.000000
 -0.300000  0.400000  0.100000     24.000000
 -0.400000  0.500000  0.100000     12.000000
 -0.400000  0.400000  0.200000     24.000000
 -0.300000  0.400000  0.200000     24.000000
 -0.300000  0.500000  0.200000     12.000000

 Following cartesian coordinates:
            Coordinates               Weight
  0.000000  0.000000  0.000000      1.000000
  0.029998 -0.010606  0.000000      8.000000
  0.059996 -0.021212  0.000000      8.000000
  0.089994 -0.031818  0.000000      8.000000
  0.119991 -0.042423  0.000000      8.000000
  0.149989 -0.053029  0.000000      4.000000
  0.029998  0.021212  0.000000      6.000000
  0.059996  0.010606  0.000000     24.000000
  0.089994  0.000000  0.000000     24.000000
  0.119991 -0.010606  0.000000     24.000000
  0.149989 -0.021212  0.000000     24.000000
 -0.119991  0.074241  0.000000     24.000000
 -0.089994  0.063635  0.000000     24.000000
 -0.059996  0.053029  0.000000     24.000000
 -0.029998  0.042423  0.000000     12.000000
  0.059996  0.042423  0.000000      6.000000
  0.089994  0.031818  0.000000     24.000000
  0.119991  0.021212  0.000000     24.000000
  0.149989  0.010606  0.000000     24.000000
 -0.119991  0.106058  0.000000     24.000000
 -0.089994  0.095453  0.000000     24.000000
 -0.059996  0.084847  0.000000     12.000000
  0.089994  0.063635  0.000000      6.000000
  0.119991  0.053029  0.000000     24.000000
  0.149989  0.042423  0.000000     24.000000
 -0.119991  0.137876  0.000000     24.000000
 -0.089994  0.127270  0.000000     12.000000
  0.119991  0.084847  0.000000      6.000000
  0.149989  0.074241  0.000000     24.000000
 -0.119991  0.169693  0.000000     12.000000
  0.149989  0.106058  0.000000      3.000000
  0.074995  0.021212  0.025979     24.000000
  0.104992  0.010606  0.025979     48.000000
  0.134990  0.000000  0.025979     48.000000
 -0.134990  0.095453  0.025979     24.000000
  0.104992  0.042423  0.025979     24.000000
  0.134990  0.031818  0.025979     48.000000
 -0.134990  0.127270  0.025979     48.000000
 -0.104992  0.116664  0.025979     48.000000
 -0.074995  0.106058  0.025979     24.000000
  0.134990  0.063635  0.025979     24.000000
 -0.134990  0.159088  0.025979     48.000000
 -0.104992  0.148482  0.025979     24.000000
 -0.134990  0.190905  0.025979     12.000000
 -0.149989  0.148482  0.051958     24.000000
 -0.119991  0.137876  0.051958     24.000000
 -0.119991  0.169693  0.051958     12.000000



--------------------------------------------------------------------------------------------------------




 Dimension of arrays:
   k-points           NKPTS =     47   k-points in BZ     NKDIM =     47   number of bands    NBANDS=    128
   number of dos      NEDOS =    301   number of ions     NIONS =      2
   non local maximal  LDIM  =      4   non local SUM 2l+1 LMDIM =      8
   total plane-waves  NPLWV =  46656
   max r-space proj   IRMAX =   6918   max aug-charges    IRDMAX=  38875
   dimension x,y,z NGX =    36 NGY =   36 NGZ =   36
   dimension x,y,z NGXF=    72 NGYF=   72 NGZF=   72
   support grid    NGXF=    72 NGYF=   72 NGZF=   72
   ions per type =               2
   NGX,Y,Z   is equivalent  to a cutoff of  15.55, 15.55, 15.55 a.u.
   NGXF,Y,Z  is equivalent  to a cutoff of  31.10, 31.10, 31.10 a.u.

 SYSTEM =  unknown system
 POSCAR =  Si2

 Startparameter for this run:
   NWRITE =      2    write-flag & timer
   PREC   = accura    normal or accurate (medium, high low for compatibility)
   ISTART =      0    job   : 0-new  1-cont  2-samecut
   ICHARG =      2    charge: 1-file 2-atom 10-const
   ISPIN  =      2    spin polarized calculation?
   LNONCOLLINEAR =      F non collinear calculations
   LSORBIT =      F    spin-orbit coupling
   INIWAV =      1    electr: 0-lowe 1-rand  2-diag
   LASPH  =      T    aspherical Exc in radial PAW
 Electronic Relaxation 1
   ENCUT  =  680.0 eV  49.98 Ry    7.07 a.u.   8.18  8.18  8.18*2*pi/ulx,y,z
   ENINI  =  680.0     initial cutoff
   ENAUG  = 1360.0 eV  augmentation charge cutoff
   NELM   =    200;   NELMIN=  2; NELMDL= -5     # of ELM steps
   EDIFF  = 0.1E-04   stopping-criterion for ELM
   LREAL  =      T    real-space projection
   NLSPLINE    = F    spline interpolate recip. space projectors
   LCOMPAT=      F    compatible to vasp.4.4
   GGA_COMPAT  = T    GGA compatible to vasp.4.4-vasp.4.6
   LMAXPAW     = -100 max onsite density
   LMAXMIX     =    2 max onsite mixed and CHGCAR
   VOSKOWN=      0    Vosko Wilk Nusair interpolation
   ROPT   =   -0.00025
 Ionic relaxation
   EDIFFG = -.5E-01   stopping-criterion for IOM
   NSW    =     99    number of steps for IOM
   NBLOCK =      1;   KBLOCK =     99    inner block; outer block
   IBRION =      2    ionic relax: 0-MD 1-quasi-New 2-CG
   NFREE  =      1    steps in history (QN), initial steepest desc. (CG)
   ISIF   =      3    stress and relaxation
   IWAVPR =     11    prediction:  0-non 1-charg 2-wave 3-comb
   ISYM   =      2    0-nonsym 1-usesym 2-fastsym
   LCORR  =      T    Harris-Foulkes like correction to forces

   POTIM  = 0.5000    time-step for ionic-motion
   TEIN   =    0.0    initial temperature
   TEBEG  =    0.0;   TEEND  =   0.0 temperature during run
   SMASS  =  -3.00    Nose mass-parameter (am)
   estimated Nose-frequenzy (Omega)   =  0.10E-29 period in steps = 0.13E+47 mass=  -0.339E-27a.u.
   SCALEE = 1.0000    scale energy and forces
   NPACO  =    256;   APACO  = 10.0  distance and # of slots for P.C.
   PSTRESS=    0.0 pullay stress

  Mass of Ions in am
   POMASS =  28.09
  Ionic Valenz
   ZVAL   =   4.00
  Atomic Wigner-Seitz radii
   RWIGS  =  -1.00
  virtual crystal weights
   VCA    =   1.00
   NELECT =       8.0000    total number of electrons
   NUPDOWN=      -1.0000    fix difference up-down

 DOS related values:
   EMIN   =  10.00;   EMAX   =-10.00  energy-range for DOS
   EFERMI =   0.00
   ISMEAR =     2;   SIGMA  =   0.20  broadening in eV -4-tet -1-fermi 0-gaus

 Electronic relaxation 2 (details)
   IALGO  =     58    algorithm
   LDIAG  =      T    sub-space diagonalisation (order eigenvalues)
   LSUBROT=      F    optimize rotation matrix (better conditioning)
   TURBO    =      0    0=normal 1=particle mesh
   IRESTART =      0    0=no restart 2=restart with 2 vectors
   NREBOOT  =      0    no. of reboots
   NMIN     =      0    reboot dimension
   EREF     =   0.00    reference energy to select bands
   IMIX   =      4    mixing-type and parameters
     AMIX     =   0.40;   BMIX     =  1.00
     AMIX_MAG =   1.60;   BMIX_MAG =  1.00
     AMIN     =   0.10
     WC   =   100.;   INIMIX=   1;  MIXPRE=   1;  MAXMIX= -45

 Intra band minimization:
   WEIMIN = 0.0010     energy-eigenvalue tresh-hold
   EBREAK =  0.20E-07  absolut break condition
   DEPER  =   0.30     relativ break condition

   TIME   =   0.40     timestep for ELM

  volume/ion in A,a.u.               =      20.16       136.08
  Fermi-wavevector in a.u.,A,eV,Ry     =   0.954766  1.804247 12.402783  0.911579
  Thomas-Fermi vector in A             =   2.083543

 Write flags
   LWAVE        =      T    write WAVECAR
   LDOWNSAMPLE  =      F    k-point downsampling of WAVECAR
   LCHARG       =      T    write CHGCAR
   LVTOT        =      T    write LOCPOT, total local potential
   LVHAR        =      F    write LOCPOT, Hartree potential only
   LELF         =      T    write electronic localiz. function (ELF)
   LORBIT       =     11    0 simple, 1 ext, 2 COOP (PROOUT), +10 PAW based schemes


 Dipole corrections
   LMONO  =      F    monopole corrections only (constant potential shift)
   LDIPOL =      F    correct potential (dipole corrections)
   IDIPOL =      0    1-x, 2-y, 3-z, 4-all directions
   EPSILON=  1.0000000 bulk dielectric constant

 Exchange correlation treatment:
   GGA     =    PS    GGA type
   LEXCH   =    14    internal setting for exchange type
   LIBXC   =     F    Libxc
   VOSKOWN =     0    Vosko Wilk Nusair interpolation
   LHFCALC =     F    Hartree Fock is set to
   LHFONE  =     F    Hartree Fock one center treatment
   AEXX    =    0.0000 exact exchange contribution

 Linear response parameters
   LEPSILON=     F    determine dielectric tensor
   LRPA    =     F    only Hartree local field effects (RPA)
   LNABLA  =     F    use nabla operator in PAW spheres
   LVEL    =     F    velocity operator in full k-point grid
   CSHIFT  =0.1000    complex shift for real part using Kramers Kronig
   OMEGAMAX=  -1.0    maximum frequency
   DEG_THRESHOLD= 0.2000000E-02 threshold for treating states as degnerate
   RTIME   =   -0.100 relaxation time in fs
  (WPLASMAI=    0.000 imaginary part of plasma frequency in eV, 0.658/RTIME)
   DFIELD  = 0.0000000 0.0000000 0.0000000 field for delta impulse in time

  Optional k-point grid parameters
   LKPOINTS_OPT  =     F    use optional k-point grid
   KPOINTS_OPT_MODE=     1    mode for optional k-point grid

 Orbital magnetization related:
   ORBITALMAG=     F  switch on orbital magnetization
   LCHIMAG   =     F  perturbation theory with respect to B field
   DQ        =  0.001000  dq finite difference perturbation B field
   LLRAUG    =     F  two centre corrections for induced B field



--------------------------------------------------------------------------------------------------------


 conjugate gradient relaxation of ions
 charge density and potential will be updated during run
 spin polarized calculation
 Conjugate gradient for all bands (Freysoldt, et al. PRB 79, 241103 (2009))
 preconditioned conjugated gradient
 perform sub-space diagonalisation
    before iterative eigenvector-optimisation
 modified Broyden-mixing scheme, WC =      100.0
 initial mixing is a Kerker type mixing with AMIX =  0.4000 and BMIX =      1.0000
 Hartree-type preconditioning will be used
 using additional bands           124
 real space projection scheme for non local part
 use partial core corrections
 no Harris-corrections to forces
 use gradient corrections
 use of overlap-Matrix (Vanderbilt PP)
 Methfessel and Paxton  Order N= 2 SIGMA  =   0.20


--------------------------------------------------------------------------------------------------------


  energy-cutoff  :      680.00
  volume of cell :       40.33
      direct lattice vectors                 reciprocal lattice vectors
     3.333573000  0.000000000  1.924639000     0.299978432 -0.106058350  0.000000000
     1.111191000  3.142924000  1.924639000     0.000000000  0.318175050  0.000000000
     0.000000000  0.000000000  3.849278000    -0.149989216 -0.106058350  0.259788979

  length of vectors
     3.849278403  3.849279412  3.849278000     0.318175161  0.318175050  0.318175190



 k-points in units of 2pi/SCALE and weight: read from INCAR
   0.00000000  0.00000000  0.00000000       0.001
   0.02999784 -0.01060583  0.00000000       0.008
   0.05999569 -0.02121167  0.00000000       0.008
   0.08999353 -0.03181750  0.00000000       0.008
   0.11999137 -0.04242334  0.00000000       0.008
   0.14998922 -0.05302917  0.00000000       0.004
   0.02999784  0.02121167  0.00000000       0.006
   0.05999569  0.01060583  0.00000000       0.024
   0.08999353  0.00000000  0.00000000       0.024
   0.11999137 -0.01060583  0.00000000       0.024
   0.14998922 -0.02121167  0.00000000       0.024
  -0.11999137  0.07424084  0.00000000       0.024
  -0.08999353  0.06363501  0.00000000       0.024
  -0.05999569  0.05302917  0.00000000       0.024
  -0.02999784  0.04242334  0.00000000       0.012
   0.05999569  0.04242334  0.00000000       0.006
   0.08999353  0.03181750  0.00000000       0.024
   0.11999137  0.02121167  0.00000000       0.024
   0.14998922  0.01060583  0.00000000       0.024
  -0.11999137  0.10605835  0.00000000       0.024
  -0.08999353  0.09545251  0.00000000       0.024
  -0.05999569  0.08484668  0.00000000       0.012
   0.08999353  0.06363501  0.00000000       0.006
   0.11999137  0.05302917  0.00000000       0.024
   0.14998922  0.04242334  0.00000000       0.024
  -0.11999137  0.13787585  0.00000000       0.024
  -0.08999353  0.12727002  0.00000000       0.012
   0.11999137  0.08484668  0.00000000       0.006
   0.14998922  0.07424084  0.00000000       0.024
  -0.11999137  0.16969336  0.00000000       0.012
   0.14998922  0.10605835  0.00000000       0.003
   0.07499461  0.02121167  0.02597890       0.024
   0.10499245  0.01060583  0.02597890       0.048
   0.13499029  0.00000000  0.02597890       0.048
  -0.13499029  0.09545251  0.02597890       0.024
   0.10499245  0.04242334  0.02597890       0.024
   0.13499029  0.03181750  0.02597890       0.048
  -0.13499029  0.12727002  0.02597890       0.048
  -0.10499245  0.11666418  0.02597890       0.048
  -0.07499461  0.10605835  0.02597890       0.024
   0.13499029  0.06363501  0.02597890       0.024
  -0.13499029  0.15908752  0.02597890       0.048
  -0.10499245  0.14848169  0.02597890       0.024
  -0.13499029  0.19090503  0.02597890       0.012
  -0.14998922  0.14848169  0.05195780       0.024
  -0.11999137  0.13787585  0.05195780       0.024
  -0.11999137  0.16969336  0.05195780       0.012

 k-points in reciprocal lattice and weights: read from INCAR
   0.00000000  0.00000000  0.00000000       0.001
   0.10000000  0.00000000  0.00000000       0.008
   0.20000000  0.00000000  0.00000000       0.008
   0.30000000  0.00000000  0.00000000       0.008
   0.40000000  0.00000000  0.00000000       0.008
   0.50000000  0.00000000  0.00000000       0.004
   0.10000000  0.10000000  0.00000000       0.006
   0.20000000  0.10000000  0.00000000       0.024
   0.30000000  0.10000000  0.00000000       0.024
   0.40000000  0.10000000  0.00000000       0.024
   0.50000000  0.10000000  0.00000000       0.024
  -0.40000000  0.10000000  0.00000000       0.024
  -0.30000000  0.10000000  0.00000000       0.024
  -0.20000000  0.10000000  0.00000000       0.024
  -0.10000000  0.10000000  0.00000000       0.012
   0.20000000  0.20000000  0.00000000       0.006
   0.30000000  0.20000000  0.00000000       0.024
   0.40000000  0.20000000  0.00000000       0.024
   0.50000000  0.20000000  0.00000000       0.024
  -0.40000000  0.20000000  0.00000000       0.024
  -0.30000000  0.20000000  0.00000000       0.024
  -0.20000000  0.20000000  0.00000000       0.012
   0.30000000  0.30000000  0.00000000       0.006
   0.40000000  0.30000000  0.00000000       0.024
   0.50000000  0.30000000  0.00000000       0.024
  -0.40000000  0.30000000  0.00000000       0.024
  -0.30000000  0.30000000  0.00000000       0.012
   0.40000000  0.40000000  0.00000000       0.006
   0.50000000  0.40000000  0.00000000       0.024
  -0.40000000  0.40000000  0.00000000       0.012
   0.50000000  0.50000000  0.00000000       0.003
   0.30000000  0.20000000  0.10000000       0.024
   0.40000000  0.20000000  0.10000000       0.048
   0.50000000  0.20000000  0.10000000       0.048
  -0.40000000  0.20000000  0.10000000       0.024
   0.40000000  0.30000000  0.10000000       0.024
   0.50000000  0.30000000  0.10000000       0.048
  -0.40000000  0.30000000  0.10000000       0.048
  -0.30000000  0.30000000  0.10000000       0.048
  -0.20000000  0.30000000  0.10000000       0.024
   0.50000000  0.40000000  0.10000000       0.024
  -0.40000000  0.40000000  0.10000000       0.048
  -0.30000000  0.40000000  0.10000000       0.024
  -0.40000000  0.50000000  0.10000000       0.012
  -0.40000000  0.40000000  0.20000000       0.024
  -0.30000000  0.40000000  0.20000000       0.024
  -0.30000000  0.50000000  0.20000000       0.012

 position of ions in fractional coordinates (direct lattice)
   0.87500000  0.87500000  0.87500000
   0.12500000  0.12500000  0.12500000

 position of ions in cartesian coordinates  (Angst):
   3.88916850  2.75005850  6.73623650
   0.55559550  0.39286550  0.96231950



--------------------------------------------------------------------------------------------------------


 k-point   1 :   0.0000 0.0000 0.0000  plane waves:    1639
 k-point   2 :   0.1000 0.0000 0.0000  plane waves:    1612
 k-point   3 :   0.2000 0.0000 0.0000  plane waves:    1618
 k-point   4 :   0.3000 0.0000 0.0000  plane waves:    1633
 k-point   5 :   0.4000 0.0000 0.0000  plane waves:    1631
 k-point   6 :   0.5000 0.0000 0.0000  plane waves:    1622
 k-point   7 :   0.1000 0.1000 0.0000  plane waves:    1627
 k-point   8 :   0.2000 0.1000 0.0000  plane waves:    1617
 k-point   9 :   0.3000 0.1000 0.0000  plane waves:    1625
 k-point  10 :   0.4000 0.1000 0.0000  plane waves:    1614
 k-point  11 :   0.5000 0.1000 0.0000  plane waves:    1621
 k-point  12 :  -0.4000 0.1000 0.0000  plane waves:    1620
 k-point  13 :  -0.3000 0.1000 0.0000  plane waves:    1623
 k-point  14 :  -0.2000 0.1000 0.0000  plane waves:    1612
 k-point  15 :  -0.1000 0.1000 0.0000  plane waves:    1608
 k-point  16 :   0.2000 0.2000 0.0000  plane waves:    1627
 k-point  17 :   0.3000 0.2000 0.0000  plane waves:    1628
 k-point  18 :   0.4000 0.2000 0.0000  plane waves:    1626
 k-point  19 :   0.5000 0.2000 0.0000  plane waves:    1621
 k-point  20 :  -0.4000 0.2000 0.0000  plane waves:    1625
 k-point  21 :  -0.3000 0.2000 0.0000  plane waves:    1618
 k-point  22 :  -0.2000 0.2000 0.0000  plane waves:    1618
 k-point  23 :   0.3000 0.3000 0.0000  plane waves:    1624
 k-point  24 :   0.4000 0.3000 0.0000  plane waves:    1633
 k-point  25 :   0.5000 0.3000 0.0000  plane waves:    1627
 k-point  26 :  -0.4000 0.3000 0.0000  plane waves:    1628
 k-point  27 :  -0.3000 0.3000 0.0000  plane waves:    1618
 k-point  28 :   0.4000 0.4000 0.0000  plane waves:    1628
 k-point  29 :   0.5000 0.4000 0.0000  plane waves:    1627
 k-point  30 :  -0.4000 0.4000 0.0000  plane waves:    1634
 k-point  31 :   0.5000 0.5000 0.0000  plane waves:    1604
 k-point  32 :   0.3000 0.2000 0.1000  plane waves:    1621
 k-point  33 :   0.4000 0.2000 0.1000  plane waves:    1624
 k-point  34 :   0.5000 0.2000 0.1000  plane waves:    1623
 k-point  35 :  -0.4000 0.2000 0.1000  plane waves:    1614
 k-point  36 :   0.4000 0.3000 0.1000  plane waves:    1627
 k-point  37 :   0.5000 0.3000 0.1000  plane waves:    1627
 k-point  38 :  -0.4000 0.3000 0.1000  plane waves:    1626
 k-point  39 :  -0.3000 0.3000 0.1000  plane waves:    1628
 k-point  40 :  -0.2000 0.3000 0.1000  plane waves:    1619
 k-point  41 :   0.5000 0.4000 0.1000  plane waves:    1631
 k-point  42 :  -0.4000 0.4000 0.1000  plane waves:    1628
 k-point  43 :  -0.3000 0.4000 0.1000  plane waves:    1616
 k-point  44 :  -0.4000 0.5000 0.1000  plane waves:    1634
 k-point  45 :  -0.4000 0.4000 0.2000  plane waves:    1622
 k-point  46 :  -0.3000 0.4000 0.2000  plane waves:    1624
 k-point  47 :  -0.3000 0.5000 0.2000  plane waves:    1628

 maximum and minimum number of plane-waves per node :      1639     1604

 maximum number of plane-waves:      1639
 maximum index in each direction:
   IXMAX=    8   IYMAX=    8   IZMAX=    8
   IXMIN=   -8   IYMIN=   -8   IZMIN=   -8


 serial   3D FFT for wavefunctions
 parallel 3D FFT for charge:
    minimum data exchange during FFTs selected (reduces bandwidth)


 total amount of memory used by VASP MPI-rank0    43808. kBytes
=======================================================================

   base      :      30000. kBytes
   nonlr-proj:       1161. kBytes
   fftplans  :        395. kBytes
   grid      :       4155. kBytes
   one-center:         12. kBytes
   wavefun   :       8085. kBytes

     INWAV:  cpu time      0.0005: real time      0.0014
 Broyden mixing: mesh for mixing (old mesh)
   NGX = 17   NGY = 17   NGZ = 17
  (NGX  = 72   NGY  = 72   NGZ  = 72)
  gives a total of   4913 points

 initial charge density was supplied:
 charge density of overlapping atoms calculated
 number of electron       8.0000000 magnetization       0.0000000
 keeping initial charge density in first step


--------------------------------------------------------------------------------------------------------


 Maximum index for non-local projection operator          6602
 Maximum index for augmentation-charges          1039 (set IRDMAX)


--------------------------------------------------------------------------------------------------------


 First call to EWALD:  gamma=   0.517
 Maximum number of real-space cells 3x 3x 3
 Maximum number of reciprocal cells 3x 3x 3

    FEWALD:  cpu time      0.0006: real time      0.0006


--------------------------------------- Iteration      1(   1)  ---------------------------------------


    POTLOK:  cpu time      0.0218: real time      0.0218
    SETDIJ:  cpu time      0.1765: real time      0.1766
    TRIAL :  cpu time     43.2505: real time     43.2737
    CORREC:  cpu time      0.0013: real time      0.0013
    --------------------------------------------
      LOOP:  cpu time     43.4804: real time     43.5042

 eigenvalue-minimisations  : 32896
 total energy-change (2. order) :-0.1074391E+02  (-0.8139289E+03)
 number of electron       8.0000000 magnetization       0.0000000
 augmentation part        8.0000000 magnetization       0.0000000

 Free energy of the ion-electron system (eV)
  ---------------------------------------------------
  alpha Z        PSCENC =         3.33880741
  Ewald energy   TEWEN  =      -227.98820643
  -Hartree energ DENC   =       -11.11484531
  -exchange      EXHF   =         0.00000000
  -V(xc)+E(xc)   XCENC  =       -17.48252866
  PAW double counting   =       174.95707044     -140.38057629
  entropy T*S    EENTRO =         0.00005376
  eigenvalues    EBANDS =         2.77471785
  atomic energy  EATOM  =       205.15160006
  ---------------------------------------------------
  free energy    TOTEN  =       -10.74390716 eV

  energy without entropy =      -10.74396093  energy(sigma->0) =      -10.74392060


--------------------------------------------------------------------------------------------------------




--------------------------------------- Iteration      1(   2)  ---------------------------------------


    TRIAL :  cpu time     58.4468: real time     58.4807
    CORREC:  cpu time      0.0011: real time      0.0011
    --------------------------------------------
      LOOP:  cpu time     58.4657: real time     58.5076

 eigenvalue-minimisations  : 38144
 total energy-change (2. order) :-0.9682291E+00  (-0.9682738E+00)
 number of electron       8.0000000 magnetization       0.0000000
 augmentation part        8.0000000 magnetization       0.0000000

 Free energy of the ion-electron system (eV)
  ---------------------------------------------------
  alpha Z        PSCENC =         3.33880741
  Ewald energy   TEWEN  =      -227.98820643
  -Hartree energ DENC   =       -11.11484531
  -exchange      EXHF   =         0.00000000
  -V(xc)+E(xc)   XCENC  =       -17.48252866
  PAW double counting   =       174.95707044     -140.38057629
  entropy T*S    EENTRO =         0.00050649
  eigenvalues    EBANDS =         1.80603603
  atomic energy  EATOM  =       205.15160006
  ---------------------------------------------------
  free energy    TOTEN  =       -11.71213625 eV

  energy without entropy =      -11.71264274  energy(sigma->0) =      -11.71226287


--------------------------------------------------------------------------------------------------------




--------------------------------------- Iteration      1(   3)  ---------------------------------------


    TRIAL :  cpu time     25.6689: real time     25.6853
    CORREC:  cpu time      0.0012: real time      0.0012
    --------------------------------------------
      LOOP:  cpu time     25.6817: real time     25.7081

 eigenvalue-minimisations  : 24832
 total energy-change (2. order) :-0.2310636E-04  (-0.2310638E-04)
 number of electron       8.0000000 magnetization       0.0000000
 augmentation part        8.0000000 magnetization       0.0000000

 Free energy of the ion-electron system (eV)
  ---------------------------------------------------
  alpha Z        PSCENC =         3.33880741
  Ewald energy   TEWEN  =      -227.98820643
  -Hartree energ DENC   =       -11.11484531
  -exchange      EXHF   =         0.00000000
  -V(xc)+E(xc)   XCENC  =       -17.48252866
  PAW double counting   =       174.95707044     -140.38057629
  entropy T*S    EENTRO =         0.00050649
  eigenvalues    EBANDS =         1.80601294
  atomic energy  EATOM  =       205.15160006
  ---------------------------------------------------
  free energy    TOTEN  =       -11.71215936 eV

  energy without entropy =      -11.71266584  energy(sigma->0) =      -11.71228598


--------------------------------------------------------------------------------------------------------




--------------------------------------- Iteration      1(   4)  ---------------------------------------


    TRIAL :  cpu time     92.0352: real time     92.0734
    CORREC:  cpu time      0.0014: real time      0.0014
    --------------------------------------------
      LOOP:  cpu time     92.0578: real time     92.0981

 eigenvalue-minimisations  : 46976
 total energy-change (2. order) :-0.5501484E-09  (-0.4750149E-09)
 number of electron       8.0000000 magnetization       0.0000000
 augmentation part        8.0000000 magnetization       0.0000000

 Free energy of the ion-electron system (eV)
  ---------------------------------------------------
  alpha Z        PSCENC =         3.33880741
  Ewald energy   TEWEN  =      -227.98820643
  -Hartree energ DENC   =       -11.11484531
  -exchange      EXHF   =         0.00000000
  -V(xc)+E(xc)   XCENC  =       -17.48252866
  PAW double counting   =       174.95707044     -140.38057629
  entropy T*S    EENTRO =         0.00050649
  eigenvalues    EBANDS =         1.80601294
  atomic energy  EATOM  =       205.15160006
  ---------------------------------------------------
  free energy    TOTEN  =       -11.71215936 eV

  energy without entropy =      -11.71266584  energy(sigma->0) =      -11.71228598


--------------------------------------------------------------------------------------------------------




--------------------------------------- Iteration      1(   5)  ---------------------------------------


    TRIAL :  cpu time     26.2282: real time     26.2389
    CORREC:  cpu time      0.0015: real time      0.0015
    CHARGE:  cpu time      0.0681: real time      0.0681
    --------------------------------------------
      LOOP:  cpu time     26.3115: real time     26.3330

 eigenvalue-minimisations  : 24832
 total energy-change (2. order) :-0.4809451E-09  (-0.2158715E-12)
 number of electron       8.0000000 magnetization      -0.0000000
 augmentation part       -0.4674998 magnetization      -0.0000000

 Free energy of the ion-electron system (eV)
  ---------------------------------------------------
  alpha Z        PSCENC =         3.33880741
  Ewald energy   TEWEN  =      -227.98820643
  -Hartree energ DENC   =       -11.11484531
  -exchange      EXHF   =         0.00000000
  -V(xc)+E(xc)   XCENC  =       -17.48252866
  PAW double counting   =       174.95707044     -140.38057629
  entropy T*S    EENTRO =         0.00050649
  eigenvalues    EBANDS =         1.80601294
  atomic energy  EATOM  =       205.15160006
  ---------------------------------------------------
  free energy    TOTEN  =       -11.71215936 eV

  energy without entropy =      -11.71266584  energy(sigma->0) =      -11.71228598


--------------------------------------------------------------------------------------------------------




--------------------------------------- Iteration      1(   6)  ---------------------------------------


    POTLOK:  cpu time      0.0153: real time      0.0153
    SETDIJ:  cpu time      0.2360: real time      0.2360
    TRIAL :  cpu time      3.9105: real time      3.9121
    CORREC:  cpu time      2.7056: real time      2.7063
    CHARGE:  cpu time      0.0716: real time      0.0716
    --------------------------------------------
      LOOP:  cpu time      7.0862: real time      7.6368

 eigenvalue-minimisations  :     0
 total energy-change (2. order) : 0.2828569E+00  (-0.6448445E-01)
 number of electron       8.0000000 magnetization      -0.0000000
 augmentation part       -0.4564511 magnetization      -0.0000000

 Free energy of the ion-electron system (eV)
  ---------------------------------------------------
  alpha Z        PSCENC =         3.33880741
  Ewald energy   TEWEN  =      -227.98820643
  -Hartree energ DENC   =       -15.99903408
  -exchange      EXHF   =         0.00000000
  -V(xc)+E(xc)   XCENC  =       -16.75653958
  PAW double counting   =       878.58261394     -844.26098502
  entropy T*S    EENTRO =         0.00001572
  eigenvalues    EBANDS =         6.50193475
  atomic energy  EATOM  =       205.15160006
  ---------------------------------------------------
  free energy    TOTEN  =       -11.42930246 eV

  energy without entropy =      -11.42931817  energy(sigma->0) =      -11.42930638


--------------------------------------------------------------------------------------------------------




--------------------------------------- Iteration      1(   7)  ---------------------------------------


    POTLOK:  cpu time      0.0103: real time      0.0103
    SETDIJ:  cpu time      0.2293: real time      0.2293
    TRIAL :  cpu time      3.5724: real time      3.5739
    CORREC:  cpu time      2.7061: real time      2.7068
    CHARGE:  cpu time      0.0703: real time      0.0703
    --------------------------------------------
      LOOP:  cpu time      6.6084: real time      6.6129

 eigenvalue-minimisations  :     0
 total energy-change (2. order) :-0.6337713E-01  (-0.3846758E-03)
 number of electron       8.0000000 magnetization      -0.0000000
 augmentation part       -0.4569694 magnetization       0.0000000

 Free energy of the ion-electron system (eV)
  ---------------------------------------------------
  alpha Z        PSCENC =         3.33880741
  Ewald energy   TEWEN  =      -227.98820643
  -Hartree energ DENC   =       -14.66990731
  -exchange      EXHF   =         0.00000000
  -V(xc)+E(xc)   XCENC  =       -16.88033103
  PAW double counting   =       862.85549974     -828.48496394
  entropy T*S    EENTRO =         0.00001492
  eigenvalues    EBANDS =         5.18480620
  atomic energy  EATOM  =       205.15160006
  ---------------------------------------------------
  free energy    TOTEN  =       -11.49267959 eV

  energy without entropy =      -11.49269451  energy(sigma->0) =      -11.49268332


--------------------------------------------------------------------------------------------------------




--------------------------------------- Iteration      1(   8)  ---------------------------------------


    POTLOK:  cpu time      0.0151: real time      0.0151
    SETDIJ:  cpu time      0.2306: real time      0.2307
    TRIAL :  cpu time      3.5647: real time      3.5663
    CORREC:  cpu time      2.7079: real time      2.7092
    CHARGE:  cpu time      0.0691: real time      0.0691
    --------------------------------------------
      LOOP:  cpu time      7.4160: real time      7.5200

 eigenvalue-minimisations  :     0
 total energy-change (2. order) :-0.3797348E-03  (-0.5553729E-04)
 number of electron       8.0000000 magnetization       0.0000000
 augmentation part       -0.4578677 magnetization       0.0000000

 Free energy of the ion-electron system (eV)
  ---------------------------------------------------
  alpha Z        PSCENC =         3.33880741
  Ewald energy   TEWEN  =      -227.98820643
  -Hartree energ DENC   =       -14.68101540
  -exchange      EXHF   =         0.00000000
  -V(xc)+E(xc)   XCENC  =       -16.87986045
  PAW double counting   =       870.05898205     -835.69032635
  entropy T*S    EENTRO =         0.00001443
  eigenvalues    EBANDS =         5.19694487
  atomic energy  EATOM  =       205.15160006
  ---------------------------------------------------
  free energy    TOTEN  =       -11.49305932 eV

  energy without entropy =      -11.49307376  energy(sigma->0) =      -11.49306293


--------------------------------------------------------------------------------------------------------




--------------------------------------- Iteration      1(   9)  ---------------------------------------


    POTLOK:  cpu time      0.0151: real time      0.0151
    SETDIJ:  cpu time      0.2292: real time      0.2292
    TRIAL :  cpu time      3.5600: real time      3.5613
    CORREC:  cpu time      2.7002: real time      2.7010
    CHARGE:  cpu time      0.0711: real time      0.0711
    --------------------------------------------
      LOOP:  cpu time      6.8034: real time      6.8461

 eigenvalue-minimisations  :     0
 total energy-change (2. order) :-0.5171094E-04  (-0.1709285E-05)
 number of electron       8.0000000 magnetization       0.0000000
 augmentation part       -0.4579039 magnetization       0.0000000

 Free energy of the ion-electron system (eV)
  ---------------------------------------------------
  alpha Z        PSCENC =         3.33880741
  Ewald energy   TEWEN  =      -227.98820643
  -Hartree energ DENC   =       -14.69760845
  -exchange      EXHF   =         0.00000000
  -V(xc)+E(xc)   XCENC  =       -16.88021416
  PAW double counting   =       857.68574218     -823.31857854
  entropy T*S    EENTRO =         0.00001439
  eigenvalues    EBANDS =         5.21533246
  atomic energy  EATOM  =       205.15160006
  ---------------------------------------------------
  free energy    TOTEN  =       -11.49311103 eV

  energy without entropy =      -11.49312543  energy(sigma->0) =      -11.49311463


--------------------------------------------------------------------------------------------------------




--------------------------------------- Iteration      1(  10)  ---------------------------------------


    POTLOK:  cpu time      0.0154: real time      0.0154
    SETDIJ:  cpu time      0.2301: real time      0.2307
    TRIAL :  cpu time      3.5700: real time      3.5709
    CORREC:  cpu time      2.7028: real time      2.7040
    EDDIAG:  cpu time      1.6145: real time      1.6149
    CHARGE:  cpu time      0.0689: real time      0.0691
    --------------------------------------------
      LOOP:  cpu time      8.5925: real time      8.8535

 eigenvalue-minimisations  :     0
 total energy-change (2. order) :-0.1853640E-05  (-0.1296202E-06)
 number of electron       8.0000000 magnetization       0.0000000
 augmentation part       -0.4578993 magnetization       0.0000000

 Free energy of the ion-electron system (eV)
  ---------------------------------------------------
  alpha Z        PSCENC =         3.33880741
  Ewald energy   TEWEN  =      -227.98820643
  -Hartree energ DENC   =       -14.69646865
  -exchange      EXHF   =         0.00000000
  -V(xc)+E(xc)   XCENC  =       -16.88044538
  PAW double counting   =       855.68240969     -821.31516482
  entropy T*S    EENTRO =         0.00001439
  eigenvalues    EBANDS =         5.21434084
  atomic energy  EATOM  =       205.15160006
  ---------------------------------------------------
  free energy    TOTEN  =       -11.49311289 eV

  energy without entropy =      -11.49312727  energy(sigma->0) =      -11.49311648


--------------------------------------------------------------------------------------------------------


  average scaling for gradient   1.3491


 average (electrostatic) potential at core
  the test charge radii are     0.9892
  (the norm of the test charge is              1.0000)
       1 -83.1166       2 -83.1166



 E-fermi :   6.0871     XC(G=0):  -9.5259     alpha+bet :-11.8943

 Fermi energy:         6.0870830215

 spin component 1

 k-point     1 :       0.0000    0.0000    0.0000
  band No.  band energies     occupation
      1      -6.2233      1.00000
      2       5.7180      0.99624
      3       5.7180      0.99624
      4       5.7180      0.99624
      5       8.2323      0.00000
      6       8.2323      0.00000
      7       8.2323      0.00000
      8       8.9599      0.00000
      9      13.3990      0.00000
     10      13.4022      0.00000
     11      13.4022      0.00000
     12      16.7908      0.00000
     13      16.7908      0.00000
     14      16.7908      0.00000
     15      20.7578      0.00000
     16      28.6323      0.00000
     17      28.6323      0.00000
     18      28.6324      0.00000
     19      29.7929      0.00000
     20      29.7929      0.00000
     21      31.2824      0.00000
     22      31.2824      0.00000
     23      31.2825      0.00000
     24      34.8147      0.00000
     25      34.8147      0.00000
     26      34.8148      0.00000
     27      40.3570      0.00000
     28      40.3570      0.00000
     29      40.3570      0.00000
     30      43.6435      0.00000
     31      44.1522      0.00000
     32      44.1522      0.00000
     33      46.0886      0.00000
     34      46.0886      0.00000
     35      47.6394      0.00000
     36      47.6395      0.00000
     37      47.6395      0.00000
     38      49.3991      0.00000
     39      49.3991      0.00000
     40      49.3991      0.00000
     41      49.9363      0.00000
     42      50.3969      0.00000
     43      50.3969      0.00000
     44      50.3969      0.00000
     45      50.5037      0.00000
     46      50.5037      0.00000
     47      50.5037      0.00000
     48      51.8684      0.00000
     49      51.8684      0.00000
     50      51.8684      0.00000
     51      55.6899      0.00000
     52      56.8807      0.00000
     53      56.8808      0.00000
     54      56.8808      0.00000
     55      57.1066      0.00000
     56      57.1066      0.00000
     57      57.1066      0.00000
     58      62.0166      0.00000
     59      63.1137      0.00000
     60      71.7799      0.00000
     61      71.7799      0.00000
     62      74.8254      0.00000
     63      74.8255      0.00000
     64      74.8255      0.00000
     65      77.4460      0.00000
     66      77.4460      0.00000
     67      77.6883      0.00000
     68      77.6883      0.00000
     69      77.6883      0.00000
     70      77.9245      0.00000
     71      78.1123      0.00000
     72      78.1124      0.00000
     73      78.1124      0.00000
     74      82.1589      0.00000
     75      82.1589      0.00000
     76      82.1589      0.00000
     77      88.0492      0.00000
     78      88.0492      0.00000
     79      88.0493      0.00000
     80      88.3107      0.00000
     81      88.3107      0.00000
     82      88.8127      0.00000
     83      88.8127      0.00000
     84      88.8127      0.00000
     85      90.0114      0.00000
     86      90.0115      0.00000
     87      90.0115      0.00000
     88      90.3117      0.00000
     89      91.7448      0.00000
     90      91.7448      0.00000
     91      92.2573      0.00000
     92      92.2573      0.00000
     93      92.2573      0.00000
     94      95.4812      0.00000
     95      95.4812      0.00000
     96      95.4812      0.00000
     97      96.4747      0.00000
     98      96.7076      0.00000
     99      96.7076      0.00000
    100      96.7077      0.00000
    101      97.4955      0.00000
    102      97.4955      0.00000
    103      97.4955      0.00000
    104      97.5707      0.00000
    105      97.5707      0.00000
    106      97.5707      0.00000
    107      98.1739      0.00000
    108      99.0774      0.00000
    109      99.0774      0.00000
    110      99.0774      0.00000
    111      99.1948      0.00000
    112      99.1948      0.00000
    113     104.8871      0.00000
    114     106.1704      0.00000
    115     106.1705      0.00000
    116     106.1705      0.00000
    117     108.6786      0.00000
    118     108.6786      0.00000
    119     108.8363      0.00000
    120     109.9578      0.00000
    121     109.9578      0.00000
    122     109.9578      0.00000
    123     113.4798      0.00000
    124     113.4798      0.00000
    125     113.4798      0.00000
    126     113.7885      0.00000
    127     113.7885      0.00000
    128     113.7885      0.00000

 k-point     2 :       0.1000    0.0000    0.0000
  band No.  band energies     occupation
      1      -6.0927      1.00000
      2       4.5621      1.00000
      3       5.5184      0.99941
      4       5.5184      0.99941
      5       8.2209      0.00000
      6       8.5252      0.00000
      7       8.5253      0.00000
      8       9.9006      0.00000
      9      13.0302      0.00000
     10      13.0302      0.00000
     11      13.9486      0.00000
     12      16.3475      0.00000
     13      17.5939      0.00000
     14      17.5939      0.00000
     15      21.6165      0.00000
     16      27.2751      0.00000
     17      27.2751      0.00000
     18      27.3977      0.00000
     19      29.4275      0.00000
     20      29.4275      0.00000
     21      31.7277      0.00000
     22      31.7277      0.00000
     23      32.3264      0.00000
     24      34.9341      0.00000
     25      36.3281      0.00000
     26      36.3281      0.00000
     27      38.6885      0.00000
     28      40.0095      0.00000
     29      40.0095      0.00000
     30      42.9034      0.00000
     31      42.9034      0.00000
     32      44.0895      0.00000
     33      44.6163      0.00000
     34      44.6163      0.00000
     35      47.4385      0.00000
     36      47.4385      0.00000
     37      47.6425      0.00000
     38      48.3237      0.00000
     39      48.7286      0.00000
     40      49.3395      0.00000
     41      49.3395      0.00000
     42      49.9826      0.00000
     43      50.0074      0.00000
     44      50.0074      0.00000
     45      51.6504      0.00000
     46      52.0944      0.00000
     47      52.0944      0.00000
     48      52.6999      0.00000
     49      54.3793      0.00000
     50      54.6566      0.00000
     51      54.6566      0.00000
     52      55.9212      0.00000
     53      55.9212      0.00000
     54      56.4466      0.00000
     55      59.0577      0.00000
     56      59.0578      0.00000
     57      60.1619      0.00000
     58      63.3443      0.00000
     59      64.2690      0.00000
     60      69.5553      0.00000
     61      69.5553      0.00000
     62      72.2727      0.00000
     63      74.4316      0.00000
     64      74.4317      0.00000
     65      75.4812      0.00000
     66      76.2929      0.00000
     67      76.2929      0.00000
     68      77.9270      0.00000
     69      77.9270      0.00000
     70      78.0646      0.00000
     71      78.0646      0.00000
     72      78.9595      0.00000
     73      80.6068      0.00000
     74      81.9688      0.00000
     75      83.9898      0.00000
     76      83.9899      0.00000
     77      84.3365      0.00000
     78      84.3366      0.00000
     79      86.7686      0.00000
     80      87.8609      0.00000
     81      87.8610      0.00000
     82      88.2812      0.00000
     83      89.1473      0.00000
     84      89.1473      0.00000
     85      89.8652      0.00000
     86      89.8652      0.00000
     87      90.0972      0.00000
     88      90.9695      0.00000
     89      91.0023      0.00000
     90      92.2211      0.00000
     91      92.2211      0.00000
     92      92.7103      0.00000
     93      93.7051      0.00000
     94      93.7051      0.00000
     95      93.9030      0.00000
     96      93.9030      0.00000
     97      94.5417      0.00000
     98      95.4020      0.00000
     99      95.4020      0.00000
    100      96.2890      0.00000
    101      97.6601      0.00000
    102      97.8538      0.00000
    103      97.8538      0.00000
    104      99.0592      0.00000
    105      99.0592      0.00000
    106      99.5993      0.00000
    107     100.7800      0.00000
    108     100.7800      0.00000
    109     101.3870      0.00000
    110     101.7672      0.00000
    111     103.4184      0.00000
    112     104.6235      0.00000
    113     104.6235      0.00000
    114     104.8851      0.00000
    115     104.8852      0.00000
    116     105.1115      0.00000
    117     105.1115      0.00000
    118     106.3011      0.00000
    119     108.9126      0.00000
    120     109.4426      0.00000
    121     109.4426      0.00000
    122     110.1814      0.00000
    123     110.9856      0.00000
    124     110.9856      0.00000
    125     112.1301      0.00000
    126     113.1234      0.00000
    127     113.4098      0.00000
    128     113.4099      0.00000

 k-point     3 :       0.2000    0.0000    0.0000
  band No.  band energies     occupation
      1      -5.7070      1.00000
      2       2.6967      1.00000
      3       5.1371      1.00000
      4       5.1371      1.00000
      5       7.8498      0.00000
      6       9.0311      0.00000
      7       9.0311      0.00000
      8      11.6533      0.00000
      9      12.7027      0.00000
     10      12.7027      0.00000
     11      14.6273      0.00000
     12      16.4546      0.00000
     13      19.3178      0.00000
     14      19.3178      0.00000
     15      23.3161      0.00000
     16      24.6327      0.00000
     17      24.6327      0.00000
     18      25.5649      0.00000
     19      29.5203      0.00000
     20      29.5204      0.00000
     21      32.0495      0.00000
     22      32.0495      0.00000
     23      33.6936      0.00000
     24      35.2789      0.00000
     25      35.6756      0.00000
     26      38.3272      0.00000
     27      38.3272      0.00000
     28      39.2974      0.00000
     29      39.2975      0.00000
     30      40.2271      0.00000
     31      40.2271      0.00000
     32      43.3259      0.00000
     33      43.3259      0.00000
     34      44.3515      0.00000
     35      45.4927      0.00000
     36      45.9355      0.00000
     37      46.9045      0.00000
     38      46.9045      0.00000
     39      49.1958      0.00000
     40      49.4144      0.00000
     41      49.4144      0.00000
     42      49.4389      0.00000
     43      50.1229      0.00000
     44      51.5144      0.00000
     45      51.5144      0.00000
     46      54.6824      0.00000
     47      54.6824      0.00000
     48      54.7117      0.00000
     49      54.8842      0.00000
     50      54.8842      0.00000
     51      57.2793      0.00000
     52      57.7723      0.00000
     53      60.0319      0.00000
     54      60.0319      0.00000
     55      61.5837      0.00000
     56      61.5837      0.00000
     57      62.0413      0.00000
     58      65.0475      0.00000
     59      66.5467      0.00000
     60      66.5467      0.00000
     61      68.1046      0.00000
     62      69.4552      0.00000
     63      70.1984      0.00000
     64      70.1984      0.00000
     65      72.8332      0.00000
     66      73.8476      0.00000
     67      73.8476      0.00000
     68      76.8359      0.00000
     69      76.8360      0.00000
     70      78.3440      0.00000
     71      80.9019      0.00000
     72      80.9019      0.00000
     73      81.2645      0.00000
     74      82.6033      0.00000
     75      82.6033      0.00000
     76      82.7235      0.00000
     77      83.1883      0.00000
     78      83.1883      0.00000
     79      85.1108      0.00000
     80      85.9324      0.00000
     81      86.3886      0.00000
     82      86.3886      0.00000
     83      87.5057      0.00000
     84      87.5057      0.00000
     85      88.4967      0.00000
     86      88.8905      0.00000
     87      90.1092      0.00000
     88      90.1092      0.00000
     89      90.5881      0.00000
     90      90.5881      0.00000
     91      90.8231      0.00000
     92      93.2820      0.00000
     93      94.4369      0.00000
     94      94.4369      0.00000
     95      95.1297      0.00000
     96      95.5480      0.00000
     97      95.6581      0.00000
     98      95.6582      0.00000
     99      97.6211      0.00000
    100      97.6211      0.00000
    101      97.7350      0.00000
    102      98.7544      0.00000
    103      98.7544      0.00000
    104     100.2840      0.00000
    105     100.2840      0.00000
    106     100.6251      0.00000
    107     101.4844      0.00000
    108     101.4844      0.00000
    109     101.7564      0.00000
    110     102.6429      0.00000
    111     102.6430      0.00000
    112     104.7347      0.00000
    113     106.2961      0.00000
    114     106.2962      0.00000
    115     106.7250      0.00000
    116     106.9688      0.00000
    117     106.9688      0.00000
    118     107.6668      0.00000
    119     109.7599      0.00000
    120     109.8001      0.00000
    121     110.7297      0.00000
    122     110.7297      0.00000
    123     111.2016      0.00000
    124     111.6474      0.00000
    125     111.6475      0.00000
    126     112.6470      0.00000
    127     113.6161      0.00000
    128     113.6161      0.00000

 k-point     4 :       0.3000    0.0000    0.0000
  band No.  band energies     occupation
      1      -5.0924      1.00000
      2       0.9117      1.00000
      3       4.8032      1.00000
      4       4.8032      1.00000
      5       7.4820      0.00000
      6       9.1945      0.00000
      7       9.1945      0.00000
      8      13.1999      0.00000
      9      13.2438      0.00000
     10      13.2438      0.00000
     11      14.4097      0.00000
     12      18.4273      0.00000
     13      20.6319      0.00000
     14      20.6319      0.00000
     15      22.8311      0.00000
     16      22.8516      0.00000
     17      22.8516      0.00000
     18      26.4715      0.00000
     19      29.6408      0.00000
     20      29.6408      0.00000
     21      31.8723      0.00000
     22      32.2975      0.00000
     23      32.2975      0.00000
     24      35.2079      0.00000
     25      35.7963      0.00000
     26      35.8528      0.00000
     27      35.8528      0.00000
     28      38.5211      0.00000
     29      38.5211      0.00000
     30      39.6738      0.00000
     31      39.6738      0.00000
     32      42.1284      0.00000
     33      43.7761      0.00000
     34      43.9397      0.00000
     35      44.9511      0.00000
     36      44.9511      0.00000
     37      46.5996      0.00000
     38      46.5996      0.00000
     39      48.6253      0.00000
     40      49.3069      0.00000
     41      49.3069      0.00000
     42      49.5735      0.00000
     43      50.7889      0.00000
     44      53.3724      0.00000
     45      53.3724      0.00000
     46      55.4784      0.00000
     47      55.4784      0.00000
     48      57.2414      0.00000
     49      57.8891      0.00000
     50      57.8892      0.00000
     51      58.9742      0.00000
     52      61.4957      0.00000
     53      63.1390      0.00000
     54      63.1390      0.00000
     55      63.8826      0.00000
     56      64.4052      0.00000
     57      64.4052      0.00000
     58      65.5014      0.00000
     59      65.5014      0.00000
     60      65.7060      0.00000
     61      66.3996      0.00000
     62      66.3997      0.00000
     63      66.6328      0.00000
     64      70.3980      0.00000
     65      70.3980      0.00000
     66      70.9910      0.00000
     67      73.5862      0.00000
     68      74.1440      0.00000
     69      74.1440      0.00000
     70      77.1273      0.00000
     71      78.7378      0.00000
     72      79.8460      0.00000
     73      80.1002      0.00000
     74      80.1002      0.00000
     75      80.4592      0.00000
     76      80.4592      0.00000
     77      82.9673      0.00000
     78      83.4261      0.00000
     79      83.4262      0.00000
     80      84.3463      0.00000
     81      85.8257      0.00000
     82      85.8257      0.00000
     83      87.5956      0.00000
     84      87.5956      0.00000
     85      89.2335      0.00000
     86      89.4905      0.00000
     87      89.7459      0.00000
     88      89.7459      0.00000
     89      90.4254      0.00000
     90      90.6940      0.00000
     91      90.6940      0.00000
     92      92.8415      0.00000
     93      92.8415      0.00000
     94      93.0725      0.00000
     95      94.6716      0.00000
     96      94.6717      0.00000
     97      95.1456      0.00000
     98      95.4974      0.00000
     99      98.8363      0.00000
    100      98.8364      0.00000
    101      99.4636      0.00000
    102      99.7347      0.00000
    103      99.7347      0.00000
    104     101.5145      0.00000
    105     101.5145      0.00000
    106     102.4566      0.00000
    107     102.4567      0.00000
    108     103.3934      0.00000
    109     103.4419      0.00000
    110     104.4754      0.00000
    111     104.4981      0.00000
    112     104.5023      0.00000
    113     104.5023      0.00000
    114     107.0410      0.00000
    115     107.0899      0.00000
    116     107.0900      0.00000
    117     107.6833      0.00000
    118     108.9744      0.00000
    119     108.9744      0.00000
    120     110.6054      0.00000
    121     111.7518      0.00000
    122     111.7519      0.00000
    123     112.5563      0.00000
    124     113.3950      0.00000
    125     113.3950      0.00000
    126     113.5044      0.00000
    127     113.5044      0.00000
    128     114.1056      0.00000

 k-point     5 :       0.4000    0.0000    0.0000
  band No.  band energies     occupation
      1      -4.3451      1.00000
      2      -0.5639      1.00000
      3       4.5919      1.00000
      4       4.5920      1.00000
      5       7.2405      0.00000
      6       9.0715      0.00000
      7       9.0715      0.00000
      8      13.3420      0.00000
      9      14.6328      0.00000
     10      14.6328      0.00000
     11      15.6335      0.00000
     12      18.8239      0.00000
     13      18.8239      0.00000
     14      19.5288      0.00000
     15      22.5210      0.00000
     16      24.6953      0.00000
     17      24.6953      0.00000
     18      28.3935      0.00000
     19      29.2029      0.00000
     20      29.2029      0.00000
     21      29.2149      0.00000
     22      32.3017      0.00000
     23      32.3017      0.00000
     24      33.4487      0.00000
     25      33.4487      0.00000
     26      35.0863      0.00000
     27      36.3424      0.00000
     28      37.9513      0.00000
     29      37.9513      0.00000
     30      38.8197      0.00000
     31      38.8197      0.00000
     32      39.7625      0.00000
     33      42.5030      0.00000
     34      42.7285      0.00000
     35      46.2834      0.00000
     36      46.2834      0.00000
     37      47.7135      0.00000
     38      47.7136      0.00000
     39      48.3235      0.00000
     40      49.3613      0.00000
     41      49.9562      0.00000
     42      49.9562      0.00000
     43      52.9754      0.00000
     44      54.4130      0.00000
     45      54.4130      0.00000
     46      57.1515      0.00000
     47      57.1516      0.00000
     48      58.6169      0.00000
     49      59.4886      0.00000
     50      60.3435      0.00000
     51      60.3435      0.00000
     52      61.5214      0.00000
     53      61.5214      0.00000
     54      62.5848      0.00000
     55      62.5848      0.00000
     56      64.3942      0.00000
     57      65.5151      0.00000
     58      66.3966      0.00000
     59      66.4817      0.00000
     60      66.4817      0.00000
     61      66.7947      0.00000
     62      68.5829      0.00000
     63      68.5830      0.00000
     64      70.0474      0.00000
     65      70.0474      0.00000
     66      71.8165      0.00000
     67      71.8165      0.00000
     68      71.9929      0.00000
     69      73.7879      0.00000
     70      74.3634      0.00000
     71      75.2802      0.00000
     72      76.4217      0.00000
     73      76.4217      0.00000
     74      79.4075      0.00000
     75      79.4076      0.00000
     76      79.4598      0.00000
     77      82.2229      0.00000
     78      82.6846      0.00000
     79      82.6846      0.00000
     80      82.6851      0.00000
     81      84.0944      0.00000
     82      84.0944      0.00000
     83      87.0488      0.00000
     84      87.0488      0.00000
     85      89.4600      0.00000
     86      89.8530      0.00000
     87      89.9163      0.00000
     88      89.9163      0.00000
     89      91.1695      0.00000
     90      91.1695      0.00000
     91      92.0979      0.00000
     92      92.9617      0.00000
     93      92.9617      0.00000
     94      93.7395      0.00000
     95      95.6353      0.00000
     96      95.6354      0.00000
     97      95.7071      0.00000
     98      96.2578      0.00000
     99      97.8466      0.00000
    100      97.8977      0.00000
    101      97.8977      0.00000
    102      99.8608      0.00000
    103      99.8608      0.00000
    104     100.9323      0.00000
    105     101.4701      0.00000
    106     102.5619      0.00000
    107     102.5619      0.00000
    108     104.3961      0.00000
    109     104.3961      0.00000
    110     104.7435      0.00000
    111     105.2516      0.00000
    112     105.2516      0.00000
    113     106.4807      0.00000
    114     107.2368      0.00000
    115     107.2900      0.00000
    116     107.2900      0.00000
    117     109.3430      0.00000
    118     109.7256      0.00000
    119     109.7256      0.00000
    120     110.6236      0.00000
    121     112.1077      0.00000
    122     112.2534      0.00000
    123     112.2534      0.00000
    124     112.7236      0.00000
    125     112.7237      0.00000
    126     113.4613      0.00000
    127     114.0393      0.00000
    128     114.3279      0.00000

 k-point     6 :       0.5000    0.0000    0.0000
  band No.  band energies     occupation
      1      -3.8917      1.00000
      2      -1.2634      1.00000
      3       4.5208      1.00000
      4       4.5208      1.00000
      5       7.1579      0.00000
      6       8.9940      0.00000
      7       8.9940      0.00000
      8      13.2223      0.00000
      9      16.2095      0.00000
     10      16.2095      0.00000
     11      16.8789      0.00000
     12      16.9536      0.00000
     13      16.9536      0.00000
     14      18.5545      0.00000
     15      24.9051      0.00000
     16      25.4909      0.00000
     17      27.1607      0.00000
     18      27.1607      0.00000
     19      27.3892      0.00000
     20      27.3892      0.00000
     21      31.1095      0.00000
     22      31.9800      0.00000
     23      31.9800      0.00000
     24      32.9950      0.00000
     25      32.9951      0.00000
     26      33.7368      0.00000
     27      36.6047      0.00000
     28      37.8257      0.00000
     29      37.8258      0.00000
     30      38.3743      0.00000
     31      38.3743      0.00000
     32      39.3611      0.00000
     33      41.9433      0.00000
     34      42.1705      0.00000
     35      46.2727      0.00000
     36      46.2727      0.00000
     37      48.1167      0.00000
     38      48.1168      0.00000
     39      48.2454      0.00000
     40      49.2715      0.00000
     41      52.0666      0.00000
     42      52.0666      0.00000
     43      53.8498      0.00000
     44      53.8499      0.00000
     45      54.6169      0.00000
     46      57.8991      0.00000
     47      58.0675      0.00000
     48      58.0676      0.00000
     49      59.4197      0.00000
     50      59.4197      0.00000
     51      59.4993      0.00000
     52      61.3136      0.00000
     53      61.3136      0.00000
     54      63.8382      0.00000
     55      63.8382      0.00000
     56      64.6052      0.00000
     57      65.0229      0.00000
     58      65.0229      0.00000
     59      66.6699      0.00000
     60      67.8177      0.00000
     61      67.8177      0.00000
     62      68.1997      0.00000
     63      69.4622      0.00000
     64      70.2057      0.00000
     65      71.4573      0.00000
     66      71.4573      0.00000
     67      72.5757      0.00000
     68      72.9403      0.00000
     69      72.9403      0.00000
     70      73.1825      0.00000
     71      74.8163      0.00000
     72      76.6066      0.00000
     73      77.1325      0.00000
     74      77.1325      0.00000
     75      77.5056      0.00000
     76      77.5056      0.00000
     77      79.8400      0.00000
     78      79.8401      0.00000
     79      82.0619      0.00000
     80      82.7896      0.00000
     81      82.7896      0.00000
     82      86.7015      0.00000
     83      87.2580      0.00000
     84      87.2580      0.00000
     85      88.2279      0.00000
     86      89.8054      0.00000
     87      89.8055      0.00000
     88      89.9549      0.00000
     89      91.0840      0.00000
     90      92.4826      0.00000
     91      92.4826      0.00000
     92      94.9198      0.00000
     93      95.0802      0.00000
     94      95.0802      0.00000
     95      95.2145      0.00000
     96      95.2145      0.00000
     97      95.5705      0.00000
     98      97.1159      0.00000
     99      97.5099      0.00000
    100      98.2021      0.00000
    101      98.2022      0.00000
    102      99.1479      0.00000
    103      99.1479      0.00000
    104      99.3142      0.00000
    105      99.4772      0.00000
    106      99.5763      0.00000
    107      99.5764      0.00000
    108     105.1260      0.00000
    109     105.4758      0.00000
    110     105.4758      0.00000
    111     107.2976      0.00000
    112     107.7100      0.00000
    113     107.7100      0.00000
    114     108.1605      0.00000
    115     108.6217      0.00000
    116     108.6217      0.00000
    117     109.8713      0.00000
    118     109.8713      0.00000
    119     110.1834      0.00000
    120     110.7584      0.00000
    121     111.1344      0.00000
    122     111.1344      0.00000
    123     112.3142      0.00000
    124     112.3142      0.00000
    125     112.3930      0.00000
    126     113.0774      0.00000
    127     113.5354      0.00000
    128     113.5354      0.00000

 k-point     7 :       0.1000    0.1000    0.0000
  band No.  band energies     occupation
      1      -6.0488      1.00000
      2       4.7704      1.00000
      3       5.1371      1.00000
      4       5.1371      1.00000
      5       7.8382      0.00000
      6       9.0256      0.00000
      7       9.0256      0.00000
      8       9.7972      0.00000
      9      12.3878      0.00000
     10      13.5951      0.00000
     11      14.1350      0.00000
     12      17.0961      0.00000
     13      17.0961      0.00000
     14      17.4882      0.00000
     15      21.9991      0.00000
     16      26.8096      0.00000
     17      26.8096      0.00000
     18      28.1046      0.00000
     19      28.6690      0.00000
     20      28.8555      0.00000
     21      31.9024      0.00000
     22      32.1978      0.00000
     23      32.1978      0.00000
     24      36.1073      0.00000
     25      36.1073      0.00000
     26      36.5881      0.00000
     27      39.1897      0.00000
     28      39.1898      0.00000
     29      39.2423      0.00000
     30      41.8254      0.00000
     31      43.2879      0.00000
     32      43.7528      0.00000
     33      44.7800      0.00000
     34      45.9129      0.00000
     35      46.8184      0.00000
     36      46.8184      0.00000
     37      47.3893      0.00000
     38      47.8340      0.00000
     39      47.8340      0.00000
     40      48.9161      0.00000
     41      48.9161      0.00000
     42      49.8984      0.00000
     43      51.2797      0.00000
     44      51.8217      0.00000
     45      52.2237      0.00000
     46      52.2237      0.00000
     47      52.7268      0.00000
     48      53.0778      0.00000
     49      54.0455      0.00000
     50      54.0455      0.00000
     51      54.0975      0.00000
     52      55.6959      0.00000
     53      55.6959      0.00000
     54      56.4685      0.00000
     55      59.3538      0.00000
     56      61.0013      0.00000
     57      61.0014      0.00000
     58      63.6253      0.00000
     59      64.1570      0.00000
     60      66.8424      0.00000
     61      71.8981      0.00000
     62      73.3837      0.00000
     63      73.3837      0.00000
     64      74.6354      0.00000
     65      75.5641      0.00000
     66      75.9751      0.00000
     67      75.9751      0.00000
     68      76.3360      0.00000
     69      77.4978      0.00000
     70      77.6068      0.00000
     71      77.6276      0.00000
     72      77.6276      0.00000
     73      82.5461      0.00000
     74      82.7078      0.00000
     75      83.4655      0.00000
     76      83.4655      0.00000
     77      84.0404      0.00000
     78      85.8670      0.00000
     79      86.5322      0.00000
     80      86.5635      0.00000
     81      86.5635      0.00000
     82      88.3555      0.00000
     83      88.3555      0.00000
     84      89.3397      0.00000
     85      89.8138      0.00000
     86      89.8138      0.00000
     87      90.0948      0.00000
     88      90.9743      0.00000
     89      91.3292      0.00000
     90      92.2521      0.00000
     91      92.5699      0.00000
     92      92.5699      0.00000
     93      93.0548      0.00000
     94      93.0548      0.00000
     95      93.8930      0.00000
     96      95.4401      0.00000
     97      95.4401      0.00000
     98      95.6424      0.00000
     99      95.8915      0.00000
    100      96.0282      0.00000
    101      97.7998      0.00000
    102      97.8813      0.00000
    103      98.0849      0.00000
    104      98.4473      0.00000
    105      98.4473      0.00000
    106     101.1537      0.00000
    107     101.1537      0.00000
    108     101.5613      0.00000
    109     102.0625      0.00000
    110     102.1504      0.00000
    111     102.7886      0.00000
    112     102.7886      0.00000
    113     104.4390      0.00000
    114     104.5206      0.00000
    115     104.5206      0.00000
    116     106.7839      0.00000
    117     106.8043      0.00000
    118     106.9818      0.00000
    119     108.7439      0.00000
    120     108.7440      0.00000
    121     109.0691      0.00000
    122     109.3128      0.00000
    123     109.8543      0.00000
    124     109.8544      0.00000
    125     111.5402      0.00000
    126     112.3493      0.00000
    127     114.3512      0.00000
    128     114.3513      0.00000

 k-point     8 :       0.2000    0.1000    0.0000
  band No.  band energies     occupation
      1      -5.7470      1.00000
      2       3.2561      1.00000
      3       4.7015      1.00000
      4       4.8697      1.00000
      5       7.8919      0.00000
      6       9.0622      0.00000
      7       9.6776      0.00000
      8      10.6090      0.00000
      9      12.4054      0.00000
     10      13.5716      0.00000
[...]
  260          m_sumb_d                              0.001180                         20   4
  261        set_dd_magatom                        0.000000                            1   3
  262        set_dd_paw                            0.229313                            1   3
  263          set_rsgf_all                          0.000001                          1   4
  264          m_sumb_d                              0.229289                          7   4
  265        strkin                                0.002185                            1   3
  266          m_sumb_d                              0.000004                          1   4
  267        strelo                                0.000253                            1   3
  268          m_sumb_d                              0.000176                          2   4
  269        strnlr                                0.801972                            1   3
  270          rspher_all                            0.017208                          9   4
  271          phaser                                0.260543                        423   4
  272          rpro_isp                              0.489050                        423   4
  273            fftwav_mpi                            0.420966                      846   5
  274              fftwav                                0.420596                    846   6
  275                fft3d                                 0.402458                  846   7
  276            rpromu                                0.066133                      846   5
  277              crrexp_mul_wave                       0.020948                   1692   6
  278              rpromu_gemm                           0.042648                   1692   6
  279          m_sumb_d                              0.033614                          1   4
  280        fft3d_mpi                             0.008624                           22   3
  281          fftbrc_mpi                            0.008583                         22   4
  282            fftbas_plan_mpi                       0.008575                       22   5
  283              dfftw_execute                         0.000652                     66   6
  284              map_forward                           0.004214                     20   6
  285                map_gather                            0.000038                   10   7
  286                m_alltoallv_z                         0.004106                   10   7
  287                map_scatter                           0.000049                   10   7
  288              map_backward                          0.003452                     24   6
  289                map_gather                            0.000052                   12   7
  290                m_alltoallv_z                         0.003356                   12   7
  291                map_scatter                           0.000027                   12   7
  292        m_sumb_d                              0.000172                            5   3
  293        forhar                                0.000309                            1   3
  294          m_sumb_d                              0.000172                          1   4
  295        strehar                               0.000077                            1   3
  296          m_sumb_d                              0.000018                          1   4
  297        m_bcast_d                             0.000021                            2   3
  298      potlok                                0.026439                              2   2
  299        fft3d_mpi                             0.018027                           52   3
  300          fftbrc_mpi                            0.017561                         52   4
  301            fftbas_plan_mpi                       0.017544                       52   5
  302              dfftw_execute                         0.001896                    156   6
  303              map_forward                           0.007823                     56   6
  304                map_gather                            0.000068                   32   7
  305                m_alltoallv_z                         0.007426                   32   7
  306                map_scatter                           0.000265                   32   7
  307              map_backward                          0.007023                     48   6
  308                map_gather                            0.000107                   24   7
  309                m_alltoallv_z                         0.006816                   24   7
  310                map_scatter                           0.000062                   24   7
  311        m_sumb_d                              0.000179                           10   3
  312        pothar                                0.000175                            2   3
  313          m_sumb_d                              0.000142                          2   4
  314        m_bcast_d                             0.001559                            4   3
  315      potlok_metagga                        0.000001                              2   2
  316      set_dd_magatom                        0.000000                              1   2
  317      set_dd_paw                            0.242190                              1   2
  318        set_rsgf_all                          0.000001                            1   3
  319        m_sumb_d                              0.242155                            7   3
  320      augmentation_charge                   0.002099                              1   2
  321        fft3d_mpi                             0.001374                            2   3
  322          fftbrc_mpi                            0.001370                          2   4
  323            fftbas_plan_mpi                       0.001368                        2   5
  324              dfftw_execute                         0.000068                      6   6
  325              map_backward                          0.001250                      4   6
  326                map_gather                            0.000010                    2   7
  327                m_alltoallv_z                         0.001226                    2   7
  328                map_scatter                           0.000011                    2   7
  329      fftwav_mpi                            0.178858                            282   2
  330        fftwav                                0.178696                          282   3
  331          fft3d                                 0.165198                        282   4

 Flat profile
 ============

             routine name                   CPU           calls
 ---------------------------------------------------------------
 lapack                                185.217972        1780
 m_alltoall_d                           39.394833       48164
 eddav                                  14.179742           5
 pdssyex_zheevx                         11.351369        1034
 m_bcast_z                              10.767510       13812
 total_time                              8.291311           1
 edwav                                   5.302056          10
 fft3d                                   4.957871        9946
 m_sumb_d                                4.956943       14423
 elmin_all                               2.712744           1
 orth1                                   2.128891        5434
 fftwav                                  1.044864        7132
 phaser                                  0.939545        1551
 racc0                                   0.732434        2250
 rpro1                                   0.706779        1780
 vhamil                                  0.669796        2344
 bg_ppotrf_trtri                         0.592707        1034
 ggemm                                   0.400936        1780
 crrexp_mul_work_add                     0.358778        4500
 crrexp_mul_wave                         0.346755        6004
 eccp                                    0.336250        2350
 lincom                                  0.278808        1974
 sphpro_fast                             0.196690           2
 lincom_slice                            0.142502        1034
 m_bcast_d                               0.126361        3591
 m_alltoallv_z                           0.123724         510
 m_sum_g                                 0.118076        2068
 orth1_nosubindex                        0.106983        1034
 rpromu_gemm                             0.063368        2444
 set_charge                              0.048137          11
 fftext_mpi                              0.048111        2814
 pw_charge                               0.045605        1034
 w1_copy                                 0.044595        5340
 potlok                                  0.041886          13
 w1_dscal                                0.034755         470
 redis_proj                              0.033668       19434
 apply_precond                           0.032653        1310
 setdij_                                 0.028689          39
 redis_pw                                0.027514       10510
 rspher_all                              0.026067          14
 eddiag                                  0.021579           6
 dfftw_execute                           0.017797        1326
 kinhamil                                0.015352        2344
 orth1_distri                            0.015191        1034
 recon_slice                             0.012519        1034
 soft_charge                             0.012432          11
 hamiltmu                                0.011827        1780
 orthch                                  0.010793          11
 augmentation_charge                     0.010700          12
 overl1                                  0.010092        1780
 fft3d_mpi                               0.009744        3256
 raccmu_                                 0.006963        1780
 brgrid                                  0.006792           1
 fftbas_plan_mpi                         0.006607         442
 overl                                   0.006190        5628
 force_and_stress                        0.005935           1
 inisym                                  0.005345           1
 densta                                  0.004925          22
 fftwav_mpi                              0.004640        7132
 newband                                 0.004395        2250
 setup_precond                           0.004295         470
 w1_projall                              0.004014        1310
 rpromu                                  0.003983        1222
 lincom_distri                           0.003420        1034
 rpro_isp                                0.003155         611
 map_gather                              0.003092         510
 map_scatter                             0.002950         510
 strkin                                  0.002181           1
 strnlr                                  0.001557           1
 hamilt_local                            0.001520         564
 distri_slice                            0.001323        1034
 truncate_high_frequency_w1              0.000773        2250
 set_dd_paw                              0.000696          13
 choleski                                0.000667        1034
 depsum                                  0.000623          11
 redis_pw_all                            0.000551          10
 fornlr                                  0.000446           1
 map_forward                             0.000444         432
 map_backward                            0.000412         452
 fordep                                  0.000366           1
 fewald                                  0.000343           1
 fft_gq                                  0.000319          11
 pothar                                  0.000221          13
 fftbrc_mpi                              0.000152         442
 forhar                                  0.000137           1
 rsp                                     0.000124           1
 strelo                                  0.000077           1
 proall                                  0.000077           1
 strehar                                 0.000059           1
 forloc                                  0.000045           1
 crpa_reader                             0.000025           1
 stufak                                  0.000023           1
 posmap                                  0.000016           2
 set_rsgf_all                            0.000016          13
 shift_bands_between_low_high            0.000013          94
 redis_pw_over_bands                     0.000009          11
 rcp                                     0.000009           1
 FERMAT_RAZOR                            0.000007           1
 potlok_metagga                          0.000004          13
 set_dd_magatom                          0.000000           2
 rotate_active_occupied_orbital          0.000000           1
 vectorpot                               0.000000           1
 ---------------------------------------------------------------
  summed up times     297.1962380409241

 Accumulative profile
 ====================

             routine name                   CPU           calls
 ---------------------------------------------------------------
 total_time                            297.196238           1
 elmin_all                             283.633696           1
 eddav                                 245.709408           5
 lapack                                185.217972        1780
 m_alltoall_d                           39.394833       48164
 edwav                                  29.783188          10
 pdssyex_zheevx                         11.351369        1034
 m_bcast_z                              10.767510       13812
 redis_proj                              7.897291       19434
 fft3d                                   4.957871        9946
 m_sumb_d                                4.956943       14423
 fftwav_mpi                              4.629267        7132
 fftwav                                  4.624628        7132
 orthch                                  3.861398          11
 redis_pw                                3.048623       10510
 set_dd_paw                              2.943346          13
 m_sum_g                                 2.425191        2068
 hamiltmu                                2.356513        1780
 orth1                                   2.128891        5434
 eddiag                                  1.954855           6
 fft3d_mpi                               1.543030        3256
 fftext_mpi                              1.429558        2814
 orth1_distri                            1.373837        1034
 lincom_distri                           1.333293        1034
 force_and_stress                        1.330143           1
 kinhamil                                1.178805        2344
 racc0                                   1.091212        2250
 rpro1                                   1.020900        1780
 phaser                                  0.939545        1551
 w1_projall                              0.931766        1310
 raccmu_                                 0.920016        1780
 strnlr                                  0.801972           1
 set_charge                              0.774713          11
 newband                                 0.752275        2250
 rpro_isp                                0.715975         611
 vhamil                                  0.669796        2344
 soft_charge                             0.637657          11
 choleski                                0.593374        1034
 bg_ppotrf_trtri                         0.592707        1034
 hamilt_local                            0.425451         564
 ggemm                                   0.400936        1780
 crrexp_mul_work_add                     0.358778        4500
 crrexp_mul_wave                         0.346755        6004
 eccp                                    0.336250        2350
 lincom                                  0.278808        1974
 fornlr                                  0.266612           1
 sphpro_fast                             0.212252           2
 redis_pw_over_bands                     0.184326          11
 redis_pw_all                            0.184317          10
 potlok                                  0.171857          13
 fftbrc_mpi                              0.155179         442
 fftbas_plan_mpi                         0.155026         442
 lincom_slice                            0.142502        1034
 m_bcast_d                               0.126361        3591
 m_alltoallv_z                           0.123724         510
 orth1_nosubindex                        0.106983        1034
 rpromu                                  0.099984        1222
 proall                                  0.093540           1
 map_forward                             0.069668         432
 densta                                  0.069042          22
 rpromu_gemm                             0.063368        2444
 map_backward                            0.060954         452
 pw_charge                               0.045605        1034
 w1_copy                                 0.044595        5340
 setdij_                                 0.039098          39
 w1_dscal                                0.034755         470
 apply_precond                           0.032653        1310
 rspher_all                              0.026067          14
 augmentation_charge                     0.018587          12
 dfftw_execute                           0.017797        1326
 recon_slice                             0.012519        1034
 overl1                                  0.010092        1780
 fft_gq                                  0.009327          11
 depsum                                  0.007594          11
 brgrid                                  0.006792           1
 overl                                   0.006190        5628
 inisym                                  0.005361           1
 setup_precond                           0.004295         470
 fordep                                  0.004197           1
 map_gather                              0.003092         510
 map_scatter                             0.002950         510
 strkin                                  0.002185           1
 distri_slice                            0.001323        1034
 pothar                                  0.000925          13
 truncate_high_frequency_w1              0.000773        2250
 fewald                                  0.000605           1
 forhar                                  0.000309           1
 strelo                                  0.000253           1
 rsp                                     0.000124           1
 strehar                                 0.000077           1
 forloc                                  0.000055           1
 crpa_reader                             0.000025           1
 stufak                                  0.000023           1
 posmap                                  0.000016           2
 set_rsgf_all                            0.000016          13
 shift_bands_between_low_high            0.000013          94
 rcp                                     0.000009           1
 FERMAT_RAZOR                            0.000007           1
 potlok_metagga                          0.000004          13
 set_dd_magatom                          0.000000           2
 rotate_active_occupied_orbital          0.000000           1
 vectorpot                               0.000000           1
 ---------------------------------------------------------------

Profiling took   0.069027  0.028116  0.004124  0.004031 seconds
Profiling took   0.044191 seconds
