<?xml version="1.0" encoding="ISO-8859-1"?>
<modeling>
 <generator>
  <i name="program" type="string">vasp </i>
  <i name="version" type="string">6.3.2  </i>
  <i name="subversion" type="string">27Jun22 (build Jun 30 2023 15:13:53) complex                          parallel </i>
  <i name="platform" type="string">LinuxNV_CrayMPICH </i>
  <i name="date" type="string">2023 07 25 </i>
  <i name="time" type="string">17:55:38 </i>
 </generator>
 <incar>
  <i type="string" name="PREC">Accurate</i>
  <i type="string" name="ALGO">All</i>
  <i type="int" name="ISPIN">     2</i>
  <i type="int" name="NELM">   200</i>
  <i type="int" name="IBRION">     2</i>
  <i name="EDIFF">      0.00001000</i>
  <i name="EDIFFG">     -0.05000000</i>
  <i type="int" name="NSW">    99</i>
  <i type="int" name="ISIF">     3</i>
  <i name="ENCUT">    680.00000000</i>
  <i name="ENAUG">   1360.00000000</i>
  <v name="MAGMOM">     -0.00000000     -0.00000000</v>
  <i type="string" name="LREAL">Auto</i>
  <i type="int" name="ISMEAR">     2</i>
  <i name="SIGMA">      0.20000000</i>
  <i name="KSPACING">      0.22000000</i>
  <i type="logical" name="LWAVE"> T  </i>
  <i type="logical" name="LCHARG"> T  </i>
  <i type="logical" name="LVTOT"> T  </i>
  <i type="int" name="LORBIT">    11</i>
  <i type="logical" name="LELF"> T  </i>
  <i type="logical" name="LASPH"> T  </i>
  <i type="logical" name="LAECHG"> T  </i>
  <i type="string" name="GGA">Ps</i>
  <i type="logical" name="LMIXTAU"> T  </i>
 </incar>
 <primitive_cell>
  <structure name="primitive_cell" >
   <crystal>
    <varray name="basis" >
     <v>       3.33357300       0.00000000       1.92463900 </v>
     <v>       1.11119100       3.14292400       1.92463900 </v>
     <v>       0.00000000       0.00000000       3.84927800 </v>
    </varray>
    <i name="volume">     40.32952685 </i>
    <varray name="rec_basis" >
     <v>       0.29997843      -0.10605835       0.00000000 </v>
     <v>       0.00000000       0.31817505       0.00000000 </v>
     <v>      -0.14998922      -0.10605835       0.25978898 </v>
    </varray>
   </crystal>
   <varray name="positions" >
    <v>       0.87500000       0.87500000       0.87500000 </v>
    <v>       0.12500000       0.12500000       0.12500000 </v>
   </varray>
  </structure>
  <varray name="primitive_index" >
   <v type="int" >        1 </v>
   <v type="int" >        2 </v>
  </varray>
 </primitive_cell>
 <kpoints>
  <generation param="Gamma">
   <v type="int" name="divisions">      10       10       10 </v>
   <v name="usershift">      0.00000000       0.00000000       0.00000000 </v>
   <v name="genvec1">      0.10000000      -0.00000000       0.00000000 </v>
   <v name="genvec2">      0.00000000       0.10000000       0.00000000 </v>
   <v name="genvec3">     -0.00000000      -0.00000000       0.10000000 </v>
   <v name="shift">      0.00000000       0.00000000       0.00000000 </v>
  </generation>
  <varray name="kpointlist" >
   <v>       0.00000000       0.00000000       0.00000000 </v>
   <v>       0.10000000       0.00000000       0.00000000 </v>
   <v>       0.20000000       0.00000000       0.00000000 </v>
   <v>       0.30000000       0.00000000       0.00000000 </v>
   <v>       0.40000000       0.00000000       0.00000000 </v>
   <v>       0.50000000       0.00000000       0.00000000 </v>
   <v>       0.10000000       0.10000000       0.00000000 </v>
   <v>       0.20000000       0.10000000       0.00000000 </v>
   <v>       0.30000000       0.10000000       0.00000000 </v>
   <v>       0.40000000       0.10000000       0.00000000 </v>
   <v>       0.50000000       0.10000000       0.00000000 </v>
   <v>      -0.40000000       0.10000000       0.00000000 </v>
   <v>      -0.30000000       0.10000000       0.00000000 </v>
   <v>      -0.20000000       0.10000000       0.00000000 </v>
   <v>      -0.10000000       0.10000000       0.00000000 </v>
   <v>       0.20000000       0.20000000       0.00000000 </v>
   <v>       0.30000000       0.20000000       0.00000000 </v>
   <v>       0.40000000       0.20000000       0.00000000 </v>
   <v>       0.50000000       0.20000000       0.00000000 </v>
   <v>      -0.40000000       0.20000000       0.00000000 </v>
   <v>      -0.30000000       0.20000000       0.00000000 </v>
   <v>      -0.20000000       0.20000000       0.00000000 </v>
   <v>       0.30000000       0.30000000       0.00000000 </v>
   <v>       0.40000000       0.30000000       0.00000000 </v>
   <v>       0.50000000       0.30000000       0.00000000 </v>
   <v>      -0.40000000       0.30000000       0.00000000 </v>
   <v>      -0.30000000       0.30000000       0.00000000 </v>
   <v>       0.40000000       0.40000000       0.00000000 </v>
   <v>       0.50000000       0.40000000       0.00000000 </v>
   <v>      -0.40000000       0.40000000       0.00000000 </v>
   <v>       0.50000000       0.50000000       0.00000000 </v>
   <v>       0.30000000       0.20000000       0.10000000 </v>
   <v>       0.40000000       0.20000000       0.10000000 </v>
   <v>       0.50000000       0.20000000       0.10000000 </v>
   <v>      -0.40000000       0.20000000       0.10000000 </v>
   <v>       0.40000000       0.30000000       0.10000000 </v>
   <v>       0.50000000       0.30000000       0.10000000 </v>
   <v>      -0.40000000       0.30000000       0.10000000 </v>
   <v>      -0.30000000       0.30000000       0.10000000 </v>
   <v>      -0.20000000       0.30000000       0.10000000 </v>
   <v>       0.50000000       0.40000000       0.10000000 </v>
   <v>      -0.40000000       0.40000000       0.10000000 </v>
   <v>      -0.30000000       0.40000000       0.10000000 </v>
   <v>      -0.40000000       0.50000000       0.10000000 </v>
   <v>      -0.40000000       0.40000000       0.20000000 </v>
   <v>      -0.30000000       0.40000000       0.20000000 </v>
   <v>      -0.30000000       0.50000000       0.20000000 </v>
  </varray>
  <varray name="weights" >
   <v>       0.00100000 </v>
   <v>       0.00800000 </v>
   <v>       0.00800000 </v>
   <v>       0.00800000 </v>
   <v>       0.00800000 </v>
   <v>       0.00400000 </v>
   <v>       0.00600000 </v>
   <v>       0.02400000 </v>
   <v>       0.02400000 </v>
   <v>       0.02400000 </v>
   <v>       0.02400000 </v>
   <v>       0.02400000 </v>
   <v>       0.02400000 </v>
   <v>       0.02400000 </v>
   <v>       0.01200000 </v>
   <v>       0.00600000 </v>
   <v>       0.02400000 </v>
   <v>       0.02400000 </v>
   <v>       0.02400000 </v>
   <v>       0.02400000 </v>
   <v>       0.02400000 </v>
   <v>       0.01200000 </v>
   <v>       0.00600000 </v>
   <v>       0.02400000 </v>
   <v>       0.02400000 </v>
   <v>       0.02400000 </v>
   <v>       0.01200000 </v>
   <v>       0.00600000 </v>
   <v>       0.02400000 </v>
   <v>       0.01200000 </v>
   <v>       0.00300000 </v>
   <v>       0.02400000 </v>
   <v>       0.04800000 </v>
   <v>       0.04800000 </v>
   <v>       0.02400000 </v>
   <v>       0.02400000 </v>
   <v>       0.04800000 </v>
   <v>       0.04800000 </v>
   <v>       0.04800000 </v>
   <v>       0.02400000 </v>
   <v>       0.02400000 </v>
   <v>       0.04800000 </v>
   <v>       0.02400000 </v>
   <v>       0.01200000 </v>
   <v>       0.02400000 </v>
   <v>       0.02400000 </v>
   <v>       0.01200000 </v>
  </varray>
 </kpoints>
 <parameters>
  <separator name="general" >
   <i type="string" name="SYSTEM">unknown system</i>
   <i type="logical" name="LCOMPAT"> F  </i>
  </separator>
  <separator name="electronic" >
   <i type="string" name="PREC">accura</i>
   <i name="ENMAX">    680.00000000</i>
   <i name="ENAUG">   1360.00000000</i>
   <i name="EDIFF">      0.00001000</i>
   <i type="int" name="IALGO">    58</i>
   <i type="int" name="IWAVPR">    11</i>
   <i type="int" name="NBANDS">   128</i>
   <i type="int" name="NBANDSLOW">    -1</i>
   <i type="int" name="NBANDSHIGH">    -1</i>
   <i name="NELECT">      8.00000000</i>
   <i type="int" name="TURBO">     0</i>
   <i type="int" name="IRESTART">     0</i>
   <i type="int" name="NREBOOT">     0</i>
   <i type="int" name="NMIN">     0</i>
   <i name="EREF">      0.00000000</i>
   <separator name="electronic smearing" >
    <i type="int" name="ISMEAR">     2</i>
    <i name="SIGMA">      0.20000000</i>
    <i name="KSPACING">      0.22000000</i>
    <i type="logical" name="KGAMMA"> T  </i>
    <i type="logical" name="KBLOWUP"> T  </i>
   </separator>
   <separator name="electronic projectors" >
    <i type="logical" name="LREAL"> T  </i>
    <v name="ROPT">     -0.00025000</v>
    <i type="int" name="LMAXPAW">  -100</i>
    <i type="int" name="LMAXMIX">     2</i>
    <i type="logical" name="NLSPLINE"> F  </i>
   </separator>
   <separator name="electronic startup" >
    <i type="int" name="ISTART">     0</i>
    <i type="int" name="ICHARG">     2</i>
    <i type="int" name="INIWAV">     1</i>
   </separator>
   <separator name="electronic spin" >
    <i type="int" name="ISPIN">     2</i>
    <i type="logical" name="LNONCOLLINEAR"> F  </i>
    <v name="MAGMOM">     -0.00000000     -0.00000000</v>
    <i name="NUPDOWN">     -1.00000000</i>
    <i type="logical" name="LSORBIT"> F  </i>
    <v name="SAXIS">      0.00000000      0.00000000      1.00000000</v>
    <i type="logical" name="LSPIRAL"> F  </i>
    <v name="QSPIRAL">      0.00000000      0.00000000      0.00000000</v>
    <i type="logical" name="LZEROZ"> F  </i>
   </separator>
   <separator name="electronic exchange-correlation" >
    <i type="logical" name="LASPH"> T  </i>
    <i type="logical" name="LMETAGGA"> F  </i>
   </separator>
   <separator name="electronic convergence" >
    <i type="int" name="NELM">   200</i>
    <i type="int" name="NELMDL">    -5</i>
    <i type="int" name="NELMIN">     2</i>
    <i name="ENINI">    680.00000000</i>
    <separator name="electronic convergence detail" >
     <i type="logical" name="LDIAG"> T  </i>
     <i type="logical" name="LSUBROT"> F  </i>
     <i name="WEIMIN">      0.00100000</i>
     <i name="EBREAK">      0.00000002</i>
     <i name="DEPER">      0.30000000</i>
     <i type="int" name="NRMM">     4</i>
     <i name="TIME">      0.40000000</i>
    </separator>
   </separator>
   <separator name="electronic mixer" >
    <i name="AMIX">      0.40000000</i>
    <i name="BMIX">      1.00000000</i>
    <i name="AMIN">      0.10000000</i>
    <i name="AMIX_MAG">      1.60000000</i>
    <i name="BMIX_MAG">      1.00000000</i>
    <separator name="electronic mixer details" >
     <i type="int" name="IMIX">     4</i>
     <i type="logical" name="MIXFIRST"> F  </i>
     <i type="int" name="MAXMIX">   -45</i>
     <i name="WC">    100.00000000</i>
     <i type="int" name="INIMIX">     1</i>
     <i type="int" name="MIXPRE">     1</i>
     <i type="int" name="MREMOVE">     5</i>
    </separator>
   </separator>
   <separator name="electronic dipolcorrection" >
    <i type="logical" name="LDIPOL"> F  </i>
    <i type="logical" name="LMONO"> F  </i>
    <i type="int" name="IDIPOL">     0</i>
    <i name="EPSILON">      1.00000000</i>
    <v name="DIPOL">   -100.00000000   -100.00000000   -100.00000000</v>
    <i name="EFIELD">      0.00000000</i>
   </separator>
  </separator>
  <separator name="grids" >
   <i type="int" name="NGX">    36</i>
   <i type="int" name="NGY">    36</i>
   <i type="int" name="NGZ">    36</i>
   <i type="int" name="NGXF">    72</i>
   <i type="int" name="NGYF">    72</i>
   <i type="int" name="NGZF">    72</i>
   <i type="logical" name="ADDGRID"> F  </i>
  </separator>
  <separator name="ionic" >
   <i type="int" name="NSW">    99</i>
   <i type="int" name="IBRION">     2</i>
   <i type="int" name="MDALGO">     0</i>
   <i type="int" name="ISIF">     3</i>
   <i name="PSTRESS">      0.00000000</i>
   <i name="EDIFFG">     -0.05000000</i>
   <i type="int" name="NFREE">     1</i>
   <i name="POTIM">      0.50000000</i>
   <i name="SMASS">     -3.00000000</i>
   <i name="SCALEE">      1.00000000</i>
  </separator>
  <separator name="ionic md" >
   <i name="TEBEG">      0.00010000</i>
   <i name="TEEND">      0.00010000</i>
   <i type="int" name="NBLOCK">     1</i>
   <i type="int" name="KBLOCK">    99</i>
   <i type="int" name="NPACO">   256</i>
   <i name="APACO">     10.00000000</i>
  </separator>
  <separator name="symmetry" >
   <i type="int" name="ISYM">     2</i>
   <i name="SYMPREC">      0.00001000</i>
  </separator>
  <separator name="dos" >
   <i type="int" name="LORBIT">    11</i>
   <v name="RWIGS">     -1.00000000</v>
   <i type="int" name="NEDOS">   301</i>
   <i name="EMIN">     10.00000000</i>
   <i name="EMAX">    -10.00000000</i>
   <i name="EFERMI">      0.00000000</i>
  </separator>
  <separator name="writing" >
   <i type="int" name="NWRITE">     2</i>
   <i type="logical" name="LWAVE"> T  </i>
   <i type="logical" name="LDOWNSAMPLE"> F  </i>
   <i type="logical" name="LCHARG"> T  </i>
   <i type="logical" name="LPARD"> F  </i>
   <i type="logical" name="LVTOT"> T  </i>
   <i type="logical" name="LVHAR"> F  </i>
   <i type="logical" name="LELF"> T  </i>
   <i type="logical" name="LOPTICS"> F  </i>
   <v name="STM">      0.00000000      0.00000000      0.00000000      0.00000000      0.00000000      0.00000000      0.00000000</v>
  </separator>
  <separator name="performance" >
   <i type="int" name="NPAR">   128</i>
   <i type="int" name="NSIM">     4</i>
   <i type="int" name="NBLK">    -1</i>
   <i type="logical" name="LPLANE"> T  </i>
   <i type="logical" name="LSCALAPACK"> T  </i>
   <i type="logical" name="LSCAAWARE"> T  </i>
   <i type="logical" name="LSCALU"> F  </i>
   <i type="logical" name="LASYNC"> F  </i>
   <i type="logical" name="LORBITALREAL"> F  </i>
  </separator>
  <separator name="miscellaneous" >
   <i type="int" name="IDIOT">     3</i>
   <i type="int" name="PHON_NSTRUCT">    -1</i>
   <i type="logical" name="LMUSIC"> F  </i>
   <v name="POMASS">     28.08500000</v>
   <v name="DARWINR">      0.00000000</v>
   <v name="DARWINV">      1.00000000</v>
   <i type="logical" name="LCORR"> T  </i>
  </separator>
  <i type="logical" name="GGA_COMPAT"> T  </i>
  <i type="logical" name="LBERRY"> F  </i>
  <i type="int" name="ICORELEVEL">     0</i>
  <i type="logical" name="LDAU"> F  </i>
  <i type="int" name="I_CONSTRAINED_M">     0</i>
  <separator name="electronic exchange-correlation" >
   <i type="string" name="GGA">PS</i>
   <i type="int" name="VOSKOWN">     0</i>
   <i type="logical" name="LHFCALC"> F  </i>
   <i type="string" name="PRECFOCK"></i>
   <i type="logical" name="LSYMGRAD"> F  </i>
   <i type="logical" name="LHFONE"> F  </i>
   <i type="logical" name="LRHFCALC"> F  </i>
   <i type="logical" name="LTHOMAS"> F  </i>
   <i type="logical" name="LMODELHF"> F  </i>
   <i type="logical" name="LFOCKACE"> F  </i>
   <i name="ENCUT4O">     -1.00000000</i>
   <i type="int" name="EXXOEP">     0</i>
   <i type="int" name="FOURORBIT">     0</i>
   <i name="AEXX">      0.00000000</i>
   <i name="HFALPHA">      0.00000000</i>
   <i name="MCALPHA">      0.00000000</i>
   <i name="ALDAX">      1.00000000</i>
   <i name="AGGAX">      1.00000000</i>
   <i name="ALDAC">      1.00000000</i>
   <i name="AGGAC">      1.00000000</i>
   <i type="int" name="NKREDX">     1</i>
   <i type="int" name="NKREDY">     1</i>
   <i type="int" name="NKREDZ">     1</i>
   <i type="logical" name="SHIFTRED"> F  </i>
   <i type="logical" name="ODDONLY"> F  </i>
   <i type="logical" name="EVENONLY"> F  </i>
   <i type="int" name="LMAXFOCK">     0</i>
   <i type="int" name="NMAXFOCKAE">     0</i>
   <i type="logical" name="LFOCKAEDFT"> F  </i>
   <i name="HFSCREEN">      0.00000000</i>
   <i name="HFSCREENC">      0.00000000</i>
   <i type="int" name="NBANDSGWLOW">     0</i>
  </separator>
  <separator name="vdW DFT" >
   <i type="logical" name="LUSE_VDW"> F  </i>
   <i name="Zab_VDW">     -0.84910000</i>
   <i name="PARAM1">      0.12340000</i>
   <i name="PARAM2">      1.00000000</i>
   <i name="PARAM3">      0.00000000</i>
  </separator>
  <separator name="model GW" >
   <i type="int" name="MODEL_GW">     0</i>
   <i name="MODEL_EPS0">     12.09885805</i>
   <i name="MODEL_ALPHA">      1.00000000</i>
  </separator>
  <separator name="linear response parameters" >
   <i type="logical" name="LEPSILON"> F  </i>
   <i type="logical" name="LRPA"> F  </i>
   <i type="logical" name="LNABLA"> F  </i>
   <i type="logical" name="LVEL"> F  </i>
   <i name="CSHIFT">      0.10000000</i>
   <i name="OMEGAMAX">     -1.00000000</i>
   <i name="DEG_THRESHOLD">      0.00200000</i>
   <i name="RTIME">     -0.10000000</i>
   <i name="WPLASMAI">      0.00000000</i>
   <v name="DFIELD">      0.00000000      0.00000000      0.00000000</v>
   <v name="WPLASMA">      0.00000000      0.00000000      0.00000000      0.00000000      0.00000000      0.00000000      0.00000000      0.00000000      0.00000000</v>
  </separator>
  <separator name="orbital magnetization" >
   <i type="logical" name="NUCIND"> F  </i>
   <v name="MAGPOS">      0.00000000      0.00000000      0.00000000</v>
   <i type="logical" name="LNICSALL"> T  </i>
   <i type="logical" name="ORBITALMAG"> F  </i>
   <i type="logical" name="LMAGBLOCH"> F  </i>
   <i type="logical" name="LCHIMAG"> F  </i>
   <i type="logical" name="LGAUGE"> T  </i>
   <i type="int" name="MAGATOM">     0</i>
   <v name="MAGDIPOL">      0.00000000      0.00000000      0.00000000</v>
   <v name="AVECCONST">      0.00000000      0.00000000      0.00000000</v>
  </separator>
  <separator name="response functions" >
   <i type="logical" name="LFINITE_TEMPERATURE"> F  </i>
   <i type="logical" name="LADDER"> F  </i>
   <i type="logical" name="LRPAFORCE"> F  </i>
   <i type="logical" name="LFXC"> F  </i>
   <i type="logical" name="LHARTREE"> T  </i>
   <i type="int" name="IBSE">     0</i>
   <v type="int" name="KPOINT">    -1     0     0     0</v>
   <i type="logical" name="LTCTC"> F  </i>
   <i type="logical" name="LTCTE"> F  </i>
   <i type="logical" name="LTETE"> F  </i>
   <i type="logical" name="LTRIPLET"> F  </i>
   <i type="logical" name="LFXCEPS"> F  </i>
   <i type="logical" name="LFXHEG"> F  </i>
   <i type="int" name="NATURALO">     2</i>
   <i type="logical" name="LHOLEGF"> F  </i>
   <i type="logical" name="L2ORDER"> F  </i>
   <i type="logical" name="LDMP1"> F  </i>
   <i type="logical" name="LMP2LT"> F  </i>
   <i type="logical" name="LSMP2LT"> F  </i>
   <i type="logical" name="LGWLF"> F  </i>
   <i name="ENCUTGW">     -2.00000000</i>
   <i name="ENCUTGWSOFT">     -2.00000000</i>
   <i name="ENCUTLF">     -1.00000000</i>
   <i type="logical" name="LESF_SPLINES"> F  </i>
   <i type="int" name="LMAXMP2">    -1</i>
   <i name="SCISSOR">      0.00000000</i>
   <i type="int" name="NOMEGA">     0</i>
   <i type="int" name="NOMEGAR">     0</i>
   <i type="int" name="NBANDSGW">    -1</i>
   <i type="int" name="NBANDSO">    -1</i>
   <i type="int" name="NBANDSV">    -1</i>
   <i type="int" name="NELMGW">     1</i>
   <i type="int" name="NELMHF">     1</i>
   <i type="int" name="DIM">     3</i>
   <i type="int" name="IESPILON">     4</i>
   <i type="int" name="ANTIRES">     0</i>
   <i name="OMEGAMAX">    -30.00000000</i>
   <i name="OMEGAMIN">    -30.00000000</i>
   <i name="OMEGATL">   -200.00000000</i>
   <i type="int" name="OMEGAGRID">     0</i>
   <i name="CSHIFT">     -0.10000000</i>
   <i type="logical" name="LSELFENERGY"> F  </i>
   <i type="logical" name="LSPECTRAL"> F  </i>
   <i type="logical" name="LSPECTRALGW"> F  </i>
   <i type="logical" name="LSINGLES"> F  </i>
   <i type="logical" name="LFERMIGW"> F  </i>
   <i type="logical" name="ODDONLYGW"> F  </i>
   <i type="logical" name="EVENONLYGW"> F  </i>
   <i type="int" name="NKREDLFX">     1</i>
   <i type="int" name="NKREDLFY">     1</i>
   <i type="int" name="NKREDLFZ">     1</i>
   <i type="int" name="MAXMEM">  2800</i>
   <i type="int" name="TELESCOPE">     0</i>
   <i type="int" name="NTAUPAR">    -1</i>
   <i type="int" name="NOMEGAPAR">    -1</i>
   <i name="DAMP_NEWTON">      0.80000001</i>
   <i name="LAMBDA">      1.00000000</i>
  </separator>
  <separator name="External order field" >
   <i name="OFIELD_KAPPA">      0.00000000</i>
   <v name="OFIELD_K">      0.00000000      0.00000000      0.00000000</v>
   <i name="OFIELD_Q6_NEAR">      0.00000000</i>
   <i name="OFIELD_Q6_FAR">      0.00000000</i>
   <i name="OFIELD_A">      0.00000000</i>
  </separator>
  <separator name="optional k-points parameters" >
   <i type="int" name="KPOINTS_OPT_MODE">     1</i>
   <i type="logical" name="LKPOINTS_OPT"> F  </i>
  </separator>
 </parameters>
 <atominfo>
  <atoms>       2 </atoms>
  <types>       1 </types>
  <array name="atoms" >
   <dimension dim="1">ion</dimension>
   <field type="string">element</field>
   <field type="int">atomtype</field>
   <set>
    <rc><c>Si</c><c>   1</c></rc>
    <rc><c>Si</c><c>   1</c></rc>
   </set>
  </array>
  <array name="atomtypes" >
   <dimension dim="1">type</dimension>
   <field type="int">atomspertype</field>
   <field type="string">element</field>
   <field>mass</field>
   <field>valence</field>
   <field type="string">pseudopotential</field>
   <set>
    <rc><c>   2</c><c>Si</c><c>     28.08500000</c><c>      4.00000000</c><c>  PAW_PBE Si 05Jan2001                  </c></rc>
   </set>
  </array>
 </atominfo>
 <structure name="initialpos" >
  <crystal>
   <varray name="basis" >
    <v>       3.33357300       0.00000000       1.92463900 </v>
    <v>       1.11119100       3.14292400       1.92463900 </v>
    <v>       0.00000000       0.00000000       3.84927800 </v>
   </varray>
   <i name="volume">     40.32952685 </i>
   <varray name="rec_basis" >
    <v>       0.29997843      -0.10605835       0.00000000 </v>
    <v>       0.00000000       0.31817505       0.00000000 </v>
    <v>      -0.14998922      -0.10605835       0.25978898 </v>
   </varray>
  </crystal>
  <varray name="positions" >
   <v>       0.87500000       0.87500000       0.87500000 </v>
   <v>       0.12500000       0.12500000       0.12500000 </v>
  </varray>
 </structure>
 <calculation>
  <scstep>
   <time name="total">   43.48   43.50</time>
   <energy>
    <i name="alphaZ">      3.33880741 </i>
    <i name="ewald">   -227.98820643 </i>
    <i name="hartreedc">    -11.11484531 </i>
    <i name="XCdc">    -17.48252866 </i>
    <i name="pawpsdc">    174.95707044 </i>
    <i name="pawaedc">   -140.38057629 </i>
    <i name="eentropy">      0.00005376 </i>
    <i name="bandstr">      2.77471785 </i>
    <i name="atom">    205.15160006 </i>
    <i name="e_fr_energy">    -10.74390716 </i>
    <i name="e_wo_entrp">    -10.74396093 </i>
    <i name="e_0_energy">    -10.74392060 </i>
   </energy>
  </scstep>
  <scstep>
   <time name="total">   58.47   58.51</time>
   <energy>
    <i name="e_fr_energy">    -11.71213625 </i>
    <i name="e_wo_entrp">    -11.71264274 </i>
    <i name="e_0_energy">    -11.71226287 </i>
   </energy>
  </scstep>
  <scstep>
   <time name="total">   25.68   25.71</time>
   <energy>
    <i name="e_fr_energy">    -11.71215936 </i>
    <i name="e_wo_entrp">    -11.71266584 </i>
    <i name="e_0_energy">    -11.71228598 </i>
   </energy>
  </scstep>
  <scstep>
   <time name="total">   92.06   92.10</time>
   <energy>
    <i name="e_fr_energy">    -11.71215936 </i>
    <i name="e_wo_entrp">    -11.71266584 </i>
    <i name="e_0_energy">    -11.71228598 </i>
   </energy>
  </scstep>
  <scstep>
   <time name="total">   26.31   26.33</time>
   <energy>
    <i name="e_fr_energy">    -11.71215936 </i>
    <i name="e_wo_entrp">    -11.71266584 </i>
    <i name="e_0_energy">    -11.71228598 </i>
   </energy>
  </scstep>
  <scstep>
   <time name="total">    7.09    7.64</time>
   <energy>
    <i name="e_fr_energy">    -11.42930246 </i>
    <i name="e_wo_entrp">    -11.42931817 </i>
    <i name="e_0_energy">    -11.42930638 </i>
   </energy>
  </scstep>
  <scstep>
   <time name="total">    6.61    6.61</time>
   <energy>
    <i name="e_fr_energy">    -11.49267959 </i>
    <i name="e_wo_entrp">    -11.49269451 </i>
    <i name="e_0_energy">    -11.49268332 </i>
   </energy>
  </scstep>
  <scstep>
   <time name="total">    7.42    7.52</time>
   <energy>
    <i name="e_fr_energy">    -11.49305932 </i>
    <i name="e_wo_entrp">    -11.49307376 </i>
    <i name="e_0_energy">    -11.49306293 </i>
   </energy>
  </scstep>
  <scstep>
   <time name="total">    6.80    6.85</time>
   <energy>
    <i name="e_fr_energy">    -11.49311103 </i>
    <i name="e_wo_entrp">    -11.49312543 </i>
    <i name="e_0_energy">    -11.49311463 </i>
   </energy>
  </scstep>
  <scstep>
   <time name="total">    8.59    8.85</time>
   <energy>
    <i name="alphaZ">      3.33880741 </i>
    <i name="ewald">   -227.98820643 </i>
    <i name="hartreedc">    -14.69646865 </i>
    <i name="XCdc">    -16.88044538 </i>
    <i name="pawpsdc">    855.68240969 </i>
    <i name="pawaedc">   -821.31516482 </i>
    <i name="eentropy">      0.00001439 </i>
    <i name="bandstr">      5.21434084 </i>
    <i name="atom">    205.15160006 </i>
    <i name="e_fr_energy">    -11.49311289 </i>
    <i name="e_wo_entrp">    -11.49312727 </i>
    <i name="e_0_energy">    -11.49311648 </i>
   </energy>
  </scstep>
  <structure>
   <crystal>
    <varray name="basis" >
     <v>       3.33357300       0.00000000       1.92463900 </v>
     <v>       1.11119100       3.14292400       1.92463900 </v>
     <v>       0.00000000       0.00000000       3.84927800 </v>
    </varray>
    <i name="volume">     40.32952685 </i>
    <varray name="rec_basis" >
     <v>       0.29997843      -0.10605835       0.00000000 </v>
     <v>       0.00000000       0.31817505       0.00000000 </v>
     <v>      -0.14998922      -0.10605835       0.25978898 </v>
    </varray>
   </crystal>
   <varray name="positions" >
    <v>       0.87500000       0.87500000       0.87500000 </v>
    <v>       0.12500000       0.12500000       0.12500000 </v>
   </varray>
  </structure>
  <varray name="forces" >
   <v>       0.00000000       0.00000000       0.00000000 </v>
   <v>      -0.00000000      -0.00000000      -0.00000000 </v>
  </varray>
  <varray name="stress" >
   <v>      -3.53511484       0.00000000       0.00000000 </v>
   <v>       0.00000000      -3.53511762       0.00000000 </v>
   <v>       0.00000000       0.00000000      -3.53511385 </v>
  </varray>
  <energy>
   <i name="e_fr_energy">    -11.49311289 </i>
   <i name="e_wo_entrp">    -11.49312727 </i>
   <i name="e_0_energy">    -11.49311648 </i>
  </energy>
  <time name="totalsc">  286.47  289.63</time>
  <eigenvalues>
   <array>
    <dimension dim="1">band</dimension>
    <dimension dim="2">kpoint</dimension>
    <dimension dim="3">spin</dimension>
    <field>eigene</field>
    <field>occ</field>
    <set>
     <set comment="spin 1">
      <set comment="kpoint 1">
       <r>   -6.2233    1.0000 </r>
       <r>    5.7180    0.9962 </r>
       <r>    5.7180    0.9962 </r>
       <r>    5.7180    0.9962 </r>
       <r>    8.2323    0.0000 </r>
       <r>    8.2323    0.0000 </r>
       <r>    8.2323    0.0000 </r>
       <r>    8.9599    0.0000 </r>
       <r>   13.3990    0.0000 </r>
       <r>   13.4022    0.0000 </r>
       <r>   13.4022    0.0000 </r>
       <r>   16.7908    0.0000 </r>
       <r>   16.7908    0.0000 </r>
       <r>   16.7908    0.0000 </r>
       <r>   20.7578    0.0000 </r>
       <r>   28.6323    0.0000 </r>
       <r>   28.6323    0.0000 </r>
       <r>   28.6324    0.0000 </r>
       <r>   29.7929    0.0000 </r>
       <r>   29.7929    0.0000 </r>
       <r>   31.2824    0.0000 </r>
       <r>   31.2824    0.0000 </r>
       <r>   31.2825    0.0000 </r>
       <r>   34.8147    0.0000 </r>
       <r>   34.8147    0.0000 </r>
       <r>   34.8148    0.0000 </r>
       <r>   40.3570    0.0000 </r>
       <r>   40.3570    0.0000 </r>
       <r>   40.3570    0.0000 </r>
       <r>   43.6435    0.0000 </r>
       <r>   44.1522    0.0000 </r>
       <r>   44.1522    0.0000 </r>
       <r>   46.0886    0.0000 </r>
       <r>   46.0886    0.0000 </r>
       <r>   47.6394    0.0000 </r>
       <r>   47.6395    0.0000 </r>
       <r>   47.6395    0.0000 </r>
       <r>   49.3991    0.0000 </r>
       <r>   49.3991    0.0000 </r>
       <r>   49.3991    0.0000 </r>
       <r>   49.9363    0.0000 </r>
       <r>   50.3969    0.0000 </r>
       <r>   50.3969    0.0000 </r>
       <r>   50.3969    0.0000 </r>
       <r>   50.5037    0.0000 </r>
       <r>   50.5037    0.0000 </r>
       <r>   50.5037    0.0000 </r>
       <r>   51.8684    0.0000 </r>
       <r>   51.8684    0.0000 </r>
       <r>   51.8684    0.0000 </r>
       <r>   55.6899    0.0000 </r>
       <r>   56.8807    0.0000 </r>
       <r>   56.8808    0.0000 </r>
       <r>   56.8808    0.0000 </r>
       <r>   57.1066    0.0000 </r>
       <r>   57.1066    0.0000 </r>
       <r>   57.1066    0.0000 </r>
       <r>   62.0166    0.0000 </r>
       <r>   63.1137    0.0000 </r>
       <r>   71.7799    0.0000 </r>
       <r>   71.7799    0.0000 </r>
       <r>   74.8254    0.0000 </r>
       <r>   74.8255    0.0000 </r>
       <r>   74.8255    0.0000 </r>
       <r>   77.4460    0.0000 </r>
       <r>   77.4460    0.0000 </r>
       <r>   77.6883    0.0000 </r>
       <r>   77.6883    0.0000 </r>
       <r>   77.6883    0.0000 </r>
       <r>   77.9245    0.0000 </r>
       <r>   78.1123    0.0000 </r>
       <r>   78.1124    0.0000 </r>
       <r>   78.1124    0.0000 </r>
       <r>   82.1589    0.0000 </r>
       <r>   82.1589    0.0000 </r>
       <r>   82.1589    0.0000 </r>
       <r>   88.0492    0.0000 </r>
       <r>   88.0492    0.0000 </r>
       <r>   88.0493    0.0000 </r>
       <r>   88.3107    0.0000 </r>
       <r>   88.3107    0.0000 </r>
       <r>   88.8127    0.0000 </r>
       <r>   88.8127    0.0000 </r>
       <r>   88.8127    0.0000 </r>
       <r>   90.0114    0.0000 </r>
       <r>   90.0115    0.0000 </r>
       <r>   90.0115    0.0000 </r>
       <r>   90.3117    0.0000 </r>
       <r>   91.7448    0.0000 </r>
       <r>   91.7448    0.0000 </r>
       <r>   92.2573    0.0000 </r>
       <r>   92.2573    0.0000 </r>
       <r>   92.2573    0.0000 </r>
       <r>   95.4812    0.0000 </r>
       <r>   95.4812    0.0000 </r>
       <r>   95.4812    0.0000 </r>
       <r>   96.4747    0.0000 </r>
       <r>   96.7076    0.0000 </r>
       <r>   96.7076    0.0000 </r>
       <r>   96.7077    0.0000 </r>
       <r>   97.4955    0.0000 </r>
       <r>   97.4955    0.0000 </r>
       <r>   97.4955    0.0000 </r>
       <r>   97.5707    0.0000 </r>
       <r>   97.5707    0.0000 </r>
       <r>   97.5707    0.0000 </r>
       <r>   98.1739    0.0000 </r>
       <r>   99.0774    0.0000 </r>
       <r>   99.0774    0.0000 </r>
       <r>   99.0774    0.0000 </r>
       <r>   99.1948    0.0000 </r>
       <r>   99.1948    0.0000 </r>
       <r>  104.8871    0.0000 </r>
       <r>  106.1704    0.0000 </r>
       <r>  106.1705    0.0000 </r>
       <r>  106.1705    0.0000 </r>
       <r>  108.6786    0.0000 </r>
       <r>  108.6786    0.0000 </r>
       <r>  108.8363    0.0000 </r>
       <r>  109.9578    0.0000 </r>
       <r>  109.9578    0.0000 </r>
       <r>  109.9578    0.0000 </r>
       <r>  113.4798    0.0000 </r>
       <r>  113.4798    0.0000 </r>
       <r>  113.4798    0.0000 </r>
       <r>  113.7885    0.0000 </r>
       <r>  113.7885    0.0000 </r>
       <r>  113.7885    0.0000 </r>
      </set>
      <set comment="kpoint 2">
       <r>   -6.0927    1.0000 </r>
       <r>    4.5621    1.0000 </r>
       <r>    5.5184    0.9994 </r>
       <r>    5.5184    0.9994 </r>
       <r>    8.2209    0.0000 </r>
       <r>    8.5252    0.0000 </r>
       <r>    8.5253    0.0000 </r>
       <r>    9.9006    0.0000 </r>
       <r>   13.0302    0.0000 </r>
       <r>   13.0302    0.0000 </r>
       <r>   13.9486    0.0000 </r>
       <r>   16.3475    0.0000 </r>
       <r>   17.5939    0.0000 </r>
       <r>   17.5939    0.0000 </r>
       <r>   21.6165    0.0000 </r>
       <r>   27.2751    0.0000 </r>
       <r>   27.2751    0.0000 </r>
       <r>   27.3977    0.0000 </r>
       <r>   29.4275    0.0000 </r>
       <r>   29.4275    0.0000 </r>
       <r>   31.7277    0.0000 </r>
       <r>   31.7277    0.0000 </r>
       <r>   32.3264    0.0000 </r>
       <r>   34.9341    0.0000 </r>
       <r>   36.3281    0.0000 </r>
       <r>   36.3281    0.0000 </r>
       <r>   38.6885    0.0000 </r>
       <r>   40.0095    0.0000 </r>
       <r>   40.0095    0.0000 </r>
       <r>   42.9034    0.0000 </r>
       <r>   42.9034    0.0000 </r>
       <r>   44.0895    0.0000 </r>
       <r>   44.6163    0.0000 </r>
       <r>   44.6163    0.0000 </r>
       <r>   47.4385    0.0000 </r>
       <r>   47.4385    0.0000 </r>
       <r>   47.6425    0.0000 </r>
       <r>   48.3237    0.0000 </r>
       <r>   48.7286    0.0000 </r>
       <r>   49.3395    0.0000 </r>
       <r>   49.3395    0.0000 </r>
       <r>   49.9826    0.0000 </r>
       <r>   50.0074    0.0000 </r>
       <r>   50.0074    0.0000 </r>
       <r>   51.6504    0.0000 </r>
       <r>   52.0944    0.0000 </r>
       <r>   52.0944    0.0000 </r>
       <r>   52.6999    0.0000 </r>
       <r>   54.3793    0.0000 </r>
       <r>   54.6566    0.0000 </r>
       <r>   54.6566    0.0000 </r>
       <r>   55.9212    0.0000 </r>
       <r>   55.9212    0.0000 </r>
       <r>   56.4466    0.0000 </r>
       <r>   59.0577    0.0000 </r>
       <r>   59.0578    0.0000 </r>
       <r>   60.1619    0.0000 </r>
       <r>   63.3443    0.0000 </r>
       <r>   64.2690    0.0000 </r>
       <r>   69.5553    0.0000 </r>
       <r>   69.5553    0.0000 </r>
       <r>   72.2727    0.0000 </r>
       <r>   74.4316    0.0000 </r>
       <r>   74.4317    0.0000 </r>
       <r>   75.4812    0.0000 </r>
       <r>   76.2929    0.0000 </r>
       <r>   76.2929    0.0000 </r>
       <r>   77.9270    0.0000 </r>
       <r>   77.9270    0.0000 </r>
       <r>   78.0646    0.0000 </r>
       <r>   78.0646    0.0000 </r>
       <r>   78.9595    0.0000 </r>
       <r>   80.6068    0.0000 </r>
       <r>   81.9688    0.0000 </r>
       <r>   83.9898    0.0000 </r>
       <r>   83.9899    0.0000 </r>
       <r>   84.3365    0.0000 </r>
       <r>   84.3366    0.0000 </r>
       <r>   86.7686    0.0000 </r>
       <r>   87.8609    0.0000 </r>
       <r>   87.8610    0.0000 </r>
       <r>   88.2812    0.0000 </r>
       <r>   89.1473    0.0000 </r>
       <r>   89.1473    0.0000 </r>
       <r>   89.8652    0.0000 </r>
       <r>   89.8652    0.0000 </r>
       <r>   90.0972    0.0000 </r>
       <r>   90.9695    0.0000 </r>
       <r>   91.0023    0.0000 </r>
       <r>   92.2211    0.0000 </r>
       <r>   92.2211    0.0000 </r>
       <r>   92.7103    0.0000 </r>
       <r>   93.7051    0.0000 </r>
       <r>   93.7051    0.0000 </r>
       <r>   93.9030    0.0000 </r>
       <r>   93.9030    0.0000 </r>
       <r>   94.5417    0.0000 </r>
       <r>   95.4020    0.0000 </r>
       <r>   95.4020    0.0000 </r>
       <r>   96.2890    0.0000 </r>
       <r>   97.6601    0.0000 </r>
       <r>   97.8538    0.0000 </r>
       <r>   97.8538    0.0000 </r>
       <r>   99.0592    0.0000 </r>
       <r>   99.0592    0.0000 </r>
       <r>   99.5993    0.0000 </r>
       <r>  100.7800    0.0000 </r>
       <r>  100.7800    0.0000 </r>
       <r>  101.3870    0.0000 </r>
       <r>  101.7672    0.0000 </r>
       <r>  103.4184    0.0000 </r>
       <r>  104.6235    0.0000 </r>
       <r>  104.6235    0.0000 </r>
       <r>  104.8851    0.0000 </r>
       <r>  104.8852    0.0000 </r>
       <r>  105.1115    0.0000 </r>
       <r>  105.1115    0.0000 </r>
       <r>  106.3011    0.0000 </r>
       <r>  108.9126    0.0000 </r>
       <r>  109.4426    0.0000 </r>
       <r>  109.4426    0.0000 </r>
       <r>  110.1814    0.0000 </r>
       <r>  110.9856    0.0000 </r>
       <r>  110.9856    0.0000 </r>
       <r>  112.1301    0.0000 </r>
       <r>  113.1234    0.0000 </r>
       <r>  113.4098    0.0000 </r>
       <r>  113.4099    0.0000 </r>
      </set>
      <set comment="kpoint 3">
       <r>   -5.7070    1.0000 </r>
       <r>    2.6967    1.0000 </r>
       <r>    5.1371    1.0000 </r>
       <r>    5.1371    1.0000 </r>
       <r>    7.8498    0.0000 </r>
       <r>    9.0311    0.0000 </r>
       <r>    9.0311    0.0000 </r>
       <r>   11.6533    0.0000 </r>
       <r>   12.7027    0.0000 </r>
       <r>   12.7027    0.0000 </r>
       <r>   14.6273    0.0000 </r>
       <r>   16.4546    0.0000 </r>
       <r>   19.3178    0.0000 </r>
       <r>   19.3178    0.0000 </r>
       <r>   23.3161    0.0000 </r>
       <r>   24.6327    0.0000 </r>
       <r>   24.6327    0.0000 </r>
       <r>   25.5649    0.0000 </r>
       <r>   29.5203    0.0000 </r>
       <r>   29.5204    0.0000 </r>
       <r>   32.0495    0.0000 </r>
       <r>   32.0495    0.0000 </r>
       <r>   33.6936    0.0000 </r>
       <r>   35.2789    0.0000 </r>
       <r>   35.6756    0.0000 </r>
       <r>   38.3272    0.0000 </r>
       <r>   38.3272    0.0000 </r>
       <r>   39.2974    0.0000 </r>
       <r>   39.2975    0.0000 </r>
       <r>   40.2271    0.0000 </r>
       <r>   40.2271    0.0000 </r>
       <r>   43.3259    0.0000 </r>
       <r>   43.3259    0.0000 </r>
       <r>   44.3515    0.0000 </r>
       <r>   45.4927    0.0000 </r>
       <r>   45.9355    0.0000 </r>
       <r>   46.9045    0.0000 </r>
       <r>   46.9045    0.0000 </r>
       <r>   49.1958    0.0000 </r>
       <r>   49.4144    0.0000 </r>
       <r>   49.4144    0.0000 </r>
       <r>   49.4389    0.0000 </r>
       <r>   50.1229    0.0000 </r>
       <r>   51.5144    0.0000 </r>
       <r>   51.5144    0.0000 </r>
       <r>   54.6824    0.0000 </r>
       <r>   54.6824    0.0000 </r>
       <r>   54.7117    0.0000 </r>
       <r>   54.8842    0.0000 </r>
       <r>   54.8842    0.0000 </r>
       <r>   57.2793    0.0000 </r>
       <r>   57.7723    0.0000 </r>
       <r>   60.0319    0.0000 </r>
       <r>   60.0319    0.0000 </r>
       <r>   61.5837    0.0000 </r>
       <r>   61.5837    0.0000 </r>
       <r>   62.0413    0.0000 </r>
       <r>   65.0475    0.0000 </r>
       <r>   66.5467    0.0000 </r>
       <r>   66.5467    0.0000 </r>
       <r>   68.1046    0.0000 </r>
       <r>   69.4552    0.0000 </r>
       <r>   70.1984    0.0000 </r>
       <r>   70.1984    0.0000 </r>
       <r>   72.8332    0.0000 </r>
       <r>   73.8476    0.0000 </r>
       <r>   73.8476    0.0000 </r>
       <r>   76.8359    0.0000 </r>
       <r>   76.8360    0.0000 </r>
       <r>   78.3440    0.0000 </r>
       <r>   80.9019    0.0000 </r>
       <r>   80.9019    0.0000 </r>
       <r>   81.2645    0.0000 </r>
       <r>   82.6033    0.0000 </r>
       <r>   82.6033    0.0000 </r>
       <r>   82.7235    0.0000 </r>
       <r>   83.1883    0.0000 </r>
       <r>   83.1883    0.0000 </r>
       <r>   85.1108    0.0000 </r>
       <r>   85.9324    0.0000 </r>
       <r>   86.3886    0.0000 </r>
       <r>   86.3886    0.0000 </r>
       <r>   87.5057    0.0000 </r>
       <r>   87.5057    0.0000 </r>
       <r>   88.4967    0.0000 </r>
       <r>   88.8905    0.0000 </r>
       <r>   90.1092    0.0000 </r>
       <r>   90.1092    0.0000 </r>
       <r>   90.5881    0.0000 </r>
       <r>   90.5881    0.0000 </r>
       <r>   90.8231    0.0000 </r>
       <r>   93.2820    0.0000 </r>
       <r>   94.4369    0.0000 </r>
       <r>   94.4369    0.0000 </r>
       <r>   95.1297    0.0000 </r>
       <r>   95.5480    0.0000 </r>
       <r>   95.6581    0.0000 </r>
       <r>   95.6582    0.0000 </r>
       <r>   97.6211    0.0000 </r>
       <r>   97.6211    0.0000 </r>
       <r>   97.7350    0.0000 </r>
       <r>   98.7544    0.0000 </r>
       <r>   98.7544    0.0000 </r>
       <r>  100.2840    0.0000 </r>
       <r>  100.2840    0.0000 </r>
       <r>  100.6251    0.0000 </r>
       <r>  101.4844    0.0000 </r>
       <r>  101.4844    0.0000 </r>
       <r>  101.7564    0.0000 </r>
       <r>  102.6429    0.0000 </r>
       <r>  102.6430    0.0000 </r>
       <r>  104.7347    0.0000 </r>
       <r>  106.2961    0.0000 </r>
       <r>  106.2962    0.0000 </r>
       <r>  106.7250    0.0000 </r>
       <r>  106.9688    0.0000 </r>
       <r>  106.9688    0.0000 </r>
       <r>  107.6668    0.0000 </r>
       <r>  109.7599    0.0000 </r>
       <r>  109.8001    0.0000 </r>
       <r>  110.7297    0.0000 </r>
       <r>  110.7297    0.0000 </r>
       <r>  111.2016    0.0000 </r>
       <r>  111.6474    0.0000 </r>
       <r>  111.6475    0.0000 </r>
       <r>  112.6470    0.0000 </r>
       <r>  113.6161    0.0000 </r>
       <r>  113.6161    0.0000 </r>
      </set>
      <set comment="kpoint 4">
       <r>   -5.0924    1.0000 </r>
       <r>    0.9117    1.0000 </r>
       <r>    4.8032    1.0000 </r>
       <r>    4.8032    1.0000 </r>
       <r>    7.4820    0.0000 </r>
       <r>    9.1945    0.0000 </r>
       <r>    9.1945    0.0000 </r>
       <r>   13.1999    0.0000 </r>
       <r>   13.2438    0.0000 </r>
       <r>   13.2438    0.0000 </r>
       <r>   14.4097    0.0000 </r>
       <r>   18.4273    0.0000 </r>
       <r>   20.6319    0.0000 </r>
       <r>   20.6319    0.0000 </r>
       <r>   22.8311    0.0000 </r>
       <r>   22.8516    0.0000 </r>
       <r>   22.8516    0.0000 </r>
       <r>   26.4715    0.0000 </r>
       <r>   29.6408    0.0000 </r>
       <r>   29.6408    0.0000 </r>
       <r>   31.8723    0.0000 </r>
       <r>   32.2975    0.0000 </r>
       <r>   32.2975    0.0000 </r>
       <r>   35.2079    0.0000 </r>
       <r>   35.7963    0.0000 </r>
       <r>   35.8528    0.0000 </r>
       <r>   35.8528    0.0000 </r>
       <r>   38.5211    0.0000 </r>
       <r>   38.5211    0.0000 </r>
       <r>   39.6738    0.0000 </r>
       <r>   39.6738    0.0000 </r>
       <r>   42.1284    0.0000 </r>
       <r>   43.7761    0.0000 </r>
       <r>   43.9397    0.0000 </r>
       <r>   44.9511    0.0000 </r>
       <r>   44.9511    0.0000 </r>
       <r>   46.5996    0.0000 </r>
       <r>   46.5996    0.0000 </r>
       <r>   48.6253    0.0000 </r>
       <r>   49.3069    0.0000 </r>
       <r>   49.3069    0.0000 </r>
       <r>   49.5735    0.0000 </r>
       <r>   50.7889    0.0000 </r>
       <r>   53.3724    0.0000 </r>
       <r>   53.3724    0.0000 </r>
       <r>   55.4784    0.0000 </r>
       <r>   55.4784    0.0000 </r>
       <r>   57.2414    0.0000 </r>
       <r>   57.8891    0.0000 </r>
       <r>   57.8892    0.0000 </r>
       <r>   58.9742    0.0000 </r>
       <r>   61.4957    0.0000 </r>
       <r>   63.1390    0.0000 </r>
       <r>   63.1390    0.0000 </r>
       <r>   63.8826    0.0000 </r>
       <r>   64.4052    0.0000 </r>
       <r>   64.4052    0.0000 </r>
       <r>   65.5014    0.0000 </r>
       <r>   65.5014    0.0000 </r>
       <r>   65.7060    0.0000 </r>
       <r>   66.3996    0.0000 </r>
       <r>   66.3997    0.0000 </r>
       <r>   66.6328    0.0000 </r>
       <r>   70.3980    0.0000 </r>
       <r>   70.3980    0.0000 </r>
       <r>   70.9910    0.0000 </r>
       <r>   73.5862    0.0000 </r>
       <r>   74.1440    0.0000 </r>
       <r>   74.1440    0.0000 </r>
       <r>   77.1273    0.0000 </r>
       <r>   78.7378    0.0000 </r>
       <r>   79.8460    0.0000 </r>
       <r>   80.1002    0.0000 </r>
       <r>   80.1002    0.0000 </r>
       <r>   80.4592    0.0000 </r>
       <r>   80.4592    0.0000 </r>
       <r>   82.9673    0.0000 </r>
       <r>   83.4261    0.0000 </r>
       <r>   83.4262    0.0000 </r>
       <r>   84.3463    0.0000 </r>
       <r>   85.8257    0.0000 </r>
       <r>   85.8257    0.0000 </r>
       <r>   87.5956    0.0000 </r>
       <r>   87.5956    0.0000 </r>
       <r>   89.2335    0.0000 </r>
       <r>   89.4905    0.0000 </r>
       <r>   89.7459    0.0000 </r>
       <r>   89.7459    0.0000 </r>
       <r>   90.4254    0.0000 </r>
       <r>   90.6940    0.0000 </r>
       <r>   90.6940    0.0000 </r>
       <r>   92.8415    0.0000 </r>
       <r>   92.8415    0.0000 </r>
       <r>   93.0725    0.0000 </r>
       <r>   94.6716    0.0000 </r>
       <r>   94.6717    0.0000 </r>
       <r>   95.1456    0.0000 </r>
       <r>   95.4974    0.0000 </r>
       <r>   98.8363    0.0000 </r>
       <r>   98.8364    0.0000 </r>
       <r>   99.4636    0.0000 </r>
       <r>   99.7347    0.0000 </r>
       <r>   99.7347    0.0000 </r>
       <r>  101.5145    0.0000 </r>
       <r>  101.5145    0.0000 </r>
       <r>  102.4566    0.0000 </r>
       <r>  102.4567    0.0000 </r>
       <r>  103.3934    0.0000 </r>
       <r>  103.4419    0.0000 </r>
       <r>  104.4754    0.0000 </r>
       <r>  104.4981    0.0000 </r>
       <r>  104.5023    0.0000 </r>
       <r>  104.5023    0.0000 </r>
       <r>  107.0410    0.0000 </r>
       <r>  107.0899    0.0000 </r>
       <r>  107.0900    0.0000 </r>
       <r>  107.6833    0.0000 </r>
       <r>  108.9744    0.0000 </r>
       <r>  108.9744    0.0000 </r>
       <r>  110.6054    0.0000 </r>
       <r>  111.7518    0.0000 </r>
       <r>  111.7519    0.0000 </r>
       <r>  112.5563    0.0000 </r>
       <r>  113.3950    0.0000 </r>
       <r>  113.3950    0.0000 </r>
       <r>  113.5044    0.0000 </r>
       <r>  113.5044    0.0000 </r>
       <r>  114.1056    0.0000 </r>
      </set>
      <set comment="kpoint 5">
       <r>   -4.3451    1.0000 </r>
       <r>   -0.5639    1.0000 </r>
       <r>    4.5919    1.0000 </r>
       <r>    4.5920    1.0000 </r>
       <r>    7.2405    0.0000 </r>
       <r>    9.0715    0.0000 </r>
       <r>    9.0715    0.0000 </r>
       <r>   13.3420    0.0000 </r>
       <r>   14.6328    0.0000 </r>
       <r>   14.6328    0.0000 </r>
       <r>   15.6335    0.0000 </r>
       <r>   18.8239    0.0000 </r>
       <r>   18.8239    0.0000 </r>
       <r>   19.5288    0.0000 </r>
       <r>   22.5210    0.0000 </r>
       <r>   24.6953    0.0000 </r>
       <r>   24.6953    0.0000 </r>
       <r>   28.3935    0.0000 </r>
       <r>   29.2029    0.0000 </r>
       <r>   29.2029    0.0000 </r>
       <r>   29.2149    0.0000 </r>
       <r>   32.3017    0.0000 </r>
       <r>   32.3017    0.0000 </r>
       <r>   33.4487    0.0000 </r>
       <r>   33.4487    0.0000 </r>
       <r>   35.0863    0.0000 </r>
       <r>   36.3424    0.0000 </r>
       <r>   37.9513    0.0000 </r>
       <r>   37.9513    0.0000 </r>
       <r>   38.8197    0.0000 </r>
       <r>   38.8197    0.0000 </r>
       <r>   39.7625    0.0000 </r>
       <r>   42.5030    0.0000 </r>
       <r>   42.7285    0.0000 </r>
       <r>   46.2834    0.0000 </r>
       <r>   46.2834    0.0000 </r>
       <r>   47.7135    0.0000 </r>
       <r>   47.7136    0.0000 </r>
       <r>   48.3235    0.0000 </r>
       <r>   49.3613    0.0000 </r>
       <r>   49.9562    0.0000 </r>
       <r>   49.9562    0.0000 </r>
       <r>   52.9754    0.0000 </r>
       <r>   54.4130    0.0000 </r>
       <r>   54.4130    0.0000 </r>
       <r>   57.1515    0.0000 </r>
       <r>   57.1516    0.0000 </r>
       <r>   58.6169    0.0000 </r>
       <r>   59.4886    0.0000 </r>
       <r>   60.3435    0.0000 </r>
       <r>   60.3435    0.0000 </r>
       <r>   61.5214    0.0000 </r>
       <r>   61.5214    0.0000 </r>
       <r>   62.5848    0.0000 </r>
       <r>   62.5848    0.0000 </r>
       <r>   64.3942    0.0000 </r>
       <r>   65.5151    0.0000 </r>
       <r>   66.3966    0.0000 </r>
       <r>   66.4817    0.0000 </r>
       <r>   66.4817    0.0000 </r>
       <r>   66.7947    0.0000 </r>
       <r>   68.5829    0.0000 </r>
       <r>   68.5830    0.0000 </r>
       <r>   70.0474    0.0000 </r>
       <r>   70.0474    0.0000 </r>
       <r>   71.8165    0.0000 </r>
       <r>   71.8165    0.0000 </r>
       <r>   71.9929    0.0000 </r>
       <r>   73.7879    0.0000 </r>
       <r>   74.3634    0.0000 </r>
       <r>   75.2802    0.0000 </r>
       <r>   76.4217    0.0000 </r>
       <r>   76.4217    0.0000 </r>
       <r>   79.4075    0.0000 </r>
       <r>   79.4076    0.0000 </r>
       <r>   79.4598    0.0000 </r>
       <r>   82.2229    0.0000 </r>
       <r>   82.6846    0.0000 </r>
       <r>   82.6846    0.0000 </r>
       <r>   82.6851    0.0000 </r>
       <r>   84.0944    0.0000 </r>
       <r>   84.0944    0.0000 </r>
       <r>   87.0488    0.0000 </r>
       <r>   87.0488    0.0000 </r>
       <r>   89.4600    0.0000 </r>
       <r>   89.8530    0.0000 </r>
       <r>   89.9163    0.0000 </r>
       <r>   89.9163    0.0000 </r>
       <r>   91.1695    0.0000 </r>
       <r>   91.1695    0.0000 </r>
       <r>   92.0979    0.0000 </r>
       <r>   92.9617    0.0000 </r>
       <r>   92.9617    0.0000 </r>
       <r>   93.7395    0.0000 </r>
       <r>   95.6353    0.0000 </r>
       <r>   95.6354    0.0000 </r>
       <r>   95.7071    0.0000 </r>
       <r>   96.2578    0.0000 </r>
       <r>   97.8466    0.0000 </r>
       <r>   97.8977    0.0000 </r>
       <r>   97.8977    0.0000 </r>
       <r>   99.8608    0.0000 </r>
       <r>   99.8608    0.0000 </r>
       <r>  100.9323    0.0000 </r>
       <r>  101.4701    0.0000 </r>
       <r>  102.5619    0.0000 </r>
       <r>  102.5619    0.0000 </r>
       <r>  104.3961    0.0000 </r>
       <r>  104.3961    0.0000 </r>
       <r>  104.7435    0.0000 </r>
       <r>  105.2516    0.0000 </r>
       <r>  105.2516    0.0000 </r>
       <r>  106.4807    0.0000 </r>
       <r>  107.2368    0.0000 </r>
       <r>  107.2900    0.0000 </r>
       <r>  107.2900    0.0000 </r>
       <r>  109.3430    0.0000 </r>
       <r>  109.7256    0.0000 </r>
       <r>  109.7256    0.0000 </r>
       <r>  110.6236    0.0000 </r>
       <r>  112.1077    0.0000 </r>
       <r>  112.2534    0.0000 </r>
       <r>  112.2534    0.0000 </r>
       <r>  112.7236    0.0000 </r>
       <r>  112.7237    0.0000 </r>
       <r>  113.4613    0.0000 </r>
       <r>  114.0393    0.0000 </r>
       <r>  114.3279    0.0000 </r>
      </set>
      <set comment="kpoint 6">
       <r>   -3.8917    1.0000 </r>
       <r>   -1.2634    1.0000 </r>
       <r>    4.5208    1.0000 </r>
       <r>    4.5208    1.0000 </r>
       <r>    7.1579    0.0000 </r>
       <r>    8.9940    0.0000 </r>
       <r>    8.9940    0.0000 </r>
       <r>   13.2223    0.0000 </r>
       <r>   16.2095    0.0000 </r>
       <r>   16.2095    0.0000 </r>
       <r>   16.8789    0.0000 </r>
       <r>   16.9536    0.0000 </r>
       <r>   16.9536    0.0000 </r>
       <r>   18.5545    0.0000 </r>
       <r>   24.9051    0.0000 </r>
       <r>   25.4909    0.0000 </r>
       <r>   27.1607    0.0000 </r>
       <r>   27.1607    0.0000 </r>
       <r>   27.3892    0.0000 </r>
       <r>   27.3892    0.0000 </r>
       <r>   31.1095    0.0000 </r>
       <r>   31.9800    0.0000 </r>
       <r>   31.9800    0.0000 </r>
       <r>   32.9950    0.0000 </r>
       <r>   32.9951    0.0000 </r>
       <r>   33.7368    0.0000 </r>
       <r>   36.6047    0.0000 </r>
       <r>   37.8257    0.0000 </r>
       <r>   37.8258    0.0000 </r>
       <r>   38.3743    0.0000 </r>
       <r>   38.3743    0.0000 </r>
       <r>   39.3611    0.0000 </r>
       <r>   41.9433    0.0000 </r>
       <r>   42.1705    0.0000 </r>
       <r>   46.2727    0.0000 </r>
       <r>   46.2727    0.0000 </r>
       <r>   48.1167    0.0000 </r>
       <r>   48.1168    0.0000 </r>
       <r>   48.2454    0.0000 </r>
       <r>   49.2715    0.0000 </r>
       <r>   52.0666    0.0000 </r>
       <r>   52.0666    0.0000 </r>
       <r>   53.8498    0.0000 </r>
       <r>   53.8499    0.0000 </r>
       <r>   54.6169    0.0000 </r>
       <r>   57.8991    0.0000 </r>
       <r>   58.0675    0.0000 </r>
       <r>   58.0676    0.0000 </r>
       <r>   59.4197    0.0000 </r>
       <r>   59.4197    0.0000 </r>
       <r>   59.4993    0.0000 </r>
       <r>   61.3136    0.0000 </r>
       <r>   61.3136    0.0000 </r>
       <r>   63.8382    0.0000 </r>
       <r>   63.8382    0.0000 </r>
       <r>   64.6052    0.0000 </r>
       <r>   65.0229    0.0000 </r>
       <r>   65.0229    0.0000 </r>
       <r>   66.6699    0.0000 </r>
       <r>   67.8177    0.0000 </r>
       <r>   67.8177    0.0000 </r>
       <r>   68.1997    0.0000 </r>
       <r>   69.4622    0.0000 </r>
       <r>   70.2057    0.0000 </r>
       <r>   71.4573    0.0000 </r>
       <r>   71.4573    0.0000 </r>
       <r>   72.5757    0.0000 </r>
       <r>   72.9403    0.0000 </r>
       <r>   72.9403    0.0000 </r>
       <r>   73.1825    0.0000 </r>
       <r>   74.8163    0.0000 </r>
       <r>   76.6066    0.0000 </r>
       <r>   77.1325    0.0000 </r>
       <r>   77.1325    0.0000 </r>
       <r>   77.5056    0.0000 </r>
       <r>   77.5056    0.0000 </r>
       <r>   79.8400    0.0000 </r>
       <r>   79.8401    0.0000 </r>
       <r>   82.0619    0.0000 </r>
       <r>   82.7896    0.0000 </r>
       <r>   82.7896    0.0000 </r>
       <r>   86.7015    0.0000 </r>
       <r>   87.2580    0.0000 </r>
       <r>   87.2580    0.0000 </r>
       <r>   88.2279    0.0000 </r>
       <r>   89.8054    0.0000 </r>
       <r>   89.8055    0.0000 </r>
       <r>   89.9549    0.0000 </r>
       <r>   91.0840    0.0000 </r>
       <r>   92.4826    0.0000 </r>
       <r>   92.4826    0.0000 </r>
       <r>   94.9198    0.0000 </r>
       <r>   95.0802    0.0000 </r>
       <r>   95.0802    0.0000 </r>
       <r>   95.2145    0.0000 </r>
       <r>   95.2145    0.0000 </r>
       <r>   95.5705    0.0000 </r>
       <r>   97.1159    0.0000 </r>
       <r>   97.5099    0.0000 </r>
       <r>   98.2021    0.0000 </r>
       <r>   98.2022    0.0000 </r>
       <r>   99.1479    0.0000 </r>
       <r>   99.1479    0.0000 </r>
       <r>   99.3142    0.0000 </r>
       <r>   99.4772    0.0000 </r>
       <r>   99.5763    0.0000 </r>
       <r>   99.5764    0.0000 </r>
       <r>  105.1260    0.0000 </r>
       <r>  105.4758    0.0000 </r>
       <r>  105.4758    0.0000 </r>
       <r>  107.2976    0.0000 </r>
       <r>  107.7100    0.0000 </r>
       <r>  107.7100    0.0000 </r>
       <r>  108.1605    0.0000 </r>
       <r>  108.6217    0.0000 </r>
       <r>  108.6217    0.0000 </r>
       <r>  109.8713    0.0000 </r>
       <r>  109.8713    0.0000 </r>
       <r>  110.1834    0.0000 </r>
       <r>  110.7584    0.0000 </r>
       <r>  111.1344    0.0000 </r>
       <r>  111.1344    0.0000 </r>
       <r>  112.3142    0.0000 </r>
       <r>  112.3142    0.0000 </r>
       <r>  112.3930    0.0000 </r>
       <r>  113.0774    0.0000 </r>
       <r>  113.5354    0.0000 </r>
       <r>  113.5354    0.0000 </r>
      </set>
      <set comment="kpoint 7">
       <r>   -6.0488    1.0000 </r>
       <r>    4.7704    1.0000 </r>
       <r>    5.1371    1.0000 </r>
       <r>    5.1371    1.0000 </r>
       <r>    7.8382    0.0000 </r>
       <r>    9.0256    0.0000 </r>
       <r>    9.0256    0.0000 </r>
       <r>    9.7972    0.0000 </r>
       <r>   12.3878    0.0000 </r>
       <r>   13.5951    0.0000 </r>
       <r>   14.1350    0.0000 </r>
       <r>   17.0961    0.0000 </r>
       <r>   17.0961    0.0000 </r>
       <r>   17.4882    0.0000 </r>
       <r>   21.9991    0.0000 </r>
       <r>   26.8096    0.0000 </r>
       <r>   26.8096    0.0000 </r>
       <r>   28.1046    0.0000 </r>
       <r>   28.6690    0.0000 </r>
       <r>   28.8555    0.0000 </r>
       <r>   31.9024    0.0000 </r>
       <r>   32.1978    0.0000 </r>
       <r>   32.1978    0.0000 </r>
       <r>   36.1073    0.0000 </r>
       <r>   36.1073    0.0000 </r>
       <r>   36.5881    0.0000 </r>
       <r>   39.1897    0.0000 </r>
       <r>   39.1898    0.0000 </r>
       <r>   39.2423    0.0000 </r>
       <r>   41.8254    0.0000 </r>
       <r>   43.2879    0.0000 </r>
       <r>   43.7528    0.0000 </r>
       <r>   44.7800    0.0000 </r>
       <r>   45.9129    0.0000 </r>
       <r>   46.8184    0.0000 </r>
       <r>   46.8184    0.0000 </r>
       <r>   47.3893    0.0000 </r>
       <r>   47.8340    0.0000 </r>
       <r>   47.8340    0.0000 </r>
       <r>   48.9161    0.0000 </r>
       <r>   48.9161    0.0000 </r>
       <r>   49.8984    0.0000 </r>
       <r>   51.2797    0.0000 </r>
       <r>   51.8217    0.0000 </r>
       <r>   52.2237    0.0000 </r>
       <r>   52.2237    0.0000 </r>
       <r>   52.7268    0.0000 </r>
       <r>   53.0778    0.0000 </r>
       <r>   54.0455    0.0000 </r>
       <r>   54.0455    0.0000 </r>
       <r>   54.0975    0.0000 </r>
       <r>   55.6959    0.0000 </r>
       <r>   55.6959    0.0000 </r>
       <r>   56.4685    0.0000 </r>
       <r>   59.3538    0.0000 </r>
       <r>   61.0013    0.0000 </r>
       <r>   61.0014    0.0000 </r>
       <r>   63.6253    0.0000 </r>
       <r>   64.1570    0.0000 </r>
       <r>   66.8424    0.0000 </r>
       <r>   71.8981    0.0000 </r>
       <r>   73.3837    0.0000 </r>
       <r>   73.3837    0.0000 </r>
       <r>   74.6354    0.0000 </r>
       <r>   75.5641    0.0000 </r>
       <r>   75.9751    0.0000 </r>
       <r>   75.9751    0.0000 </r>
       <r>   76.3360    0.0000 </r>
       <r>   77.4978    0.0000 </r>
       <r>   77.6068    0.0000 </r>
       <r>   77.6276    0.0000 </r>
       <r>   77.6276    0.0000 </r>
       <r>   82.5461    0.0000 </r>
       <r>   82.7078    0.0000 </r>
       <r>   83.4655    0.0000 </r>
       <r>   83.4655    0.0000 </r>
       <r>   84.0404    0.0000 </r>
       <r>   85.8670    0.0000 </r>
       <r>   86.5322    0.0000 </r>
       <r>   86.5635    0.0000 </r>
       <r>   86.5635    0.0000 </r>
       <r>   88.3555    0.0000 </r>
       <r>   88.3555    0.0000 </r>
       <r>   89.3397    0.0000 </r>
       <r>   89.8138    0.0000 </r>
       <r>   89.8138    0.0000 </r>
       <r>   90.0948    0.0000 </r>
       <r>   90.9743    0.0000 </r>
       <r>   91.3292    0.0000 </r>
       <r>   92.2521    0.0000 </r>
       <r>   92.5699    0.0000 </r>
       <r>   92.5699    0.0000 </r>
       <r>   93.0548    0.0000 </r>
       <r>   93.0548    0.0000 </r>
       <r>   93.8930    0.0000 </r>
       <r>   95.4401    0.0000 </r>
       <r>   95.4401    0.0000 </r>
       <r>   95.6424    0.0000 </r>
       <r>   95.8915    0.0000 </r>
       <r>   96.0282    0.0000 </r>
       <r>   97.7998    0.0000 </r>
       <r>   97.8813    0.0000 </r>
       <r>   98.0849    0.0000 </r>
       <r>   98.4473    0.0000 </r>
       <r>   98.4473    0.0000 </r>
       <r>  101.1537    0.0000 </r>
       <r>  101.1537    0.0000 </r>
       <r>  101.5613    0.0000 </r>
       <r>  102.0625    0.0000 </r>
       <r>  102.1504    0.0000 </r>
       <r>  102.7886    0.0000 </r>
       <r>  102.7886    0.0000 </r>
       <r>  104.4390    0.0000 </r>
       <r>  104.5206    0.0000 </r>
       <r>  104.5206    0.0000 </r>
       <r>  106.7839    0.0000 </r>
       <r>  106.8043    0.0000 </r>
       <r>  106.9818    0.0000 </r>
       <r>  108.7439    0.0000 </r>
       <r>  108.7440    0.0000 </r>
       <r>  109.0691    0.0000 </r>
       <r>  109.3128    0.0000 </r>
       <r>  109.8543    0.0000 </r>
       <r>  109.8544    0.0000 </r>
       <r>  111.5402    0.0000 </r>
       <r>  112.3493    0.0000 </r>
       <r>  114.3512    0.0000 </r>
       <r>  114.3513    0.0000 </r>
      </set>
      <set comment="kpoint 8">
       <r>   -5.7470    1.0000 </r>
       <r>    3.2561    1.0000 </r>
       <r>    4.7015    1.0000 </r>
       <r>    4.8697    1.0000 </r>
       <r>    7.8919    0.0000 </r>
       <r>    9.0622    0.0000 </r>
       <r>    9.6776    0.0000 </r>
       <r>   10.6090    0.0000 </r>
       <r>   12.4054    0.0000 </r>
       <r>   13.5716    0.0000 </r>
       <r>   15.0552    0.0000 </r>
       <r>   16.6838    0.0000 </r>
       <r>   18.1129    0.0000 </r>
       <r>   19.1159    0.0000 </r>
       <r>   23.5269    0.0000 </r>
       <r>   24.4918    0.0000 </r>
       <r>   24.9178    0.0000 </r>
       <r>   27.4971    0.0000 </r>
       <r>   27.7521    0.0000 </r>
       <r>   28.6904    0.0000 </r>
       <r>   31.8590    0.0000 </r>
       <r>   32.5630    0.0000 </r>
       <r>   33.5773    0.0000 </r>
       <r>   36.3995    0.0000 </r>
       <r>   36.5389    0.0000 </r>
       <r>   37.9323    0.0000 </r>
       <r>   37.9517    0.0000 </r>
       <r>   38.8737    0.0000 </r>
       <r>   38.9920    0.0000 </r>
       <r>   39.7743    0.0000 </r>
       <r>   41.7415    0.0000 </r>
       <r>   42.0238    0.0000 </r>
       <r>   44.3501    0.0000 </r>
       <r>   44.8575    0.0000 </r>
       <r>   45.6220    0.0000 </r>
       <r>   45.8298    0.0000 </r>
       <r>   46.9600    0.0000 </r>
       <r>   47.6504    0.0000 </r>
       <r>   48.4611    0.0000 </r>
       <r>   48.8979    0.0000 </r>
       <r>   49.9963    0.0000 </r>
       <r>   50.2515    0.0000 </r>
       <r>   50.2802    0.0000 </r>
       <r>   51.0153    0.0000 </r>
       <r>   52.7029    0.0000 </r>
       <r>   52.8619    0.0000 </r>
       <r>   53.6724    0.0000 </r>
       <r>   54.1388    0.0000 </r>
       <r>   54.7885    0.0000 </r>
       <r>   55.2712    0.0000 </r>
       <r>   57.0553    0.0000 </r>
       <r>   57.5009    0.0000 </r>
       <r>   58.4910    0.0000 </r>
       <r>   59.4546    0.0000 </r>
       <r>   60.5502    0.0000 </r>
       <r>   62.7805    0.0000 </r>
       <r>   63.4605    0.0000 </r>
       <r>   63.7101    0.0000 </r>
       <r>   65.4771    0.0000 </r>
       <r>   67.3058    0.0000 </r>
       <r>   69.5066    0.0000 </r>
       <r>   70.3641    0.0000 </r>
       <r>   70.5139    0.0000 </r>
       <r>   72.5363    0.0000 </r>
       <r>   72.9986    0.0000 </r>
       <r>   74.4052    0.0000 </r>
       <r>   75.2853    0.0000 </r>
       <r>   75.6292    0.0000 </r>
       <r>   76.6933    0.0000 </r>
       <r>   77.5616    0.0000 </r>
       <r>   78.2665    0.0000 </r>
       <r>   79.0334    0.0000 </r>
       <r>   80.8919    0.0000 </r>
       <r>   82.0968    0.0000 </r>
       <r>   82.9164    0.0000 </r>
       <r>   83.2054    0.0000 </r>
       <r>   83.8079    0.0000 </r>
       <r>   84.8821    0.0000 </r>
       <r>   85.4921    0.0000 </r>
       <r>   85.4981    0.0000 </r>
       <r>   86.1952    0.0000 </r>
       <r>   86.2624    0.0000 </r>
       <r>   86.9044    0.0000 </r>
       <r>   88.7102    0.0000 </r>
       <r>   89.0033    0.0000 </r>
       <r>   89.2154    0.0000 </r>
       <r>   89.5704    0.0000 </r>
       <r>   90.6073    0.0000 </r>
       <r>   90.8758    0.0000 </r>
       <r>   91.1662    0.0000 </r>
       <r>   92.4114    0.0000 </r>
       <r>   93.3212    0.0000 </r>
       <r>   93.3385    0.0000 </r>
       <r>   94.2755    0.0000 </r>
       <r>   94.5019    0.0000 </r>
       <r>   95.1723    0.0000 </r>
       <r>   95.4848    0.0000 </r>
       <r>   96.4295    0.0000 </r>
       <r>   97.2396    0.0000 </r>
       <r>   97.8686    0.0000 </r>
       <r>   98.2996    0.0000 </r>
       <r>   99.2171    0.0000 </r>
       <r>   99.6196    0.0000 </r>
       <r>  100.0512    0.0000 </r>
       <r>  100.0688    0.0000 </r>
       <r>  100.6003    0.0000 </r>
       <r>  101.0442    0.0000 </r>
       <r>  101.5901    0.0000 </r>
       <r>  101.6544    0.0000 </r>
       <r>  102.6064    0.0000 </r>
       <r>  102.6183    0.0000 </r>
       <r>  104.0076    0.0000 </r>
       <r>  104.2535    0.0000 </r>
       <r>  105.9002    0.0000 </r>
       <r>  106.7246    0.0000 </r>
       <r>  107.0068    0.0000 </r>
       <r>  107.1015    0.0000 </r>
       <r>  107.7290    0.0000 </r>
       <r>  108.2820    0.0000 </r>
       <r>  108.6713    0.0000 </r>
       <r>  109.4352    0.0000 </r>
       <r>  110.5974    0.0000 </r>
       <r>  110.9335    0.0000 </r>
       <r>  111.9861    0.0000 </r>
       <r>  112.2302    0.0000 </r>
       <r>  112.8001    0.0000 </r>
       <r>  113.6708    0.0000 </r>
       <r>  114.1647    0.0000 </r>
      </set>
      <set comment="kpoint 9">
       <r>   -5.2043    1.0000 </r>
       <r>    1.4959    1.0000 </r>
       <r>    4.3836    1.0000 </r>
       <r>    4.4334    1.0000 </r>
       <r>    8.0152    0.0000 </r>
       <r>    9.0423    0.0000 </r>
       <r>    9.9522    0.0000 </r>
       <r>   10.9420    0.0000 </r>
       <r>   13.8801    0.0000 </r>
       <r>   13.9540    0.0000 </r>
       <r>   15.0562    0.0000 </r>
       <r>   17.8550    0.0000 </r>
       <r>   19.6632    0.0000 </r>
       <r>   20.9751    0.0000 </r>
       <r>   22.1344    0.0000 </r>
       <r>   22.8282    0.0000 </r>
       <r>   24.5526    0.0000 </r>
       <r>   26.7010    0.0000 </r>
       <r>   27.9453    0.0000 </r>
       <r>   28.9237    0.0000 </r>
       <r>   31.6838    0.0000 </r>
       <r>   32.6425    0.0000 </r>
       <r>   32.8699    0.0000 </r>
       <r>   35.4494    0.0000 </r>
       <r>   36.3418    0.0000 </r>
       <r>   36.7207    0.0000 </r>
       <r>   36.8078    0.0000 </r>
       <r>   38.2097    0.0000 </r>
       <r>   38.2715    0.0000 </r>
       <r>   39.1478    0.0000 </r>
       <r>   40.7717    0.0000 </r>
       <r>   42.5225    0.0000 </r>
       <r>   43.7306    0.0000 </r>
       <r>   43.8496    0.0000 </r>
       <r>   44.1336    0.0000 </r>
       <r>   45.2217    0.0000 </r>
       <r>   46.1357    0.0000 </r>
       <r>   47.8677    0.0000 </r>
       <r>   48.4115    0.0000 </r>
       <r>   48.9848    0.0000 </r>
       <r>   49.9943    0.0000 </r>
       <r>   50.1609    0.0000 </r>
       <r>   51.3442    0.0000 </r>
       <r>   52.0012    0.0000 </r>
       <r>   53.4474    0.0000 </r>
       <r>   53.7902    0.0000 </r>
       <r>   54.7196    0.0000 </r>
       <r>   55.8549    0.0000 </r>
       <r>   57.3210    0.0000 </r>
       <r>   57.8231    0.0000 </r>
       <r>   59.7591    0.0000 </r>
       <r>   60.9388    0.0000 </r>
       <r>   61.2555    0.0000 </r>
       <r>   61.5648    0.0000 </r>
       <r>   62.5680    0.0000 </r>
       <r>   63.8521    0.0000 </r>
       <r>   65.2327    0.0000 </r>
       <r>   65.4668    0.0000 </r>
       <r>   66.6989    0.0000 </r>
       <r>   66.8000    0.0000 </r>
       <r>   67.2409    0.0000 </r>
       <r>   67.4714    0.0000 </r>
       <r>   68.7758    0.0000 </r>
       <r>   70.0269    0.0000 </r>
       <r>   72.0197    0.0000 </r>
       <r>   72.3258    0.0000 </r>
       <r>   72.4772    0.0000 </r>
       <r>   73.8338    0.0000 </r>
       <r>   74.2591    0.0000 </r>
       <r>   76.8672    0.0000 </r>
       <r>   78.3232    0.0000 </r>
       <r>   79.0027    0.0000 </r>
       <r>   79.8907    0.0000 </r>
       <r>   80.9743    0.0000 </r>
       <r>   81.0713    0.0000 </r>
       <r>   81.7765    0.0000 </r>
       <r>   82.5484    0.0000 </r>
       <r>   83.2308    0.0000 </r>
       <r>   84.1825    0.0000 </r>
       <r>   84.9520    0.0000 </r>
       <r>   85.0111    0.0000 </r>
       <r>   85.6445    0.0000 </r>
       <r>   86.4901    0.0000 </r>
       <r>   86.8647    0.0000 </r>
       <r>   88.0742    0.0000 </r>
       <r>   88.7199    0.0000 </r>
       <r>   89.8600    0.0000 </r>
       <r>   90.4471    0.0000 </r>
       <r>   91.1934    0.0000 </r>
       <r>   92.0772    0.0000 </r>
       <r>   92.4266    0.0000 </r>
       <r>   92.6293    0.0000 </r>
       <r>   93.8072    0.0000 </r>
       <r>   93.8314    0.0000 </r>
       <r>   94.9240    0.0000 </r>
       <r>   95.0578    0.0000 </r>
       <r>   96.0011    0.0000 </r>
       <r>   96.3476    0.0000 </r>
       <r>   96.7964    0.0000 </r>
       <r>   97.7322    0.0000 </r>
       <r>   98.9072    0.0000 </r>
       <r>   99.0725    0.0000 </r>
       <r>   99.4699    0.0000 </r>
       <r>  100.6503    0.0000 </r>
       <r>  100.9533    0.0000 </r>
       <r>  101.6349    0.0000 </r>
       <r>  101.7909    0.0000 </r>
       <r>  102.6192    0.0000 </r>
       <r>  103.0150    0.0000 </r>
       <r>  103.6688    0.0000 </r>
       <r>  104.2636    0.0000 </r>
       <r>  105.7244    0.0000 </r>
       <r>  106.1645    0.0000 </r>
       <r>  106.9885    0.0000 </r>
       <r>  107.4099    0.0000 </r>
       <r>  108.1654    0.0000 </r>
       <r>  108.2858    0.0000 </r>
       <r>  108.4682    0.0000 </r>
       <r>  109.3996    0.0000 </r>
       <r>  109.8825    0.0000 </r>
       <r>  109.9121    0.0000 </r>
       <r>  111.1558    0.0000 </r>
       <r>  111.2233    0.0000 </r>
       <r>  111.8996    0.0000 </r>
       <r>  112.7067    0.0000 </r>
       <r>  113.2625    0.0000 </r>
       <r>  114.0970    0.0000 </r>
       <r>  114.5231    0.0000 </r>
      </set>
      <set comment="kpoint 10">
       <r>   -4.4807    1.0000 </r>
       <r>   -0.0767    1.0000 </r>
       <r>    4.0210    1.0000 </r>
       <r>    4.2377    1.0000 </r>
       <r>    7.8671    0.0000 </r>
       <r>    8.9928    0.0000 </r>
       <r>    9.7665    0.0000 </r>
       <r>   12.0071    0.0000 </r>
       <r>   14.4767    0.0000 </r>
       <r>   15.1864    0.0000 </r>
       <r>   15.8201    0.0000 </r>
       <r>   18.5615    0.0000 </r>
       <r>   18.9869    0.0000 </r>
       <r>   20.8318    0.0000 </r>
       <r>   22.6937    0.0000 </r>
       <r>   23.0574    0.0000 </r>
       <r>   24.5088    0.0000 </r>
       <r>   28.1193    0.0000 </r>
       <r>   28.4207    0.0000 </r>
       <r>   29.2211    0.0000 </r>
       <r>   29.7378    0.0000 </r>
       <r>   30.7869    0.0000 </r>
       <r>   33.1007    0.0000 </r>
       <r>   34.1920    0.0000 </r>
       <r>   34.4207    0.0000 </r>
       <r>   35.9144    0.0000 </r>
       <r>   36.0828    0.0000 </r>
       <r>   37.0965    0.0000 </r>
       <r>   37.7253    0.0000 </r>
       <r>   38.7537    0.0000 </r>
       <r>   39.9008    0.0000 </r>
       <r>   40.8001    0.0000 </r>
       <r>   43.2056    0.0000 </r>
       <r>   43.7128    0.0000 </r>
       <r>   44.2664    0.0000 </r>
       <r>   45.6038    0.0000 </r>
       <r>   47.0965    0.0000 </r>
       <r>   47.9616    0.0000 </r>
       <r>   48.8103    0.0000 </r>
       <r>   49.5134    0.0000 </r>
       <r>   50.3295    0.0000 </r>
       <r>   51.5293    0.0000 </r>
       <r>   52.9686    0.0000 </r>
       <r>   53.0005    0.0000 </r>
       <r>   53.6690    0.0000 </r>
       <r>   55.3667    0.0000 </r>
       <r>   56.2629    0.0000 </r>
       <r>   57.8751    0.0000 </r>
       <r>   58.4602    0.0000 </r>
       <r>   59.9056    0.0000 </r>
       <r>   61.1796    0.0000 </r>
       <r>   61.7240    0.0000 </r>
       <r>   61.7454    0.0000 </r>
       <r>   63.2112    0.0000 </r>
       <r>   63.7872    0.0000 </r>
       <r>   64.6635    0.0000 </r>
       <r>   65.0592    0.0000 </r>
       <r>   66.0030    0.0000 </r>
       <r>   66.1379    0.0000 </r>
       <r>   66.8347    0.0000 </r>
       <r>   67.5805    0.0000 </r>
       <r>   68.3244    0.0000 </r>
       <r>   68.8580    0.0000 </r>
       <r>   69.7524    0.0000 </r>
       <r>   70.2181    0.0000 </r>
       <r>   71.4482    0.0000 </r>
       <r>   71.4523    0.0000 </r>
       <r>   72.3213    0.0000 </r>
       <r>   73.7655    0.0000 </r>
       <r>   74.6628    0.0000 </r>
       <r>   76.4944    0.0000 </r>
       <r>   77.2488    0.0000 </r>
       <r>   77.8549    0.0000 </r>
       <r>   78.5120    0.0000 </r>
       <r>   79.2298    0.0000 </r>
       <r>   81.2026    0.0000 </r>
       <r>   81.2227    0.0000 </r>
       <r>   81.9256    0.0000 </r>
       <r>   83.7963    0.0000 </r>
       <r>   84.1167    0.0000 </r>
       <r>   84.9531    0.0000 </r>
       <r>   85.5199    0.0000 </r>
       <r>   85.8805    0.0000 </r>
       <r>   86.6923    0.0000 </r>
       <r>   86.8371    0.0000 </r>
       <r>   88.3055    0.0000 </r>
       <r>   89.3458    0.0000 </r>
       <r>   89.3995    0.0000 </r>
       <r>   90.6013    0.0000 </r>
       <r>   91.1459    0.0000 </r>
       <r>   91.2483    0.0000 </r>
       <r>   92.9323    0.0000 </r>
       <r>   93.6597    0.0000 </r>
       <r>   94.8450    0.0000 </r>
       <r>   95.0860    0.0000 </r>
       <r>   96.0037    0.0000 </r>
       <r>   96.3863    0.0000 </r>
       <r>   97.4046    0.0000 </r>
       <r>   97.5808    0.0000 </r>
       <r>   98.7713    0.0000 </r>
       <r>   99.0632    0.0000 </r>
       <r>   99.4437    0.0000 </r>
       <r>   99.8125    0.0000 </r>
       <r>  100.6539    0.0000 </r>
       <r>  100.7836    0.0000 </r>
       <r>  100.9261    0.0000 </r>
       <r>  102.0943    0.0000 </r>
       <r>  103.6635    0.0000 </r>
       <r>  104.3192    0.0000 </r>
       <r>  104.4609    0.0000 </r>
       <r>  105.6890    0.0000 </r>
       <r>  105.7146    0.0000 </r>
       <r>  106.1329    0.0000 </r>
       <r>  106.5317    0.0000 </r>
       <r>  107.6644    0.0000 </r>
       <r>  108.2667    0.0000 </r>
       <r>  108.9612    0.0000 </r>
       <r>  108.9949    0.0000 </r>
       <r>  109.3266    0.0000 </r>
       <r>  110.3193    0.0000 </r>
       <r>  110.5912    0.0000 </r>
       <r>  111.0339    0.0000 </r>
       <r>  111.8119    0.0000 </r>
       <r>  112.5045    0.0000 </r>
       <r>  113.0757    0.0000 </r>
       <r>  113.8233    0.0000 </r>
       <r>  114.5335    0.0000 </r>
       <r>  114.9254    0.0000 </r>
      </set>
      <set comment="kpoint 11">
       <r>   -3.8381    1.0000 </r>
       <r>   -1.1154    1.0000 </r>
       <r>    3.7302    1.0000 </r>
       <r>    4.2722    1.0000 </r>
       <r>    7.7802    0.0000 </r>
       <r>    8.9558    0.0000 </r>
       <r>    9.4960    0.0000 </r>
       <r>   13.3725    0.0000 </r>
       <r>   14.4741    0.0000 </r>
       <r>   16.1479    0.0000 </r>
       <r>   17.0222    0.0000 </r>
       <r>   17.1763    0.0000 </r>
       <r>   17.9896    0.0000 </r>
       <r>   19.9677    0.0000 </r>
       <r>   24.0850    0.0000 </r>
       <r>   25.6029    0.0000 </r>
       <r>   25.8446    0.0000 </r>
       <r>   26.8644    0.0000 </r>
       <r>   27.6264    0.0000 </r>
       <r>   27.8500    0.0000 </r>
       <r>   30.6732    0.0000 </r>
       <r>   31.2792    0.0000 </r>
       <r>   31.6347    0.0000 </r>
       <r>   33.2368    0.0000 </r>
       <r>   33.6477    0.0000 </r>
       <r>   34.6680    0.0000 </r>
       <r>   35.9404    0.0000 </r>
       <r>   36.1414    0.0000 </r>
       <r>   38.0926    0.0000 </r>
       <r>   38.5117    0.0000 </r>
       <r>   39.1032    0.0000 </r>
       <r>   40.1382    0.0000 </r>
       <r>   42.6978    0.0000 </r>
       <r>   43.4843    0.0000 </r>
       <r>   43.7938    0.0000 </r>
       <r>   46.3335    0.0000 </r>
       <r>   46.4067    0.0000 </r>
       <r>   49.3002    0.0000 </r>
       <r>   49.6171    0.0000 </r>
       <r>   50.7265    0.0000 </r>
       <r>   51.9707    0.0000 </r>
       <r>   52.5613    0.0000 </r>
       <r>   53.6832    0.0000 </r>
       <r>   53.6887    0.0000 </r>
       <r>   54.4951    0.0000 </r>
       <r>   54.9131    0.0000 </r>
       <r>   56.6243    0.0000 </r>
       <r>   58.7394    0.0000 </r>
       <r>   59.0173    0.0000 </r>
       <r>   60.2334    0.0000 </r>
       <r>   60.3012    0.0000 </r>
       <r>   62.0035    0.0000 </r>
       <r>   62.4395    0.0000 </r>
       <r>   62.6101    0.0000 </r>
       <r>   63.6321    0.0000 </r>
       <r>   64.3236    0.0000 </r>
       <r>   65.2251    0.0000 </r>
       <r>   65.8432    0.0000 </r>
       <r>   67.1316    0.0000 </r>
       <r>   67.4657    0.0000 </r>
       <r>   67.8722    0.0000 </r>
       <r>   67.9898    0.0000 </r>
       <r>   69.1289    0.0000 </r>
       <r>   69.4998    0.0000 </r>
       <r>   70.4807    0.0000 </r>
       <r>   72.1101    0.0000 </r>
       <r>   73.5053    0.0000 </r>
       <r>   73.6217    0.0000 </r>
       <r>   74.2194    0.0000 </r>
       <r>   74.7419    0.0000 </r>
       <r>   74.8934    0.0000 </r>
       <r>   75.2444    0.0000 </r>
       <r>   76.0428    0.0000 </r>
       <r>   76.7270    0.0000 </r>
       <r>   77.8105    0.0000 </r>
       <r>   79.1214    0.0000 </r>
       <r>   79.6947    0.0000 </r>
       <r>   80.4656    0.0000 </r>
       <r>   82.0925    0.0000 </r>
       <r>   83.2696    0.0000 </r>
       <r>   84.1450    0.0000 </r>
       <r>   84.6734    0.0000 </r>
       <r>   85.9590    0.0000 </r>
       <r>   85.9675    0.0000 </r>
       <r>   87.3614    0.0000 </r>
       <r>   89.5540    0.0000 </r>
       <r>   90.0178    0.0000 </r>
       <r>   90.0377    0.0000 </r>
       <r>   90.9498    0.0000 </r>
       <r>   91.1254    0.0000 </r>
       <r>   92.8287    0.0000 </r>
       <r>   92.9698    0.0000 </r>
       <r>   93.1393    0.0000 </r>
       <r>   94.8684    0.0000 </r>
       <r>   95.0898    0.0000 </r>
       <r>   95.5176    0.0000 </r>
       <r>   95.8166    0.0000 </r>
       <r>   95.9503    0.0000 </r>
       <r>   97.1724    0.0000 </r>
       <r>   98.0127    0.0000 </r>
       <r>   99.1965    0.0000 </r>
       <r>  100.0985    0.0000 </r>
       <r>  100.4607    0.0000 </r>
       <r>  101.2232    0.0000 </r>
       <r>  101.7171    0.0000 </r>
       <r>  102.1587    0.0000 </r>
       <r>  102.4355    0.0000 </r>
       <r>  102.7514    0.0000 </r>
       <r>  104.0057    0.0000 </r>
       <r>  104.6127    0.0000 </r>
       <r>  105.3880    0.0000 </r>
       <r>  105.4137    0.0000 </r>
       <r>  106.4067    0.0000 </r>
       <r>  106.7057    0.0000 </r>
       <r>  107.2037    0.0000 </r>
       <r>  107.4609    0.0000 </r>
       <r>  108.8746    0.0000 </r>
       <r>  109.6037    0.0000 </r>
       <r>  110.5783    0.0000 </r>
       <r>  110.7795    0.0000 </r>
       <r>  111.6962    0.0000 </r>
       <r>  111.9061    0.0000 </r>
       <r>  112.2639    0.0000 </r>
       <r>  112.4908    0.0000 </r>
       <r>  113.7823    0.0000 </r>
       <r>  114.4862    0.0000 </r>
       <r>  115.2216    0.0000 </r>
       <r>  115.2743    0.0000 </r>
      </set>
      <set comment="kpoint 12">
       <r>   -4.0061    1.0000 </r>
       <r>   -0.8659    1.0000 </r>
       <r>    3.6012    1.0000 </r>
       <r>    4.4731    1.0000 </r>
       <r>    7.8432    0.0000 </r>
       <r>    9.0865    0.0000 </r>
       <r>    9.3406    0.0000 </r>
       <r>   13.6013    0.0000 </r>
       <r>   14.2474    0.0000 </r>
       <r>   14.8820    0.0000 </r>
       <r>   16.7409    0.0000 </r>
       <r>   17.8057    0.0000 </r>
       <r>   19.2185    0.0000 </r>
       <r>   19.8310    0.0000 </r>
       <r>   22.9813    0.0000 </r>
       <r>   24.7093    0.0000 </r>
       <r>   26.3569    0.0000 </r>
       <r>   27.2337    0.0000 </r>
       <r>   27.9586    0.0000 </r>
       <r>   28.3362    0.0000 </r>
       <r>   30.4929    0.0000 </r>
       <r>   30.6342    0.0000 </r>
       <r>   32.4863    0.0000 </r>
       <r>   33.0466    0.0000 </r>
       <r>   33.4699    0.0000 </r>
       <r>   35.0237    0.0000 </r>
       <r>   36.2448    0.0000 </r>
       <r>   36.2485    0.0000 </r>
       <r>   38.1817    0.0000 </r>
       <r>   38.9065    0.0000 </r>
       <r>   39.0772    0.0000 </r>
       <r>   40.1109    0.0000 </r>
       <r>   42.7498    0.0000 </r>
       <r>   43.5574    0.0000 </r>
       <r>   44.2428    0.0000 </r>
       <r>   46.0034    0.0000 </r>
       <r>   46.2891    0.0000 </r>
       <r>   48.2190    0.0000 </r>
       <r>   50.1587    0.0000 </r>
       <r>   50.7514    0.0000 </r>
       <r>   51.3579    0.0000 </r>
       <r>   51.8349    0.0000 </r>
       <r>   52.4865    0.0000 </r>
       <r>   54.3439    0.0000 </r>
       <r>   54.7203    0.0000 </r>
       <r>   55.8344    0.0000 </r>
       <r>   57.1480    0.0000 </r>
       <r>   58.6032    0.0000 </r>
       <r>   59.6274    0.0000 </r>
       <r>   59.8420    0.0000 </r>
       <r>   60.1673    0.0000 </r>
       <r>   61.3610    0.0000 </r>
       <r>   61.8538    0.0000 </r>
       <r>   62.8643    0.0000 </r>
       <r>   63.0128    0.0000 </r>
       <r>   63.9072    0.0000 </r>
[...]
        <r>  0.0025  0.0241  0.0143  0.0077  0.0000  0.0000  0.0000  0.0000  0.0000 </r>
       </set>
       <set comment="band 44">
        <r>  0.0025  0.0067  0.0067  0.0328  0.0000  0.0000  0.0000  0.0000  0.0000 </r>
        <r>  0.0025  0.0067  0.0067  0.0328  0.0000  0.0000  0.0000  0.0000  0.0000 </r>
       </set>
       <set comment="band 45">
        <r>  0.0098  0.0021  0.0035  0.0037  0.0000  0.0000  0.0000  0.0000  0.0000 </r>
        <r>  0.0098  0.0021  0.0035  0.0037  0.0000  0.0000  0.0000  0.0000  0.0000 </r>
       </set>
       <set comment="band 46">
        <r>  0.0098  0.0041  0.0032  0.0021  0.0000  0.0000  0.0000  0.0000  0.0000 </r>
        <r>  0.0098  0.0041  0.0032  0.0021  0.0000  0.0000  0.0000  0.0000  0.0000 </r>
       </set>
       <set comment="band 47">
        <r>  0.0213  0.0054  0.0198  0.0043  0.0000  0.0000  0.0000  0.0000  0.0000 </r>
        <r>  0.0213  0.0054  0.0198  0.0043  0.0000  0.0000  0.0000  0.0000  0.0000 </r>
       </set>
       <set comment="band 48">
        <r>  0.0213  0.0143  0.0011  0.0141  0.0000  0.0000  0.0000  0.0000  0.0000 </r>
        <r>  0.0213  0.0143  0.0011  0.0141  0.0000  0.0000  0.0000  0.0000  0.0000 </r>
       </set>
       <set comment="band 49">
        <r>  0.0094  0.0147  0.0169  0.0075  0.0000  0.0000  0.0000  0.0000  0.0000 </r>
        <r>  0.0094  0.0147  0.0169  0.0075  0.0000  0.0000  0.0000  0.0000  0.0000 </r>
       </set>
       <set comment="band 50">
        <r>  0.0094  0.0113  0.0220  0.0057  0.0000  0.0000  0.0000  0.0000  0.0000 </r>
        <r>  0.0094  0.0113  0.0220  0.0057  0.0000  0.0000  0.0000  0.0000  0.0000 </r>
       </set>
       <set comment="band 51">
        <r>  0.0013  0.0246  0.0089  0.0221  0.0000  0.0000  0.0000  0.0000  0.0000 </r>
        <r>  0.0013  0.0246  0.0089  0.0221  0.0000  0.0000  0.0000  0.0000  0.0000 </r>
       </set>
       <set comment="band 52">
        <r>  0.0013  0.0125  0.0026  0.0405  0.0000  0.0000  0.0000  0.0000  0.0000 </r>
        <r>  0.0013  0.0125  0.0026  0.0405  0.0000  0.0000  0.0000  0.0000  0.0000 </r>
       </set>
       <set comment="band 53">
        <r>  0.0126  0.0053  0.0024  0.0033  0.0000  0.0000  0.0000  0.0000  0.0000 </r>
        <r>  0.0126  0.0053  0.0024  0.0033  0.0000  0.0000  0.0000  0.0000  0.0000 </r>
       </set>
       <set comment="band 54">
        <r>  0.0126  0.0020  0.0085  0.0005  0.0000  0.0000  0.0000  0.0000  0.0000 </r>
        <r>  0.0126  0.0020  0.0085  0.0005  0.0000  0.0000  0.0000  0.0000  0.0000 </r>
       </set>
       <set comment="band 55">
        <r>  0.0057  0.0029  0.0035  0.0023  0.0000  0.0000  0.0000  0.0000  0.0000 </r>
        <r>  0.0057  0.0029  0.0035  0.0023  0.0000  0.0000  0.0000  0.0000  0.0000 </r>
       </set>
       <set comment="band 56">
        <r>  0.0057  0.0029  0.0035  0.0023  0.0000  0.0000  0.0000  0.0000  0.0000 </r>
        <r>  0.0057  0.0029  0.0035  0.0023  0.0000  0.0000  0.0000  0.0000  0.0000 </r>
       </set>
       <set comment="band 57">
        <r>  0.0007  0.0119  0.0019  0.0062  0.0000  0.0000  0.0000  0.0000  0.0000 </r>
        <r>  0.0007  0.0119  0.0019  0.0062  0.0000  0.0000  0.0000  0.0000  0.0000 </r>
       </set>
       <set comment="band 58">
        <r>  0.0007  0.0014  0.0062  0.0124  0.0000  0.0000  0.0000  0.0000  0.0000 </r>
        <r>  0.0007  0.0014  0.0062  0.0124  0.0000  0.0000  0.0000  0.0000  0.0000 </r>
       </set>
       <set comment="band 59">
        <r>  0.0344  0.0225  0.0089  0.0102  0.0000  0.0000  0.0000  0.0000  0.0000 </r>
        <r>  0.0344  0.0225  0.0089  0.0102  0.0000  0.0000  0.0000  0.0000  0.0000 </r>
       </set>
       <set comment="band 60">
        <r>  0.0344  0.0053  0.0064  0.0299  0.0000  0.0000  0.0000  0.0000  0.0000 </r>
        <r>  0.0344  0.0053  0.0064  0.0299  0.0000  0.0000  0.0000  0.0000  0.0000 </r>
       </set>
       <set comment="band 61">
        <r>  0.0252  0.0103  0.0059  0.0077  0.0000  0.0000  0.0000  0.0000  0.0000 </r>
        <r>  0.0252  0.0103  0.0059  0.0077  0.0000  0.0000  0.0000  0.0000  0.0000 </r>
       </set>
       <set comment="band 62">
        <r>  0.0252  0.0057  0.0156  0.0027  0.0000  0.0000  0.0000  0.0000  0.0000 </r>
        <r>  0.0252  0.0057  0.0156  0.0027  0.0000  0.0000  0.0000  0.0000  0.0000 </r>
       </set>
       <set comment="band 63">
        <r>  0.0012  0.0079  0.0101  0.0083  0.0000  0.0000  0.0000  0.0000  0.0000 </r>
        <r>  0.0012  0.0079  0.0101  0.0083  0.0000  0.0000  0.0000  0.0000  0.0000 </r>
       </set>
       <set comment="band 64">
        <r>  0.0012  0.0096  0.0076  0.0092  0.0000  0.0000  0.0000  0.0000  0.0000 </r>
        <r>  0.0012  0.0096  0.0076  0.0092  0.0000  0.0000  0.0000  0.0000  0.0000 </r>
       </set>
       <set comment="band 65">
        <r>  0.0132  0.0443  0.0036  0.0242  0.0000  0.0000  0.0000  0.0000  0.0000 </r>
        <r>  0.0132  0.0443  0.0036  0.0242  0.0000  0.0000  0.0000  0.0000  0.0000 </r>
       </set>
       <set comment="band 66">
        <r>  0.0132  0.0037  0.0496  0.0187  0.0000  0.0000  0.0000  0.0000  0.0000 </r>
        <r>  0.0132  0.0037  0.0496  0.0187  0.0000  0.0000  0.0000  0.0000  0.0000 </r>
       </set>
       <set comment="band 67">
        <r>  0.0156  0.0176  0.0258  0.0075  0.0000  0.0000  0.0000  0.0000  0.0000 </r>
        <r>  0.0156  0.0176  0.0258  0.0075  0.0000  0.0000  0.0000  0.0000  0.0000 </r>
       </set>
       <set comment="band 68">
        <r>  0.0156  0.0163  0.0251  0.0095  0.0000  0.0000  0.0000  0.0000  0.0000 </r>
        <r>  0.0156  0.0163  0.0251  0.0095  0.0000  0.0000  0.0000  0.0000  0.0000 </r>
       </set>
       <set comment="band 69">
        <r>  0.0229  0.0059  0.0105  0.0239  0.0000  0.0000  0.0000  0.0000  0.0000 </r>
        <r>  0.0229  0.0059  0.0105  0.0239  0.0000  0.0000  0.0000  0.0000  0.0000 </r>
       </set>
       <set comment="band 70">
        <r>  0.0229  0.0210  0.0096  0.0098  0.0000  0.0000  0.0000  0.0000  0.0000 </r>
        <r>  0.0229  0.0210  0.0095  0.0098  0.0000  0.0000  0.0000  0.0000  0.0000 </r>
       </set>
       <set comment="band 71">
        <r>  0.0056  0.0065  0.0098  0.0024  0.0000  0.0000  0.0000  0.0000  0.0000 </r>
        <r>  0.0056  0.0065  0.0098  0.0024  0.0000  0.0000  0.0000  0.0000  0.0000 </r>
       </set>
       <set comment="band 72">
        <r>  0.0056  0.0060  0.0074  0.0053  0.0000  0.0000  0.0000  0.0000  0.0000 </r>
        <r>  0.0056  0.0060  0.0074  0.0053  0.0000  0.0000  0.0000  0.0000  0.0000 </r>
       </set>
       <set comment="band 73">
        <r>  0.0305  0.0048  0.0038  0.0043  0.0000  0.0000  0.0000  0.0000  0.0000 </r>
        <r>  0.0305  0.0048  0.0038  0.0043  0.0000  0.0000  0.0000  0.0000  0.0000 </r>
       </set>
       <set comment="band 74">
        <r>  0.0305  0.0038  0.0046  0.0045  0.0000  0.0000  0.0000  0.0000  0.0000 </r>
        <r>  0.0305  0.0038  0.0046  0.0045  0.0000  0.0000  0.0000  0.0000  0.0000 </r>
       </set>
       <set comment="band 75">
        <r>  0.0026  0.0101  0.0221  0.0138  0.0000  0.0000  0.0000  0.0000  0.0000 </r>
        <r>  0.0026  0.0101  0.0221  0.0138  0.0000  0.0000  0.0000  0.0000  0.0000 </r>
       </set>
       <set comment="band 76">
        <r>  0.0026  0.0206  0.0224  0.0030  0.0000  0.0000  0.0000  0.0000  0.0000 </r>
        <r>  0.0026  0.0206  0.0224  0.0030  0.0000  0.0000  0.0000  0.0000  0.0000 </r>
       </set>
       <set comment="band 77">
        <r>  0.0066  0.0101  0.0228  0.0055  0.0000  0.0000  0.0000  0.0000  0.0000 </r>
        <r>  0.0067  0.0100  0.0226  0.0054  0.0000  0.0000  0.0000  0.0000  0.0000 </r>
       </set>
       <set comment="band 78">
        <r>  0.0067  0.0154  0.0146  0.0080  0.0000  0.0000  0.0000  0.0000  0.0000 </r>
        <r>  0.0066  0.0155  0.0148  0.0081  0.0000  0.0000  0.0000  0.0000  0.0000 </r>
       </set>
       <set comment="band 79">
        <r>  0.0007  0.0062  0.0011  0.0260  0.0000  0.0000  0.0000  0.0000  0.0000 </r>
        <r>  0.0007  0.0063  0.0011  0.0261  0.0000  0.0000  0.0000  0.0000  0.0000 </r>
       </set>
       <set comment="band 80">
        <r>  0.0007  0.0160  0.0010  0.0164  0.0000  0.0000  0.0000  0.0000  0.0000 </r>
        <r>  0.0007  0.0160  0.0010  0.0163  0.0000  0.0000  0.0000  0.0000  0.0000 </r>
       </set>
       <set comment="band 81">
        <r>  0.0192  0.0273  0.0010  0.0321  0.0000  0.0000  0.0000  0.0000  0.0000 </r>
        <r>  0.0192  0.0273  0.0010  0.0321  0.0000  0.0000  0.0000  0.0000  0.0000 </r>
       </set>
       <set comment="band 82">
        <r>  0.0192  0.0130  0.0209  0.0266  0.0000  0.0000  0.0000  0.0000  0.0000 </r>
        <r>  0.0192  0.0130  0.0209  0.0266  0.0000  0.0000  0.0000  0.0000  0.0000 </r>
       </set>
       <set comment="band 83">
        <r>  0.0210  0.0197  0.0029  0.0122  0.0000  0.0000  0.0000  0.0000  0.0000 </r>
        <r>  0.0210  0.0197  0.0029  0.0122  0.0000  0.0000  0.0000  0.0000  0.0000 </r>
       </set>
       <set comment="band 84">
        <r>  0.0210  0.0035  0.0138  0.0176  0.0000  0.0000  0.0000  0.0000  0.0000 </r>
        <r>  0.0210  0.0035  0.0138  0.0176  0.0000  0.0000  0.0000  0.0000  0.0000 </r>
       </set>
       <set comment="band 85">
        <r>  0.0015  0.0306  0.0094  0.0232  0.0000  0.0000  0.0000  0.0000  0.0000 </r>
        <r>  0.0015  0.0306  0.0094  0.0232  0.0000  0.0000  0.0000  0.0000  0.0000 </r>
       </set>
       <set comment="band 86">
        <r>  0.0015  0.0115  0.0486  0.0031  0.0000  0.0000  0.0000  0.0000  0.0000 </r>
        <r>  0.0015  0.0115  0.0486  0.0031  0.0000  0.0000  0.0000  0.0000  0.0000 </r>
       </set>
       <set comment="band 87">
        <r>  0.0619  0.0006  0.0040  0.0000  0.0000  0.0000  0.0000  0.0000  0.0000 </r>
        <r>  0.0619  0.0006  0.0040  0.0000  0.0000  0.0000  0.0000  0.0000  0.0000 </r>
       </set>
       <set comment="band 88">
        <r>  0.0619  0.0025  0.0003  0.0018  0.0000  0.0000  0.0000  0.0000  0.0000 </r>
        <r>  0.0619  0.0025  0.0003  0.0018  0.0000  0.0000  0.0000  0.0000  0.0000 </r>
       </set>
       <set comment="band 89">
        <r>  0.0697  0.0094  0.0011  0.0144  0.0000  0.0000  0.0000  0.0000  0.0000 </r>
        <r>  0.0698  0.0094  0.0011  0.0144  0.0000  0.0000  0.0000  0.0000  0.0000 </r>
       </set>
       <set comment="band 90">
        <r>  0.0698  0.0072  0.0056  0.0121  0.0000  0.0000  0.0000  0.0000  0.0000 </r>
        <r>  0.0697  0.0072  0.0056  0.0121  0.0000  0.0000  0.0000  0.0000  0.0000 </r>
       </set>
       <set comment="band 91">
        <r>  0.0601  0.0075  0.0260  0.0058  0.0000  0.0000  0.0000  0.0000  0.0000 </r>
        <r>  0.0601  0.0075  0.0260  0.0058  0.0000  0.0000  0.0000  0.0000  0.0000 </r>
       </set>
       <set comment="band 92">
        <r>  0.0601  0.0187  0.0017  0.0190  0.0000  0.0000  0.0000  0.0000  0.0000 </r>
        <r>  0.0601  0.0187  0.0017  0.0190  0.0000  0.0000  0.0000  0.0000  0.0000 </r>
       </set>
       <set comment="band 93">
        <r>  0.1143  0.0465  0.0141  0.0283  0.0000  0.0000  0.0000  0.0000  0.0000 </r>
        <r>  0.1144  0.0465  0.0141  0.0283  0.0000  0.0000  0.0000  0.0000  0.0000 </r>
       </set>
       <set comment="band 94">
        <r>  0.1144  0.0128  0.0070  0.0691  0.0000  0.0000  0.0000  0.0000  0.0000 </r>
        <r>  0.1143  0.0128  0.0070  0.0691  0.0000  0.0000  0.0000  0.0000  0.0000 </r>
       </set>
       <set comment="band 95">
        <r>  0.0148  0.0212  0.0137  0.0066  0.0000  0.0000  0.0000  0.0000  0.0000 </r>
        <r>  0.0148  0.0212  0.0137  0.0066  0.0000  0.0000  0.0000  0.0000  0.0000 </r>
       </set>
       <set comment="band 96">
        <r>  0.0148  0.0065  0.0262  0.0088  0.0000  0.0000  0.0000  0.0000  0.0000 </r>
        <r>  0.0147  0.0065  0.0262  0.0088  0.0000  0.0000  0.0000  0.0000  0.0000 </r>
       </set>
       <set comment="band 97">
        <r>  0.0382  0.0039  0.0011  0.0010  0.0000  0.0000  0.0000  0.0000  0.0000 </r>
        <r>  0.0382  0.0039  0.0011  0.0010  0.0000  0.0000  0.0000  0.0000  0.0000 </r>
       </set>
       <set comment="band 98">
        <r>  0.0382  0.0001  0.0018  0.0042  0.0000  0.0000  0.0000  0.0000  0.0000 </r>
        <r>  0.0382  0.0001  0.0018  0.0042  0.0000  0.0000  0.0000  0.0000  0.0000 </r>
       </set>
       <set comment="band 99">
        <r>  0.0135  0.0825  0.0256  0.0542  0.0000  0.0000  0.0000  0.0000  0.0000 </r>
        <r>  0.0135  0.0825  0.0256  0.0542  0.0000  0.0000  0.0000  0.0000  0.0000 </r>
       </set>
       <set comment="band 100">
        <r>  0.0135  0.0257  0.1125  0.0241  0.0000  0.0000  0.0000  0.0000  0.0000 </r>
        <r>  0.0135  0.0257  0.1125  0.0241  0.0000  0.0000  0.0000  0.0000  0.0000 </r>
       </set>
       <set comment="band 101">
        <r>  0.0001  0.0203  0.0267  0.0220  0.0000  0.0000  0.0000  0.0000  0.0000 </r>
        <r>  0.0001  0.0203  0.0267  0.0220  0.0000  0.0000  0.0000  0.0000  0.0000 </r>
       </set>
       <set comment="band 102">
        <r>  0.0001  0.0257  0.0265  0.0168  0.0000  0.0000  0.0000  0.0000  0.0000 </r>
        <r>  0.0001  0.0257  0.0265  0.0168  0.0000  0.0000  0.0000  0.0000  0.0000 </r>
       </set>
       <set comment="band 103">
        <r>  0.3234  0.0303  0.0609  0.0038  0.0000  0.0000  0.0000  0.0000  0.0000 </r>
        <r>  0.3233  0.0303  0.0609  0.0038  0.0000  0.0000  0.0000  0.0000  0.0000 </r>
       </set>
       <set comment="band 104">
        <r>  0.3233  0.0330  0.0138  0.0482  0.0000  0.0000  0.0000  0.0000  0.0000 </r>
        <r>  0.3234  0.0330  0.0138  0.0482  0.0000  0.0000  0.0000  0.0000  0.0000 </r>
       </set>
       <set comment="band 105">
        <r>  0.1862  0.0712  0.0444  0.0066  0.0000  0.0000  0.0000  0.0000  0.0000 </r>
        <r>  0.1870  0.0712  0.0445  0.0065  0.0000  0.0000  0.0000  0.0000  0.0000 </r>
       </set>
       <set comment="band 106">
        <r>  0.1870  0.0103  0.0358  0.0761  0.0000  0.0000  0.0000  0.0000  0.0000 </r>
        <r>  0.1862  0.0103  0.0357  0.0762  0.0000  0.0000  0.0000  0.0000  0.0000 </r>
       </set>
       <set comment="band 107">
        <r>  0.0326  0.0351  0.0072  0.0176  0.0000  0.0000  0.0000  0.0000  0.0000 </r>
        <r>  0.0326  0.0351  0.0072  0.0176  0.0000  0.0000  0.0000  0.0000  0.0000 </r>
       </set>
       <set comment="band 108">
        <r>  0.0326  0.0049  0.0527  0.0024  0.0000  0.0000  0.0000  0.0000  0.0000 </r>
        <r>  0.0326  0.0049  0.0527  0.0024  0.0000  0.0000  0.0000  0.0000  0.0000 </r>
       </set>
       <set comment="band 109">
        <r>  0.2653  0.1658  0.0048  0.0921  0.0000  0.0000  0.0000  0.0000  0.0000 </r>
        <r>  0.2658  0.1658  0.0049  0.0921  0.0000  0.0000  0.0000  0.0000  0.0000 </r>
       </set>
       <set comment="band 110">
        <r>  0.2658  0.0094  0.2506  0.0028  0.0000  0.0000  0.0000  0.0000  0.0000 </r>
        <r>  0.2653  0.0094  0.2506  0.0028  0.0000  0.0000  0.0000  0.0000  0.0000 </r>
       </set>
       <set comment="band 111">
        <r>  0.3288  0.0282  0.0037  0.0408  0.0000  0.0000  0.0000  0.0000  0.0000 </r>
        <r>  0.3285  0.0283  0.0037  0.0408  0.0000  0.0000  0.0000  0.0000  0.0000 </r>
       </set>
       <set comment="band 112">
        <r>  0.3285  0.0203  0.0119  0.0406  0.0000  0.0000  0.0000  0.0000  0.0000 </r>
        <r>  0.3288  0.0203  0.0119  0.0406  0.0000  0.0000  0.0000  0.0000  0.0000 </r>
       </set>
       <set comment="band 113">
        <r>  0.3268  0.0299  0.0036  0.0244  0.0000  0.0000  0.0000  0.0000  0.0000 </r>
        <r>  0.3254  0.0299  0.0036  0.0246  0.0000  0.0000  0.0000  0.0000  0.0000 </r>
       </set>
       <set comment="band 114">
        <r>  0.3254  0.0088  0.0125  0.0368  0.0000  0.0000  0.0000  0.0000  0.0000 </r>
        <r>  0.3268  0.0087  0.0124  0.0367  0.0000  0.0000  0.0000  0.0000  0.0000 </r>
       </set>
       <set comment="band 115">
        <r>  0.6376  0.1057  0.0342  0.0603  0.0000  0.0000  0.0000  0.0000  0.0000 </r>
        <r>  0.6334  0.1054  0.0337  0.0602  0.0000  0.0000  0.0000  0.0000  0.0000 </r>
       </set>
       <set comment="band 116">
        <r>  0.6334  0.0275  0.1642  0.0076  0.0000  0.0000  0.0000  0.0000  0.0000 </r>
        <r>  0.6376  0.0278  0.1647  0.0077  0.0000  0.0000  0.0000  0.0000  0.0000 </r>
       </set>
       <set comment="band 117">
        <r>  0.0044  0.0374  0.0370  0.0447  0.0000  0.0000  0.0000  0.0000  0.0000 </r>
        <r>  0.0045  0.0374  0.0371  0.0446  0.0000  0.0000  0.0000  0.0000  0.0000 </r>
       </set>
       <set comment="band 118">
        <r>  0.0045  0.0420  0.0200  0.0572  0.0000  0.0000  0.0000  0.0000  0.0000 </r>
        <r>  0.0044  0.0420  0.0199  0.0573  0.0000  0.0000  0.0000  0.0000  0.0000 </r>
       </set>
       <set comment="band 119">
        <r>  0.1423  0.0400  0.0420  0.0639  0.0000  0.0000  0.0000  0.0000  0.0000 </r>
        <r>  0.1507  0.0378  0.0399  0.0616  0.0000  0.0000  0.0000  0.0000  0.0000 </r>
       </set>
       <set comment="band 120">
        <r>  0.1507  0.0550  0.0583  0.0259  0.0000  0.0000  0.0000  0.0000  0.0000 </r>
        <r>  0.1423  0.0573  0.0605  0.0282  0.0000  0.0000  0.0000  0.0000  0.0000 </r>
       </set>
       <set comment="band 121">
        <r>  0.0275  0.0377  0.0006  0.0526  0.0000  0.0000  0.0000  0.0000  0.0000 </r>
        <r>  0.0271  0.0382  0.0006  0.0535  0.0000  0.0000  0.0000  0.0000  0.0000 </r>
       </set>
       <set comment="band 122">
        <r>  0.0271  0.0233  0.0030  0.0659  0.0000  0.0000  0.0000  0.0000  0.0000 </r>
        <r>  0.0275  0.0229  0.0030  0.0650  0.0000  0.0000  0.0000  0.0000  0.0000 </r>
       </set>
       <set comment="band 123">
        <r>  0.2454  0.0191  0.0053  0.1008  0.0000  0.0000  0.0000  0.0000  0.0000 </r>
        <r>  0.2463  0.0190  0.0053  0.1005  0.0000  0.0000  0.0000  0.0000  0.0000 </r>
       </set>
       <set comment="band 124">
        <r>  0.2463  0.0642  0.0065  0.0541  0.0000  0.0000  0.0000  0.0000  0.0000 </r>
        <r>  0.2454  0.0643  0.0065  0.0544  0.0000  0.0000  0.0000  0.0000  0.0000 </r>
       </set>
       <set comment="band 125">
        <r>  0.0053  0.0567  0.0831  0.0475  0.0000  0.0000  0.0000  0.0000  0.0000 </r>
        <r>  0.0043  0.0694  0.1008  0.0553  0.0000  0.0000  0.0000  0.0000  0.0000 </r>
       </set>
       <set comment="band 126">
        <r>  0.0043  0.0811  0.1100  0.0345  0.0000  0.0000  0.0000  0.0000  0.0000 </r>
        <r>  0.0053  0.0683  0.0923  0.0268  0.0000  0.0000  0.0000  0.0000  0.0000 </r>
       </set>
       <set comment="band 127">
        <r>  0.1206  0.1153  0.1247  0.0193  0.0000  0.0000  0.0000  0.0000  0.0000 </r>
        <r>  0.0507  0.0709  0.0527  0.0033  0.0000  0.0000  0.0000  0.0000  0.0000 </r>
       </set>
       <set comment="band 128">
        <r>  0.0508  0.0135  0.0528  0.0604  0.0000  0.0000  0.0000  0.0000  0.0000 </r>
        <r>  0.1206  0.0577  0.1251  0.0763  0.0000  0.0000  0.0000  0.0000  0.0000 </r>
       </set>
      </set>
     </set>
    </set>
   </array>
  </projected>
 </calculation>
 <structure name="finalpos" >
  <crystal>
   <varray name="basis" >
    <v>       3.33357300       0.00000000       1.92463900 </v>
    <v>       1.11119100       3.14292400       1.92463900 </v>
    <v>       0.00000000       0.00000000       3.84927800 </v>
   </varray>
   <i name="volume">     40.32952685 </i>
   <varray name="rec_basis" >
    <v>       0.29997843      -0.10605835       0.00000000 </v>
    <v>       0.00000000       0.31817505       0.00000000 </v>
    <v>      -0.14998922      -0.10605835       0.25978898 </v>
   </varray>
  </crystal>
  <varray name="positions" >
   <v>       0.87500000       0.87500000       0.87500000 </v>
   <v>       0.12500000       0.12500000       0.12500000 </v>
  </varray>
 </structure>
</modeling>
