P     ONCVPSP-3.2.3.1  r_core=   1.40954   1.60717   1.81079
15.0000     13.0000      170429    zatom,zion,pspd
8      11   2     4   600     0    pspcod,pspxc,lmax,lloc,mmax,r2well
5.99000000  0.00000000  0.00000000    rchrg fchrg qchrg
2     2     2     0     0    nproj
1     1           extension_switch
0                        -4.8633398957102D+00 -7.3620122738006D-01
1  0.0000000000000D+00 -2.6608937275796D-11  6.8446409651202D-10
2  1.0000000000000D-02  7.2150944408062D-02 -5.6037238981900D-02
3  2.0000000000000D-02  1.4414807595758D-01 -1.1179283562417D-01
4  3.0000000000000D-02  2.1583801442269D-01 -1.6698668985829D-01
5  4.0000000000000D-02  2.8706824344572D-01 -2.2134177269628D-01
6  5.0000000000000D-02  3.5768753898517D-01 -2.7458562829447D-01
7  6.0000000000000D-02  4.2754639359955D-01 -3.2645183634093D-01
8  7.0000000000000D-02  4.9649743521046D-01 -3.7668142235834D-01
9  8.0000000000000D-02  5.6439583901524D-01 -4.2502420419889D-01
10  9.0000000000000D-02  6.3109973125186D-01 -4.7124006384313D-01
11  1.0000000000000D-01  6.9647058355698D-01 -5.1510013458947D-01
12  1.1000000000000D-01  7.6037359670187D-01 -5.5638789481818D-01
13  1.2000000000000D-01  8.2267807253852D-01 -5.9490016071872D-01
14  1.3000000000000D-01  8.8325777304091D-01 -6.3044797166172D-01
15  1.4000000000000D-01  9.4199126538188D-01 -6.6285736325831D-01
16  1.5000000000000D-01  9.9876225204477D-01 -6.9197002455848D-01
17  1.6000000000000D-01  1.0534598850300D+00 -7.1764383727539D-01
18  1.7000000000000D-01  1.1059790632788D+00 -7.3975329636151D-01
19  1.8000000000000D-01  1.1562207125010D+00 -7.5818981268457D-01
20  1.9000000000000D-01  1.2040920466561D+00 -7.7286189993314D-01
21  2.0000000000000D-01  1.2495068104021D+00 -7.8369524920353D-01
22  2.1000000000000D-01  1.2923855018884D+00 -7.9063269596120D-01
23  2.2000000000000D-01  1.3326555753333D+00 -7.9363408521190D-01
24  2.3000000000000D-01  1.3702516228832D+00 -7.9267604174392D-01
25  2.4000000000000D-01  1.4051155353128D+00 -7.8775165319731D-01
26  2.5000000000000D-01  1.4371966411805D+00 -7.7887007446585D-01
27  2.6000000000000D-01  1.4664518241059D+00 -7.6605606253233D-01
28  2.7000000000000D-01  1.4928456178904D+00 -7.4934945126879D-01
29  2.8000000000000D-01  1.5163502792487D+00 -7.2880457599600D-01
30  2.9000000000000D-01  1.5369458379665D+00 -7.0448965768649D-01
31  3.0000000000000D-01  1.5546201243453D+00 -6.7648615661547D-01
32  3.1000000000000D-01  1.5693687738360D+00 -6.4488810501344D-01
33  3.2000000000000D-01  1.5811952088047D+00 -6.0980142786373D-01
34  3.3000000000000D-01  1.5901105974151D+00 -5.7134326042093D-01
35  3.4000000000000D-01  1.5961337896488D+00 -5.2964127031853D-01
36  3.5000000000000D-01  1.5992912305260D+00 -4.8483299129592D-01
37  3.6000000000000D-01  1.5996168506252D+00 -4.3706517462458D-01
38  3.7000000000000D-01  1.5971519340461D+00 -3.8649316326792D-01
39  3.8000000000000D-01  1.5919449639946D+00 -3.3328029268869D-01
40  3.9000000000000D-01  1.5840514462196D+00 -2.7759732104383D-01
41  4.0000000000000D-01  1.5735337105732D+00 -2.1962189030072D-01
42  4.1000000000000D-01  1.5604606910189D+00 -1.5953801859473D-01
43  4.2000000000000D-01  1.5449076844656D+00 -9.7535622949059D-02
44  4.3000000000000D-01  1.5269560888620D+00 -3.3810070317011D-02
45  4.4000000000000D-01  1.5066931210530D+00  3.1438246192720D-02
46  4.5000000000000D-01  1.4842115149631D+00  9.8004310062573D-02
47  4.6000000000000D-01  1.4596092007493D+00  1.6567886815151D-01
48  4.7000000000000D-01  1.4329889656405D+00  2.3424880737390D-01
49  4.8000000000000D-01  1.4044580972692D+00  3.0349752777415D-01
50  4.9000000000000D-01  1.3741280103851D+00  3.7320531898980D-01
51  5.0000000000000D-01  1.3421138579362D+00  4.4314974741958D-01
52  5.1000000000000D-01  1.3085341276014D+00  5.1310606155667D-01
53  5.2000000000000D-01  1.2735102249580D+00  5.8284762290811D-01
54  5.3000000000000D-01  1.2371660445714D+00  6.5214636969317D-01
55  5.4000000000000D-01  1.1996275304023D+00  7.2077332009800D-01
56  5.5000000000000D-01  1.1610222270308D+00  7.8849912126222D-01
57  5.6000000000000D-01  1.1214788233036D+00  8.5509464939699D-01
58  5.7000000000000D-01  1.0811266901162D+00  9.2033166548523D-01
59  5.8000000000000D-01  1.0400954141397D+00  9.8398352991787D-01
60  5.9000000000000D-01  9.9851432940325D-01  1.0458259781784D+00
61  6.0000000000000D-01  9.5651204872741D-01  1.1056379583368D+00
62  6.1000000000000D-01  9.1421599709154D-01  1.1632025296559D+00
63  6.2000000000000D-01  8.7175194908660D-01  1.2183078200957D+00
64  6.3000000000000D-01  8.2924357266892D-01  1.2707480389259D+00
65  6.4000000000000D-01  7.8681198147812D-01  1.3203245390739D+00
66  6.5000000000000D-01  7.4457529801672D-01  1.3668469222586D+00
67  6.6000000000000D-01  7.0264823000799D-01  1.4101341784234D+00
68  6.7000000000000D-01  6.6114166224939D-01  1.4500158495202D+00
69  6.8000000000000D-01  6.2016226626240D-01  1.4863332063322D+00
70  6.9000000000000D-01  5.7981213000279D-01  1.5189404257831D+00
71  7.0000000000000D-01  5.4018840983870D-01  1.5477057551040D+00
72  7.1000000000000D-01  5.0138300692622D-01  1.5725126483305D+00
73  7.2000000000000D-01  4.6348227001322D-01  1.5932608599030D+00
74  7.3000000000000D-01  4.2656672658142D-01  1.6098674796760D+00
75  7.4000000000000D-01  3.9071084409477D-01  1.6222678934103D+00
76  7.5000000000000D-01  3.5598282295953D-01  1.6304166528468D+00
77  7.6000000000000D-01  3.2244442261740D-01  1.6342882397532D+00
78  7.7000000000000D-01  2.9015082199183D-01  1.6338777088868D+00
79  7.8000000000000D-01  2.5915051528521D-01  1.6292011956568D+00
80  7.9000000000000D-01  2.2948524388862D-01  1.6202962753610D+00
81  8.0000000000000D-01  2.0118996491320D-01  1.6072221622355D+00
82  8.1000000000000D-01  1.7429285658807D-01  1.5900597381618D+00
83  8.2000000000000D-01  1.4881536049435D-01  1.5689114027171D+00
84  8.3000000000000D-01  1.2477226032275D-01  1.5439007383035D+00
85  8.4000000000000D-01  1.0217179655431D-01  1.5151719863304D+00
86  8.5000000000000D-01  8.1015816174413D-02  1.4828893328191D+00
87  8.6000000000000D-01  6.1299956241854D-02  1.4472360043204D+00
88  8.7000000000000D-01  4.3013859850101D-02  1.4084131776517D+00
89  8.8000000000000D-01  2.6141422741225D-02  1.3666387096233D+00
90  8.9000000000000D-01  1.0661068566596D-02  1.3221456956124D+00
91  9.0000000000000D-01 -3.4539494640068D-03  1.2751808684980D+00
92  9.1000000000000D-01 -1.6235223038635D-02  1.2260028520644D+00
93  9.2000000000000D-01 -2.7718842014035D-02  1.1748802854674D+00
94  9.3000000000000D-01 -3.7945029403055D-02  1.1220898376957D+00
95  9.4000000000000D-01 -4.6957761147609D-02  1.0679141331133D+00
96  9.5000000000000D-01 -5.4804373885491D-02  1.0126396110969D+00
97  9.6000000000000D-01 -6.1535164028712D-02  9.5655434445833D-01
98  9.7000000000000D-01 -6.7202981547589D-02  8.9994584270698D-01
99  9.8000000000000D-01 -7.1862821900243D-02  8.4309886728874D-01
100  9.9000000000000D-01 -7.5571419555865D-02  7.8629328664871D-01
101  1.0000000000000D+00 -7.8386846535065D-02  7.2980199932239D-01
102  1.0100000000000D+00 -8.0368119329993D-02  6.7388895324601D-01
103  1.0200000000000D+00 -8.1574817471995D-02  6.1880728908246D-01
104  1.0300000000000D+00 -8.2066716879620D-02  5.6479763453059D-01
105  1.0400000000000D+00 -8.1903440964555D-02  5.1208657547803D-01
106  1.0500000000000D+00 -8.1144132271107D-02  4.6088532826397D-01
107  1.0600000000000D+00 -7.9847147198551D-02  4.1138863538903D-01
108  1.0700000000000D+00 -7.8069776106955D-02  3.6377390479696D-01
109  1.0800000000000D+00 -7.5867990817791D-02  3.1820061017079D-01
110  1.0900000000000D+00 -7.3296221233254D-02  2.7480996694531D-01
111  1.1000000000000D+00 -7.0407162478225D-02  2.3372489562102D-01
112  1.1100000000000D+00 -6.7251613616042D-02  1.9505028043676D-01
113  1.1200000000000D+00 -6.3878348664398D-02  1.5887352815892D-01
114  1.1300000000000D+00 -6.0334020252304D-02  1.2526542776779D-01
115  1.1400000000000D+00 -5.6663095977475D-02  9.4281308898858D-02
116  1.1500000000000D+00 -5.2907827065655D-02  6.5962492065121D-02
117  1.1600000000000D+00 -4.9108248654183D-02  4.0338020702027D-02
118  1.1700000000000D+00 -4.5302212236422D-02  1.7426690927599D-02
119  1.1800000000000D+00 -4.1525441694520D-02 -2.7607764013168D-03
120  1.1900000000000D+00 -3.7811625471508D-02 -2.0219163620514D-02
121  1.2000000000000D+00 -3.4192447919234D-02 -3.4947600965038D-02
122  1.2100000000000D+00 -3.0698149587244D-02 -4.6938764970051D-02
123  1.2200000000000D+00 -2.7356229232766D-02 -5.6203244280611D-02
124  1.2300000000000D+00 -2.4189640656185D-02 -6.2802547598631D-02
125  1.2400000000000D+00 -2.1215367975202D-02 -6.6872898904462D-02
126  1.2500000000000D+00 -1.8444927490546D-02 -6.8613372680996D-02
127  1.2600000000000D+00 -1.5885257096153D-02 -6.8267497244811D-02
128  1.2700000000000D+00 -1.3539344414279D-02 -6.6111100177720D-02
129  1.2800000000000D+00 -1.1406906875787D-02 -6.2439821808053D-02
130  1.2900000000000D+00 -9.4850069148002D-03 -5.7558440350150D-02
131  1.3000000000000D+00 -7.7685965779012D-03 -5.1771918075685D-02
132  1.3100000000000D+00 -6.2509873695404D-03 -4.5378079097943D-02
133  1.3200000000000D+00 -4.9242512907988D-03 -3.8661717459284D-02
134  1.3300000000000D+00 -3.7795556020835D-03 -3.1889984303619D-02
135  1.3400000000000D+00 -2.8074405609963D-03 -2.5308821520386D-02
136  1.3500000000000D+00 -1.9980458966295D-03 -1.9140302945196D-02
137  1.3600000000000D+00 -1.3412936876318D-03 -1.3580716016549D-02
138  1.3700000000000D+00 -8.2727768793077D-04 -8.8025082976170D-03
139  1.3800000000000D+00 -4.4421262914889D-04 -4.9255912408211D-03
140  1.3900000000000D+00 -1.8460707597028D-04 -2.0949806672120D-03
141  1.4000000000000D+00 -4.3582560894364D-05 -4.5445592918249D-04
142  1.4100000000000D+00  6.5004654970231D-06  1.5291821101621D-04
143  1.4200000000000D+00  7.1718666521354D-06  1.1921223202841D-04
144  1.4300000000000D+00 -1.9208399474954D-06 -2.9915007105502D-05
145  1.4400000000000D+00 -1.4257483865643D-06 -2.1840661389595D-05
146  1.4500000000000D+00  5.0307813491360D-07  7.7479835586919D-06
147  1.4600000000000D+00  7.8774347098797D-08  1.1997325847509D-06
148  1.4700000000000D+00 -1.5711389874506D-08 -4.0123191764359D-07
149  1.4800000000000D+00  0.0000000000000D+00  0.0000000000000D+00
150  1.4900000000000D+00  0.0000000000000D+00  0.0000000000000D+00
151  1.5000000000000D+00  0.0000000000000D+00  0.0000000000000D+00
152  1.5100000000000D+00  0.0000000000000D+00  0.0000000000000D+00
153  1.5200000000000D+00  0.0000000000000D+00  0.0000000000000D+00
154  1.5300000000000D+00  0.0000000000000D+00  0.0000000000000D+00
155  1.5400000000000D+00  0.0000000000000D+00  0.0000000000000D+00
156  1.5500000000000D+00  0.0000000000000D+00  0.0000000000000D+00
157  1.5600000000000D+00  0.0000000000000D+00  0.0000000000000D+00
158  1.5700000000000D+00  0.0000000000000D+00  0.0000000000000D+00
159  1.5800000000000D+00  0.0000000000000D+00  0.0000000000000D+00
160  1.5900000000000D+00  0.0000000000000D+00  0.0000000000000D+00
161  1.6000000000000D+00  0.0000000000000D+00  0.0000000000000D+00
162  1.6100000000000D+00  0.0000000000000D+00  0.0000000000000D+00
163  1.6200000000000D+00  0.0000000000000D+00  0.0000000000000D+00
164  1.6300000000000D+00  0.0000000000000D+00  0.0000000000000D+00
165  1.6400000000000D+00  0.0000000000000D+00  0.0000000000000D+00
166  1.6500000000000D+00  0.0000000000000D+00  0.0000000000000D+00
167  1.6600000000000D+00  0.0000000000000D+00  0.0000000000000D+00
168  1.6700000000000D+00  0.0000000000000D+00  0.0000000000000D+00
169  1.6800000000000D+00  0.0000000000000D+00  0.0000000000000D+00
170  1.6900000000000D+00  0.0000000000000D+00  0.0000000000000D+00
171  1.7000000000000D+00  0.0000000000000D+00  0.0000000000000D+00
172  1.7100000000000D+00  0.0000000000000D+00  0.0000000000000D+00
173  1.7200000000000D+00  0.0000000000000D+00  0.0000000000000D+00
174  1.7300000000000D+00  0.0000000000000D+00  0.0000000000000D+00
175  1.7400000000000D+00  0.0000000000000D+00  0.0000000000000D+00
176  1.7500000000000D+00  0.0000000000000D+00  0.0000000000000D+00
177  1.7600000000000D+00  0.0000000000000D+00  0.0000000000000D+00
178  1.7700000000000D+00  0.0000000000000D+00  0.0000000000000D+00
179  1.7800000000000D+00  0.0000000000000D+00  0.0000000000000D+00
180  1.7900000000000D+00  0.0000000000000D+00  0.0000000000000D+00
181  1.8000000000000D+00  0.0000000000000D+00  0.0000000000000D+00
182  1.8100000000000D+00  0.0000000000000D+00  0.0000000000000D+00
183  1.8200000000000D+00  0.0000000000000D+00  0.0000000000000D+00
184  1.8300000000000D+00  0.0000000000000D+00  0.0000000000000D+00
185  1.8400000000000D+00  0.0000000000000D+00  0.0000000000000D+00
186  1.8500000000000D+00  0.0000000000000D+00  0.0000000000000D+00
187  1.8600000000000D+00  0.0000000000000D+00  0.0000000000000D+00
188  1.8700000000000D+00  0.0000000000000D+00  0.0000000000000D+00
189  1.8800000000000D+00  0.0000000000000D+00  0.0000000000000D+00
190  1.8900000000000D+00  0.0000000000000D+00  0.0000000000000D+00
191  1.9000000000000D+00  0.0000000000000D+00  0.0000000000000D+00
192  1.9100000000000D+00  0.0000000000000D+00  0.0000000000000D+00
193  1.9200000000000D+00  0.0000000000000D+00  0.0000000000000D+00
194  1.9300000000000D+00  0.0000000000000D+00  0.0000000000000D+00
195  1.9400000000000D+00  0.0000000000000D+00  0.0000000000000D+00
196  1.9500000000000D+00  0.0000000000000D+00  0.0000000000000D+00
197  1.9600000000000D+00  0.0000000000000D+00  0.0000000000000D+00
198  1.9700000000000D+00  0.0000000000000D+00  0.0000000000000D+00
199  1.9800000000000D+00  0.0000000000000D+00  0.0000000000000D+00
200  1.9900000000000D+00  0.0000000000000D+00  0.0000000000000D+00
201  2.0000000000000D+00  0.0000000000000D+00  0.0000000000000D+00
202  2.0100000000000D+00  0.0000000000000D+00  0.0000000000000D+00
203  2.0200000000000D+00  0.0000000000000D+00  0.0000000000000D+00
204  2.0300000000000D+00  0.0000000000000D+00  0.0000000000000D+00
205  2.0400000000000D+00  0.0000000000000D+00  0.0000000000000D+00
206  2.0500000000000D+00  0.0000000000000D+00  0.0000000000000D+00
207  2.0600000000000D+00  0.0000000000000D+00  0.0000000000000D+00
208  2.0700000000000D+00  0.0000000000000D+00  0.0000000000000D+00
209  2.0800000000000D+00  0.0000000000000D+00  0.0000000000000D+00
210  2.0900000000000D+00  0.0000000000000D+00  0.0000000000000D+00
211  2.1000000000000D+00  0.0000000000000D+00  0.0000000000000D+00
212  2.1100000000000D+00  0.0000000000000D+00  0.0000000000000D+00
213  2.1200000000000D+00  0.0000000000000D+00  0.0000000000000D+00
214  2.1300000000000D+00  0.0000000000000D+00  0.0000000000000D+00
215  2.1400000000000D+00  0.0000000000000D+00  0.0000000000000D+00
216  2.1500000000000D+00  0.0000000000000D+00  0.0000000000000D+00
217  2.1600000000000D+00  0.0000000000000D+00  0.0000000000000D+00
218  2.1700000000000D+00  0.0000000000000D+00  0.0000000000000D+00
219  2.1800000000000D+00  0.0000000000000D+00  0.0000000000000D+00
220  2.1900000000000D+00  0.0000000000000D+00  0.0000000000000D+00
221  2.2000000000000D+00  0.0000000000000D+00  0.0000000000000D+00
222  2.2100000000000D+00  0.0000000000000D+00  0.0000000000000D+00
223  2.2200000000000D+00  0.0000000000000D+00  0.0000000000000D+00
224  2.2300000000000D+00  0.0000000000000D+00  0.0000000000000D+00
225  2.2400000000000D+00  0.0000000000000D+00  0.0000000000000D+00
226  2.2500000000000D+00  0.0000000000000D+00  0.0000000000000D+00
227  2.2600000000000D+00  0.0000000000000D+00  0.0000000000000D+00
228  2.2700000000000D+00  0.0000000000000D+00  0.0000000000000D+00
229  2.2800000000000D+00  0.0000000000000D+00  0.0000000000000D+00
230  2.2900000000000D+00  0.0000000000000D+00  0.0000000000000D+00
231  2.3000000000000D+00  0.0000000000000D+00  0.0000000000000D+00
232  2.3100000000000D+00  0.0000000000000D+00  0.0000000000000D+00
233  2.3200000000000D+00  0.0000000000000D+00  0.0000000000000D+00
234  2.3300000000000D+00  0.0000000000000D+00  0.0000000000000D+00
235  2.3400000000000D+00  0.0000000000000D+00  0.0000000000000D+00
236  2.3500000000000D+00  0.0000000000000D+00  0.0000000000000D+00
237  2.3600000000000D+00  0.0000000000000D+00  0.0000000000000D+00
238  2.3700000000000D+00  0.0000000000000D+00  0.0000000000000D+00
239  2.3800000000000D+00  0.0000000000000D+00  0.0000000000000D+00
240  2.3900000000000D+00  0.0000000000000D+00  0.0000000000000D+00
241  2.4000000000000D+00  0.0000000000000D+00  0.0000000000000D+00
242  2.4100000000000D+00  0.0000000000000D+00  0.0000000000000D+00
243  2.4200000000000D+00  0.0000000000000D+00  0.0000000000000D+00
244  2.4300000000000D+00  0.0000000000000D+00  0.0000000000000D+00
245  2.4400000000000D+00  0.0000000000000D+00  0.0000000000000D+00
246  2.4500000000000D+00  0.0000000000000D+00  0.0000000000000D+00
247  2.4600000000000D+00  0.0000000000000D+00  0.0000000000000D+00
248  2.4700000000000D+00  0.0000000000000D+00  0.0000000000000D+00
249  2.4800000000000D+00  0.0000000000000D+00  0.0000000000000D+00
250  2.4900000000000D+00  0.0000000000000D+00  0.0000000000000D+00
251  2.5000000000000D+00  0.0000000000000D+00  0.0000000000000D+00
252  2.5100000000000D+00  0.0000000000000D+00  0.0000000000000D+00
253  2.5200000000000D+00  0.0000000000000D+00  0.0000000000000D+00
254  2.5300000000000D+00  0.0000000000000D+00  0.0000000000000D+00
255  2.5400000000000D+00  0.0000000000000D+00  0.0000000000000D+00
256  2.5500000000000D+00  0.0000000000000D+00  0.0000000000000D+00
257  2.5600000000000D+00  0.0000000000000D+00  0.0000000000000D+00
258  2.5700000000000D+00  0.0000000000000D+00  0.0000000000000D+00
259  2.5800000000000D+00  0.0000000000000D+00  0.0000000000000D+00
260  2.5900000000000D+00  0.0000000000000D+00  0.0000000000000D+00
261  2.6000000000000D+00  0.0000000000000D+00  0.0000000000000D+00
262  2.6100000000000D+00  0.0000000000000D+00  0.0000000000000D+00
263  2.6200000000000D+00  0.0000000000000D+00  0.0000000000000D+00
264  2.6300000000000D+00  0.0000000000000D+00  0.0000000000000D+00
265  2.6400000000000D+00  0.0000000000000D+00  0.0000000000000D+00
266  2.6500000000000D+00  0.0000000000000D+00  0.0000000000000D+00
267  2.6600000000000D+00  0.0000000000000D+00  0.0000000000000D+00
268  2.6700000000000D+00  0.0000000000000D+00  0.0000000000000D+00
269  2.6800000000000D+00  0.0000000000000D+00  0.0000000000000D+00
270  2.6900000000000D+00  0.0000000000000D+00  0.0000000000000D+00
271  2.7000000000000D+00  0.0000000000000D+00  0.0000000000000D+00
272  2.7100000000000D+00  0.0000000000000D+00  0.0000000000000D+00
273  2.7200000000000D+00  0.0000000000000D+00  0.0000000000000D+00
274  2.7300000000000D+00  0.0000000000000D+00  0.0000000000000D+00
275  2.7400000000000D+00  0.0000000000000D+00  0.0000000000000D+00
276  2.7500000000000D+00  0.0000000000000D+00  0.0000000000000D+00
277  2.7600000000000D+00  0.0000000000000D+00  0.0000000000000D+00
278  2.7700000000000D+00  0.0000000000000D+00  0.0000000000000D+00
279  2.7800000000000D+00  0.0000000000000D+00  0.0000000000000D+00
280  2.7900000000000D+00  0.0000000000000D+00  0.0000000000000D+00
281  2.8000000000000D+00  0.0000000000000D+00  0.0000000000000D+00
282  2.8100000000000D+00  0.0000000000000D+00  0.0000000000000D+00
283  2.8200000000000D+00  0.0000000000000D+00  0.0000000000000D+00
284  2.8300000000000D+00  0.0000000000000D+00  0.0000000000000D+00
285  2.8400000000000D+00  0.0000000000000D+00  0.0000000000000D+00
286  2.8500000000000D+00  0.0000000000000D+00  0.0000000000000D+00
287  2.8600000000000D+00  0.0000000000000D+00  0.0000000000000D+00
288  2.8700000000000D+00  0.0000000000000D+00  0.0000000000000D+00
289  2.8800000000000D+00  0.0000000000000D+00  0.0000000000000D+00
290  2.8900000000000D+00  0.0000000000000D+00  0.0000000000000D+00
291  2.9000000000000D+00  0.0000000000000D+00  0.0000000000000D+00
292  2.9100000000000D+00  0.0000000000000D+00  0.0000000000000D+00
293  2.9200000000000D+00  0.0000000000000D+00  0.0000000000000D+00
294  2.9300000000000D+00  0.0000000000000D+00  0.0000000000000D+00
295  2.9400000000000D+00  0.0000000000000D+00  0.0000000000000D+00
296  2.9500000000000D+00  0.0000000000000D+00  0.0000000000000D+00
297  2.9600000000000D+00  0.0000000000000D+00  0.0000000000000D+00
298  2.9700000000000D+00  0.0000000000000D+00  0.0000000000000D+00
299  2.9800000000000D+00  0.0000000000000D+00  0.0000000000000D+00
300  2.9900000000000D+00  0.0000000000000D+00  0.0000000000000D+00
301  3.0000000000000D+00  0.0000000000000D+00  0.0000000000000D+00
302  3.0100000000000D+00  0.0000000000000D+00  0.0000000000000D+00
303  3.0200000000000D+00  0.0000000000000D+00  0.0000000000000D+00
304  3.0300000000000D+00  0.0000000000000D+00  0.0000000000000D+00
305  3.0400000000000D+00  0.0000000000000D+00  0.0000000000000D+00
306  3.0500000000000D+00  0.0000000000000D+00  0.0000000000000D+00
307  3.0600000000000D+00  0.0000000000000D+00  0.0000000000000D+00
308  3.0700000000000D+00  0.0000000000000D+00  0.0000000000000D+00
309  3.0800000000000D+00  0.0000000000000D+00  0.0000000000000D+00
310  3.0900000000000D+00  0.0000000000000D+00  0.0000000000000D+00
311  3.1000000000000D+00  0.0000000000000D+00  0.0000000000000D+00
312  3.1100000000000D+00  0.0000000000000D+00  0.0000000000000D+00
313  3.1200000000000D+00  0.0000000000000D+00  0.0000000000000D+00
314  3.1300000000000D+00  0.0000000000000D+00  0.0000000000000D+00
315  3.1400000000000D+00  0.0000000000000D+00  0.0000000000000D+00
316  3.1500000000000D+00  0.0000000000000D+00  0.0000000000000D+00
317  3.1600000000000D+00  0.0000000000000D+00  0.0000000000000D+00
318  3.1700000000000D+00  0.0000000000000D+00  0.0000000000000D+00
319  3.1800000000000D+00  0.0000000000000D+00  0.0000000000000D+00
320  3.1900000000000D+00  0.0000000000000D+00  0.0000000000000D+00
321  3.2000000000000D+00  0.0000000000000D+00  0.0000000000000D+00
322  3.2100000000000D+00  0.0000000000000D+00  0.0000000000000D+00
323  3.2200000000000D+00  0.0000000000000D+00  0.0000000000000D+00
324  3.2300000000000D+00  0.0000000000000D+00  0.0000000000000D+00
325  3.2400000000000D+00  0.0000000000000D+00  0.0000000000000D+00
326  3.2500000000000D+00  0.0000000000000D+00  0.0000000000000D+00
327  3.2600000000000D+00  0.0000000000000D+00  0.0000000000000D+00
328  3.2700000000000D+00  0.0000000000000D+00  0.0000000000000D+00
329  3.2800000000000D+00  0.0000000000000D+00  0.0000000000000D+00
330  3.2900000000000D+00  0.0000000000000D+00  0.0000000000000D+00
331  3.3000000000000D+00  0.0000000000000D+00  0.0000000000000D+00
332  3.3100000000000D+00  0.0000000000000D+00  0.0000000000000D+00
333  3.3200000000000D+00  0.0000000000000D+00  0.0000000000000D+00
334  3.3300000000000D+00  0.0000000000000D+00  0.0000000000000D+00
335  3.3400000000000D+00  0.0000000000000D+00  0.0000000000000D+00
336  3.3500000000000D+00  0.0000000000000D+00  0.0000000000000D+00
337  3.3600000000000D+00  0.0000000000000D+00  0.0000000000000D+00
338  3.3700000000000D+00  0.0000000000000D+00  0.0000000000000D+00
339  3.3800000000000D+00  0.0000000000000D+00  0.0000000000000D+00
340  3.3900000000000D+00  0.0000000000000D+00  0.0000000000000D+00
341  3.4000000000000D+00  0.0000000000000D+00  0.0000000000000D+00
342  3.4100000000000D+00  0.0000000000000D+00  0.0000000000000D+00
343  3.4200000000000D+00  0.0000000000000D+00  0.0000000000000D+00
344  3.4300000000000D+00  0.0000000000000D+00  0.0000000000000D+00
345  3.4400000000000D+00  0.0000000000000D+00  0.0000000000000D+00
346  3.4500000000000D+00  0.0000000000000D+00  0.0000000000000D+00
347  3.4600000000000D+00  0.0000000000000D+00  0.0000000000000D+00
348  3.4700000000000D+00  0.0000000000000D+00  0.0000000000000D+00
349  3.4800000000000D+00  0.0000000000000D+00  0.0000000000000D+00
350  3.4900000000000D+00  0.0000000000000D+00  0.0000000000000D+00
351  3.5000000000000D+00  0.0000000000000D+00  0.0000000000000D+00
352  3.5100000000000D+00  0.0000000000000D+00  0.0000000000000D+00
353  3.5200000000000D+00  0.0000000000000D+00  0.0000000000000D+00
354  3.5300000000000D+00  0.0000000000000D+00  0.0000000000000D+00
355  3.5400000000000D+00  0.0000000000000D+00  0.0000000000000D+00
356  3.5500000000000D+00  0.0000000000000D+00  0.0000000000000D+00
357  3.5600000000000D+00  0.0000000000000D+00  0.0000000000000D+00
358  3.5700000000000D+00  0.0000000000000D+00  0.0000000000000D+00
359  3.5800000000000D+00  0.0000000000000D+00  0.0000000000000D+00
360  3.5900000000000D+00  0.0000000000000D+00  0.0000000000000D+00
361  3.6000000000000D+00  0.0000000000000D+00  0.0000000000000D+00
362  3.6100000000000D+00  0.0000000000000D+00  0.0000000000000D+00
363  3.6200000000000D+00  0.0000000000000D+00  0.0000000000000D+00
364  3.6300000000000D+00  0.0000000000000D+00  0.0000000000000D+00
365  3.6400000000000D+00  0.0000000000000D+00  0.0000000000000D+00
366  3.6500000000000D+00  0.0000000000000D+00  0.0000000000000D+00
367  3.6600000000000D+00  0.0000000000000D+00  0.0000000000000D+00
368  3.6700000000000D+00  0.0000000000000D+00  0.0000000000000D+00
369  3.6800000000000D+00  0.0000000000000D+00  0.0000000000000D+00
370  3.6900000000000D+00  0.0000000000000D+00  0.0000000000000D+00
371  3.7000000000000D+00  0.0000000000000D+00  0.0000000000000D+00
372  3.7100000000000D+00  0.0000000000000D+00  0.0000000000000D+00
373  3.7200000000000D+00  0.0000000000000D+00  0.0000000000000D+00
374  3.7300000000000D+00  0.0000000000000D+00  0.0000000000000D+00
375  3.7400000000000D+00  0.0000000000000D+00  0.0000000000000D+00
376  3.7500000000000D+00  0.0000000000000D+00  0.0000000000000D+00
377  3.7600000000000D+00  0.0000000000000D+00  0.0000000000000D+00
378  3.7700000000000D+00  0.0000000000000D+00  0.0000000000000D+00
379  3.7800000000000D+00  0.0000000000000D+00  0.0000000000000D+00
380  3.7900000000000D+00  0.0000000000000D+00  0.0000000000000D+00
381  3.8000000000000D+00  0.0000000000000D+00  0.0000000000000D+00
382  3.8100000000000D+00  0.0000000000000D+00  0.0000000000000D+00
383  3.8200000000000D+00  0.0000000000000D+00  0.0000000000000D+00
384  3.8300000000000D+00  0.0000000000000D+00  0.0000000000000D+00
385  3.8400000000000D+00  0.0000000000000D+00  0.0000000000000D+00
386  3.8500000000000D+00  0.0000000000000D+00  0.0000000000000D+00
387  3.8600000000000D+00  0.0000000000000D+00  0.0000000000000D+00
388  3.8700000000000D+00  0.0000000000000D+00  0.0000000000000D+00
389  3.8800000000000D+00  0.0000000000000D+00  0.0000000000000D+00
390  3.8900000000000D+00  0.0000000000000D+00  0.0000000000000D+00
391  3.9000000000000D+00  0.0000000000000D+00  0.0000000000000D+00
392  3.9100000000000D+00  0.0000000000000D+00  0.0000000000000D+00
393  3.9200000000000D+00  0.0000000000000D+00  0.0000000000000D+00
394  3.9300000000000D+00  0.0000000000000D+00  0.0000000000000D+00
395  3.9400000000000D+00  0.0000000000000D+00  0.0000000000000D+00
396  3.9500000000000D+00  0.0000000000000D+00  0.0000000000000D+00
397  3.9600000000000D+00  0.0000000000000D+00  0.0000000000000D+00
398  3.9700000000000D+00  0.0000000000000D+00  0.0000000000000D+00
399  3.9800000000000D+00  0.0000000000000D+00  0.0000000000000D+00
400  3.9900000000000D+00  0.0000000000000D+00  0.0000000000000D+00
401  4.0000000000000D+00  0.0000000000000D+00  0.0000000000000D+00
402  4.0100000000000D+00  0.0000000000000D+00  0.0000000000000D+00
403  4.0200000000000D+00  0.0000000000000D+00  0.0000000000000D+00
404  4.0300000000000D+00  0.0000000000000D+00  0.0000000000000D+00
405  4.0400000000000D+00  0.0000000000000D+00  0.0000000000000D+00
406  4.0500000000000D+00  0.0000000000000D+00  0.0000000000000D+00
407  4.0600000000000D+00  0.0000000000000D+00  0.0000000000000D+00
408  4.0700000000000D+00  0.0000000000000D+00  0.0000000000000D+00
409  4.0800000000000D+00  0.0000000000000D+00  0.0000000000000D+00
410  4.0900000000000D+00  0.0000000000000D+00  0.0000000000000D+00
411  4.1000000000000D+00  0.0000000000000D+00  0.0000000000000D+00
412  4.1100000000000D+00  0.0000000000000D+00  0.0000000000000D+00
413  4.1200000000000D+00  0.0000000000000D+00  0.0000000000000D+00
414  4.1300000000000D+00  0.0000000000000D+00  0.0000000000000D+00
415  4.1400000000000D+00  0.0000000000000D+00  0.0000000000000D+00
416  4.1500000000000D+00  0.0000000000000D+00  0.0000000000000D+00
417  4.1600000000000D+00  0.0000000000000D+00  0.0000000000000D+00
418  4.1700000000000D+00  0.0000000000000D+00  0.0000000000000D+00
419  4.1800000000000D+00  0.0000000000000D+00  0.0000000000000D+00
420  4.1900000000000D+00  0.0000000000000D+00  0.0000000000000D+00
421  4.2000000000000D+00  0.0000000000000D+00  0.0000000000000D+00
422  4.2100000000000D+00  0.0000000000000D+00  0.0000000000000D+00
423  4.2200000000000D+00  0.0000000000000D+00  0.0000000000000D+00
424  4.2300000000000D+00  0.0000000000000D+00  0.0000000000000D+00
425  4.2400000000000D+00  0.0000000000000D+00  0.0000000000000D+00
426  4.2500000000000D+00  0.0000000000000D+00  0.0000000000000D+00
427  4.2600000000000D+00  0.0000000000000D+00  0.0000000000000D+00
428  4.2700000000000D+00  0.0000000000000D+00  0.0000000000000D+00
429  4.2800000000000D+00  0.0000000000000D+00  0.0000000000000D+00
430  4.2900000000000D+00  0.0000000000000D+00  0.0000000000000D+00
431  4.3000000000000D+00  0.0000000000000D+00  0.0000000000000D+00
432  4.3100000000000D+00  0.0000000000000D+00  0.0000000000000D+00
433  4.3200000000000D+00  0.0000000000000D+00  0.0000000000000D+00
434  4.3300000000000D+00  0.0000000000000D+00  0.0000000000000D+00
435  4.3400000000000D+00  0.0000000000000D+00  0.0000000000000D+00
436  4.3500000000000D+00  0.0000000000000D+00  0.0000000000000D+00
437  4.3600000000000D+00  0.0000000000000D+00  0.0000000000000D+00
438  4.3700000000000D+00  0.0000000000000D+00  0.0000000000000D+00
439  4.3800000000000D+00  0.0000000000000D+00  0.0000000000000D+00
440  4.3900000000000D+00  0.0000000000000D+00  0.0000000000000D+00
441  4.4000000000000D+00  0.0000000000000D+00  0.0000000000000D+00
442  4.4100000000000D+00  0.0000000000000D+00  0.0000000000000D+00
443  4.4200000000000D+00  0.0000000000000D+00  0.0000000000000D+00