P     ONCVPSP-3.2.3.1  r_core=   1.46089   1.55067   1.70594
15.0000      5.0000      170429    zatom,zion,pspd
8      11   2     4   600     0    pspcod,pspxc,lmax,lloc,mmax,r2well
5.99000000  5.00000000  0.00000000    rchrg fchrg qchrg
2     2     2     0     0    nproj
1     1           extension_switch
0                         6.5987217472880D+00  1.0523413858461D+00
1  0.0000000000000D+00 -1.7843262922757D-08  4.3303683749940D-08
2  1.0000000000000D-02  5.6646201283736D-02 -5.2493920729883D-02
3  2.0000000000000D-02  1.1274394998422D-01 -1.0371210656417D-01
4  3.0000000000000D-02  1.6775599342775D-01 -1.5240594702909D-01
5  4.0000000000000D-02  2.2116724732778D-01 -1.9738051924477D-01
6  5.0000000000000D-02  2.7249530609086D-01 -2.3752003998614D-01
7  6.0000000000000D-02  3.2130027750217D-01 -2.7181167931989D-01
8  7.0000000000000D-02  3.6719373804603D-01 -2.9936724176394D-01
9  8.0000000000000D-02  4.0984662295975D-01 -3.1944226421926D-01
10  9.0000000000000D-02  4.4899588674589D-01 -3.3145213240722D-01
11  1.0000000000000D-01  4.8444979484427D-01 -3.3498487815742D-01
12  1.1000000000000D-01  5.1609173499324D-01 -3.2981038741889D-01
13  1.2000000000000D-01  5.4388246693179D-01 -3.1588582195910D-01
14  1.3000000000000D-01  5.6786076090705D-01 -2.9335713490487D-01
15  1.4000000000000D-01  5.8814240831897D-01 -2.6255664001958D-01
16  1.5000000000000D-01  6.0491762109400D-01 -2.2399667529933D-01
17  1.6000000000000D-01  6.1844686936700D-01 -1.7835948148616D-01
18  1.7000000000000D-01  6.2905523909889D-01 -1.2648349382604D-01
19  1.8000000000000D-01  6.3712542172323D-01 -6.9346319276061D-02
20  1.9000000000000D-01  6.4308947618035D-01 -8.0447398943076D-03
21  2.0000000000000D-01  6.4741952919196D-01  5.6227855061875D-02
22  2.1000000000000D-01  6.5061760183234D-01  1.2220615200721D-01
23  2.2000000000000D-01  6.5320476891135D-01  1.8857920984709D-01
24  2.3000000000000D-01  6.5570987201885D-01  2.5401783503898D-01
25  2.4000000000000D-01  6.5865801699096D-01  3.1720247525227D-01
26  2.5000000000000D-01  6.6255909183464D-01  3.7685105929561D-01
27  2.6000000000000D-01  6.6789654166902D-01  4.3174620983512D-01
28  2.7000000000000D-01  6.7511663298451D-01  4.8076126588116D-01
29  2.8000000000000D-01  6.8461843055425D-01  5.2288457390205D-01
30  2.9000000000000D-01  6.9674469682168D-01  5.5724153932892D-01
31  3.0000000000000D-01  7.1177390578734D-01  5.8311397352516D-01
32  3.1000000000000D-01  7.2991354166992D-01  5.9995632417295D-01
33  3.2000000000000D-01  7.5129482734184D-01  6.0740843845475D-01
34  3.3000000000000D-01  7.7596899923100D-01  6.0530457717942D-01
35  3.4000000000000D-01  8.0390521459369D-01  5.9367847276941D-01
36  3.5000000000000D-01  8.3499014440344D-01  5.7276430331763D-01
37  3.6000000000000D-01  8.6902927121506D-01  5.4299353716516D-01
38  3.7000000000000D-01  9.0574987692195D-01  5.0498768601416D-01
39  3.8000000000000D-01  9.4480567101676D-01  4.5954708780432D-01
40  3.9000000000000D-01  9.8578297647399D-01  4.0763592178349D-01
41  4.0000000000000D-01  1.0282083583741D+00  3.5036373575297D-01
42  4.1000000000000D-01  1.0715575505249D+00  2.8896383780722D-01
43  4.2000000000000D-01  1.1152655082154D+00  2.2476897053881D-01
44  4.3000000000000D-01  1.1587373914126D+00  1.5918474330053D-01
45  4.4000000000000D-01  1.2013602626790D+00  9.3661346517009D-02
46  4.5000000000000D-01  1.2425152682559D+00  2.9664110205131D-02
47  4.6000000000000D-01  1.2815900594756D+00 -3.1356504019219D-02
48  4.7000000000000D-01  1.3179912051704D+00 -8.7994872700161D-02
49  4.8000000000000D-01  1.3511563442000D+00 -1.3891953386682D-01
50  4.9000000000000D-01  1.3805658306769D+00 -1.8290126442877D-01
51  5.0000000000000D-01  1.4057536328866D+00 -2.1883933289123D-01
52  5.1000000000000D-01  1.4263172601441D+00 -2.4578538109672D-01
53  5.2000000000000D-01  1.4419265096601D+00 -2.6296443228768D-01
54  5.3000000000000D-01  1.4523308475736D+00 -2.6979257666953D-01
55  5.4000000000000D-01  1.4573652642405D+00 -2.6589094887354D-01
56  5.5000000000000D-01  1.4569544731839D+00 -2.5109568311336D-01
57  5.6000000000000D-01  1.4511153551326D+00 -2.2546360976474D-01
58  5.7000000000000D-01  1.4399575829226D+00 -1.8927354064639D-01
59  5.8000000000000D-01  1.4236823987011D+00 -1.4302307697111D-01
60  5.9000000000000D-01  1.4025795515638D+00 -8.7420963093089D-02
61  6.0000000000000D-01  1.3770224403057D+00 -2.3375097915564D-02
62  6.1000000000000D-01  1.3474615421656D+00  4.8023596319750D-02
63  6.2000000000000D-01  1.3144162429613D+00  1.2552116443389D-01
64  6.3000000000000D-01  1.2784652168574D+00  2.0772410488647D-01
65  6.4000000000000D-01  1.2402355338473D+00  2.9312591726223D-01
66  6.5000000000000D-01  1.2003906997354D+00  3.8013621083666D-01
67  6.6000000000000D-01  1.1596178562576D+00  4.6711181921693D-01
68  6.7000000000000D-01  1.1186143874178D+00  5.5238932165481D-01
69  6.8000000000000D-01  1.0780741919242D+00  6.3431833851393D-01
70  6.9000000000000D-01  1.0386738903880D+00  7.1129494751816D-01
71  7.0000000000000D-01  1.0010592394588D+00  7.8179455936863D-01
72  7.1000000000000D-01  9.6583202331350D-01  8.4440359610291D-01
73  7.2000000000000D-01  9.3353768581555D-01  8.9784933334696D-01
74  7.3000000000000D-01  9.0465395431242D-01  9.4102729815382D-01
75  7.4000000000000D-01  8.7958068871806D-01  9.7302565672995D-01
76  7.5000000000000D-01  8.5863116748623D-01  9.9314608042879D-01
77  7.6000000000000D-01  8.4202499566135D-01  1.0009206430775D+00
78  7.7000000000000D-01  8.2988279016584D-01  9.9612437613276D-01
79  7.8000000000000D-01  8.2222276387051D-01  9.7878319026501D-01
80  7.9000000000000D-01  8.1895929404221D-01  9.4917695971558D-01
81  8.0000000000000D-01  8.1990352273225D-01  9.0783765851185D-01
82  8.1000000000000D-01  8.2476599744981D-01  8.5554253319955D-01
83  8.2000000000000D-01  8.3316132079209D-01  7.9330239335995D-01
84  8.3000000000000D-01  8.4461473833820D-01  7.2234519697061D-01
85  8.4000000000000D-01  8.5857055582898D-01  6.4409520076297D-01
86  8.5000000000000D-01  8.7440224019908D-01  5.6014803430204D-01
87  8.6000000000000D-01  8.9142402512139D-01  4.7224213881184D-01
88  8.7000000000000D-01  9.0890381104260D-01  3.8222708615256D-01
89  8.8000000000000D-01  9.2607712284703D-01  2.9202935832768D-01
90  8.9000000000000D-01  9.4216186583053D-01  2.0361622213660D-01
91  9.0000000000000D-01  9.5637360305933D-01  1.1895837596768D-01
92  9.1000000000000D-01  9.6794106480295D-01  3.9992075350585D-02
93  9.2000000000000D-01  9.7612159383806D-01 -3.1418539905465D-02
94  9.3000000000000D-01  9.8021622919064D-01 -9.3518191770986D-02
95  9.4000000000000D-01  9.7958413537530D-01 -1.4469556959951D-01
96  9.5000000000000D-01  9.7365609430857D-01 -1.8351610689782D-01
97  9.6000000000000D-01  9.6194679296943D-01 -2.0875178024506D-01
98  9.7000000000000D-01  9.4406566039522D-01 -2.1940733192721D-01
99  9.8000000000000D-01  9.1972603367737D-01 -2.1474238198971D-01
100  9.9000000000000D-01  8.8875246283177D-01 -1.9428896957838D-01
101  1.0000000000000D+00  8.5108599830917D-01 -1.5786414653943D-01
102  1.0100000000000D+00  8.0678734226587D-01 -1.0557733775043D-01
103  1.0200000000000D+00  7.5603778432355D-01 -3.7832279595158D-02
104  1.0300000000000D+00  6.9913788503509D-01  4.4676548099991D-02
105  1.0400000000000D+00  6.3650391085526D-01  1.4097298216733D-01
106  1.0500000000000D+00  5.6866206897815D-01  2.4981360489166D-01
107  1.0600000000000D+00  4.9624063204077D-01  3.6970731652942D-01
108  1.0700000000000D+00  4.1996008273661D-01  4.9893972890943D-01
109  1.0800000000000D+00  3.4062144794529D-01  6.3560196104800D-01
110  1.0900000000000D+00  2.5909302566978D-01  7.7762333568127D-01
111  1.1000000000000D+00  1.7629574090219D-01  9.2280739573630D-01
112  1.1100000000000D+00  9.3187394820933D-02  1.0688705910690D+00
113  1.1200000000000D+00  1.0746092863564D-02  1.2134829345394D+00
114  1.1300000000000D+00 -7.0046845051546D-02  1.3543098836815D+00
115  1.1400000000000D+00 -1.4822417746923D-01  1.4890546767167D+00
116  1.1500000000000D+00 -2.2284991542254D-01  1.6155003342338D+00
117  1.1600000000000D+00 -2.9303605777347D-01  1.7315505439524D+00
118  1.1700000000000D+00 -3.5795857549482D-01  1.8352686646308D+00
119  1.1800000000000D+00 -4.1687233901465D-01  1.9249141014660D+00
120  1.1900000000000D+00 -4.6912470720122D-01  1.9989753657940D+00
121  1.2000000000000D+00 -5.1416752075852D-01  2.0561991914382D+00
122  1.2100000000000D+00 -5.5156726293556D-01  2.0956151296618D+00
123  1.2200000000000D+00 -5.8101318959397D-01  2.1165551409231D+00
124  1.2300000000000D+00 -6.0232327182602D-01  2.1186678026109D+00
125  1.2400000000000D+00 -6.1544782829496D-01  2.1019268353084D+00
126  1.2500000000000D+00 -6.2047075834658D-01  2.0666337332853D+00
127  1.2600000000000D+00 -6.1760835516129D-01  2.0134144521023D+00
128  1.2700000000000D+00 -6.0720570780322D-01  1.9432101786574D+00
129  1.2800000000000D+00 -5.8973072959559D-01  1.8572622790701D+00
130  1.2900000000000D+00 -5.6576593594612D-01  1.7570917295780D+00
131  1.3000000000000D+00 -5.3599810533619D-01  1.6444733614659D+00
132  1.3100000000000D+00 -5.0120599007858D-01  1.5214053316311D+00
133  1.3200000000000D+00 -4.6224632169317D-01  1.3900744216823D+00
134  1.3300000000000D+00 -4.2003834322043D-01  1.2528177377658D+00
135  1.3400000000000D+00 -3.7554714838506D-01  1.1120814997575D+00
136  1.3500000000000D+00 -3.2976614313288D-01  9.7037769519759D-01
137  1.3600000000000D+00 -2.8369892971902D-01  8.3023933593727D-01
138  1.3700000000000D+00 -2.3834096169578D-01  6.9417517300772D-01
139  1.3800000000000D+00 -1.9466128859870D-01  5.6462465247455D-01
140  1.3900000000000D+00 -1.5358474137972D-01  4.4391397440656D-01
141  1.4000000000000D+00 -1.1597487405608D-01  3.3421402893349D-01
142  1.4100000000000D+00 -8.2619667590640D-02  2.3750582502601D-01
143  1.4200000000000D+00 -5.4229320432981D-02  1.5557996662979D-01
144  1.4300000000000D+00 -3.1263484802023D-02  8.9547765075480D-02
145  1.4400000000000D+00 -1.4376168491541D-02  4.1117429957610D-02
146  1.4500000000000D+00 -4.3448366439940D-03  1.2393193643335D-02
147  1.4600000000000D+00 -1.7836070898610D-04  4.7876178899972D-04
148  1.4700000000000D+00  4.5812260117953D-04 -1.3234427568195D-03
149  1.4800000000000D+00 -5.4038852911438D-05  1.5570368635116D-04
150  1.4900000000000D+00 -1.2801399427278D-04  3.6833059030203D-04
151  1.5000000000000D+00  1.9015356374166D-05 -5.4923449596641D-05
152  1.5100000000000D+00  1.7441425378876D-05 -5.0344053405286D-05
153  1.5200000000000D+00  4.1652816565849D-08 -4.2215058355929D-08
154  1.5300000000000D+00  1.6892279366114D-08 -1.7120296248822D-08
155  1.5400000000000D+00  0.0000000000000D+00  0.0000000000000D+00
156  1.5500000000000D+00  0.0000000000000D+00  0.0000000000000D+00
157  1.5600000000000D+00  0.0000000000000D+00  0.0000000000000D+00
158  1.5700000000000D+00  0.0000000000000D+00  0.0000000000000D+00
159  1.5800000000000D+00  0.0000000000000D+00  0.0000000000000D+00
160  1.5900000000000D+00  0.0000000000000D+00  0.0000000000000D+00
161  1.6000000000000D+00  0.0000000000000D+00  0.0000000000000D+00
162  1.6100000000000D+00  0.0000000000000D+00  0.0000000000000D+00
163  1.6200000000000D+00  0.0000000000000D+00  0.0000000000000D+00
164  1.6300000000000D+00  0.0000000000000D+00  0.0000000000000D+00
165  1.6400000000000D+00  0.0000000000000D+00  0.0000000000000D+00
166  1.6500000000000D+00  0.0000000000000D+00  0.0000000000000D+00
167  1.6600000000000D+00  0.0000000000000D+00  0.0000000000000D+00
168  1.6700000000000D+00  0.0000000000000D+00  0.0000000000000D+00
169  1.6800000000000D+00  0.0000000000000D+00  0.0000000000000D+00
170  1.6900000000000D+00  0.0000000000000D+00  0.0000000000000D+00
171  1.7000000000000D+00  0.0000000000000D+00  0.0000000000000D+00
172  1.7100000000000D+00  0.0000000000000D+00  0.0000000000000D+00
173  1.7200000000000D+00  0.0000000000000D+00  0.0000000000000D+00
174  1.7300000000000D+00  0.0000000000000D+00  0.0000000000000D+00
175  1.7400000000000D+00  0.0000000000000D+00  0.0000000000000D+00
176  1.7500000000000D+00  0.0000000000000D+00  0.0000000000000D+00
177  1.7600000000000D+00  0.0000000000000D+00  0.0000000000000D+00
178  1.7700000000000D+00  0.0000000000000D+00  0.0000000000000D+00
179  1.7800000000000D+00  0.0000000000000D+00  0.0000000000000D+00
180  1.7900000000000D+00  0.0000000000000D+00  0.0000000000000D+00
181  1.8000000000000D+00  0.0000000000000D+00  0.0000000000000D+00
182  1.8100000000000D+00  0.0000000000000D+00  0.0000000000000D+00
183  1.8200000000000D+00  0.0000000000000D+00  0.0000000000000D+00
184  1.8300000000000D+00  0.0000000000000D+00  0.0000000000000D+00
185  1.8400000000000D+00  0.0000000000000D+00  0.0000000000000D+00
186  1.8500000000000D+00  0.0000000000000D+00  0.0000000000000D+00
187  1.8600000000000D+00  0.0000000000000D+00  0.0000000000000D+00
188  1.8700000000000D+00  0.0000000000000D+00  0.0000000000000D+00
189  1.8800000000000D+00  0.0000000000000D+00  0.0000000000000D+00
190  1.8900000000000D+00  0.0000000000000D+00  0.0000000000000D+00
191  1.9000000000000D+00  0.0000000000000D+00  0.0000000000000D+00
192  1.9100000000000D+00  0.0000000000000D+00  0.0000000000000D+00
193  1.9200000000000D+00  0.0000000000000D+00  0.0000000000000D+00
194  1.9300000000000D+00  0.0000000000000D+00  0.0000000000000D+00
195  1.9400000000000D+00  0.0000000000000D+00  0.0000000000000D+00
196  1.9500000000000D+00  0.0000000000000D+00  0.0000000000000D+00
197  1.9600000000000D+00  0.0000000000000D+00  0.0000000000000D+00
198  1.9700000000000D+00  0.0000000000000D+00  0.0000000000000D+00
199  1.9800000000000D+00  0.0000000000000D+00  0.0000000000000D+00
200  1.9900000000000D+00  0.0000000000000D+00  0.0000000000000D+00
201  2.0000000000000D+00  0.0000000000000D+00  0.0000000000000D+00
202  2.0100000000000D+00  0.0000000000000D+00  0.0000000000000D+00
203  2.0200000000000D+00  0.0000000000000D+00  0.0000000000000D+00
204  2.0300000000000D+00  0.0000000000000D+00  0.0000000000000D+00
205  2.0400000000000D+00  0.0000000000000D+00  0.0000000000000D+00
206  2.0500000000000D+00  0.0000000000000D+00  0.0000000000000D+00
207  2.0600000000000D+00  0.0000000000000D+00  0.0000000000000D+00
208  2.0700000000000D+00  0.0000000000000D+00  0.0000000000000D+00
209  2.0800000000000D+00  0.0000000000000D+00  0.0000000000000D+00
210  2.0900000000000D+00  0.0000000000000D+00  0.0000000000000D+00
211  2.1000000000000D+00  0.0000000000000D+00  0.0000000000000D+00
212  2.1100000000000D+00  0.0000000000000D+00  0.0000000000000D+00
213  2.1200000000000D+00  0.0000000000000D+00  0.0000000000000D+00
214  2.1300000000000D+00  0.0000000000000D+00  0.0000000000000D+00
215  2.1400000000000D+00  0.0000000000000D+00  0.0000000000000D+00
216  2.1500000000000D+00  0.0000000000000D+00  0.0000000000000D+00
217  2.1600000000000D+00  0.0000000000000D+00  0.0000000000000D+00
218  2.1700000000000D+00  0.0000000000000D+00  0.0000000000000D+00
219  2.1800000000000D+00  0.0000000000000D+00  0.0000000000000D+00
220  2.1900000000000D+00  0.0000000000000D+00  0.0000000000000D+00
221  2.2000000000000D+00  0.0000000000000D+00  0.0000000000000D+00
222  2.2100000000000D+00  0.0000000000000D+00  0.0000000000000D+00
223  2.2200000000000D+00  0.0000000000000D+00  0.0000000000000D+00
224  2.2300000000000D+00  0.0000000000000D+00  0.0000000000000D+00
225  2.2400000000000D+00  0.0000000000000D+00  0.0000000000000D+00
226  2.2500000000000D+00  0.0000000000000D+00  0.0000000000000D+00
227  2.2600000000000D+00  0.0000000000000D+00  0.0000000000000D+00
228  2.2700000000000D+00  0.0000000000000D+00  0.0000000000000D+00
229  2.2800000000000D+00  0.0000000000000D+00  0.0000000000000D+00
230  2.2900000000000D+00  0.0000000000000D+00  0.0000000000000D+00
231  2.3000000000000D+00  0.0000000000000D+00  0.0000000000000D+00
232  2.3100000000000D+00  0.0000000000000D+00  0.0000000000000D+00
233  2.3200000000000D+00  0.0000000000000D+00  0.0000000000000D+00
234  2.3300000000000D+00  0.0000000000000D+00  0.0000000000000D+00
235  2.3400000000000D+00  0.0000000000000D+00  0.0000000000000D+00
236  2.3500000000000D+00  0.0000000000000D+00  0.0000000000000D+00
237  2.3600000000000D+00  0.0000000000000D+00  0.0000000000000D+00
238  2.3700000000000D+00  0.0000000000000D+00  0.0000000000000D+00
239  2.3800000000000D+00  0.0000000000000D+00  0.0000000000000D+00
240  2.3900000000000D+00  0.0000000000000D+00  0.0000000000000D+00
241  2.4000000000000D+00  0.0000000000000D+00  0.0000000000000D+00
242  2.4100000000000D+00  0.0000000000000D+00  0.0000000000000D+00
243  2.4200000000000D+00  0.0000000000000D+00  0.0000000000000D+00
244  2.4300000000000D+00  0.0000000000000D+00  0.0000000000000D+00
245  2.4400000000000D+00  0.0000000000000D+00  0.0000000000000D+00
246  2.4500000000000D+00  0.0000000000000D+00  0.0000000000000D+00
247  2.4600000000000D+00  0.0000000000000D+00  0.0000000000000D+00
248  2.4700000000000D+00  0.0000000000000D+00  0.0000000000000D+00
249  2.4800000000000D+00  0.0000000000000D+00  0.0000000000000D+00
250  2.4900000000000D+00  0.0000000000000D+00  0.0000000000000D+00
251  2.5000000000000D+00  0.0000000000000D+00  0.0000000000000D+00
252  2.5100000000000D+00  0.0000000000000D+00  0.0000000000000D+00
253  2.5200000000000D+00  0.0000000000000D+00  0.0000000000000D+00
254  2.5300000000000D+00  0.0000000000000D+00  0.0000000000000D+00
255  2.5400000000000D+00  0.0000000000000D+00  0.0000000000000D+00
256  2.5500000000000D+00  0.0000000000000D+00  0.0000000000000D+00
257  2.5600000000000D+00  0.0000000000000D+00  0.0000000000000D+00
258  2.5700000000000D+00  0.0000000000000D+00  0.0000000000000D+00
259  2.5800000000000D+00  0.0000000000000D+00  0.0000000000000D+00
260  2.5900000000000D+00  0.0000000000000D+00  0.0000000000000D+00
261  2.6000000000000D+00  0.0000000000000D+00  0.0000000000000D+00
262  2.6100000000000D+00  0.0000000000000D+00  0.0000000000000D+00
263  2.6200000000000D+00  0.0000000000000D+00  0.0000000000000D+00
264  2.6300000000000D+00  0.0000000000000D+00  0.0000000000000D+00
265  2.6400000000000D+00  0.0000000000000D+00  0.0000000000000D+00
266  2.6500000000000D+00  0.0000000000000D+00  0.0000000000000D+00
267  2.6600000000000D+00  0.0000000000000D+00  0.0000000000000D+00
268  2.6700000000000D+00  0.0000000000000D+00  0.0000000000000D+00
269  2.6800000000000D+00  0.0000000000000D+00  0.0000000000000D+00
270  2.6900000000000D+00  0.0000000000000D+00  0.0000000000000D+00
271  2.7000000000000D+00  0.0000000000000D+00  0.0000000000000D+00
272  2.7100000000000D+00  0.0000000000000D+00  0.0000000000000D+00
273  2.7200000000000D+00  0.0000000000000D+00  0.0000000000000D+00
274  2.7300000000000D+00  0.0000000000000D+00  0.0000000000000D+00
275  2.7400000000000D+00  0.0000000000000D+00  0.0000000000000D+00
276  2.7500000000000D+00  0.0000000000000D+00  0.0000000000000D+00
277  2.7600000000000D+00  0.0000000000000D+00  0.0000000000000D+00
278  2.7700000000000D+00  0.0000000000000D+00  0.0000000000000D+00
279  2.7800000000000D+00  0.0000000000000D+00  0.0000000000000D+00
280  2.7900000000000D+00  0.0000000000000D+00  0.0000000000000D+00
281  2.8000000000000D+00  0.0000000000000D+00  0.0000000000000D+00
282  2.8100000000000D+00  0.0000000000000D+00  0.0000000000000D+00
283  2.8200000000000D+00  0.0000000000000D+00  0.0000000000000D+00
284  2.8300000000000D+00  0.0000000000000D+00  0.0000000000000D+00
285  2.8400000000000D+00  0.0000000000000D+00  0.0000000000000D+00
286  2.8500000000000D+00  0.0000000000000D+00  0.0000000000000D+00
287  2.8600000000000D+00  0.0000000000000D+00  0.0000000000000D+00
288  2.8700000000000D+00  0.0000000000000D+00  0.0000000000000D+00
289  2.8800000000000D+00  0.0000000000000D+00  0.0000000000000D+00
290  2.8900000000000D+00  0.0000000000000D+00  0.0000000000000D+00
291  2.9000000000000D+00  0.0000000000000D+00  0.0000000000000D+00
292  2.9100000000000D+00  0.0000000000000D+00  0.0000000000000D+00
293  2.9200000000000D+00  0.0000000000000D+00  0.0000000000000D+00
294  2.9300000000000D+00  0.0000000000000D+00  0.0000000000000D+00
295  2.9400000000000D+00  0.0000000000000D+00  0.0000000000000D+00
296  2.9500000000000D+00  0.0000000000000D+00  0.0000000000000D+00
297  2.9600000000000D+00  0.0000000000000D+00  0.0000000000000D+00
298  2.9700000000000D+00  0.0000000000000D+00  0.0000000000000D+00
299  2.9800000000000D+00  0.0000000000000D+00  0.0000000000000D+00
300  2.9900000000000D+00  0.0000000000000D+00  0.0000000000000D+00
301  3.0000000000000D+00  0.0000000000000D+00  0.0000000000000D+00
302  3.0100000000000D+00  0.0000000000000D+00  0.0000000000000D+00
303  3.0200000000000D+00  0.0000000000000D+00  0.0000000000000D+00
304  3.0300000000000D+00  0.0000000000000D+00  0.0000000000000D+00
305  3.0400000000000D+00  0.0000000000000D+00  0.0000000000000D+00
306  3.0500000000000D+00  0.0000000000000D+00  0.0000000000000D+00
307  3.0600000000000D+00  0.0000000000000D+00  0.0000000000000D+00
308  3.0700000000000D+00  0.0000000000000D+00  0.0000000000000D+00
309  3.0800000000000D+00  0.0000000000000D+00  0.0000000000000D+00
310  3.0900000000000D+00  0.0000000000000D+00  0.0000000000000D+00
311  3.1000000000000D+00  0.0000000000000D+00  0.0000000000000D+00
312  3.1100000000000D+00  0.0000000000000D+00  0.0000000000000D+00
313  3.1200000000000D+00  0.0000000000000D+00  0.0000000000000D+00
314  3.1300000000000D+00  0.0000000000000D+00  0.0000000000000D+00
315  3.1400000000000D+00  0.0000000000000D+00  0.0000000000000D+00
316  3.1500000000000D+00  0.0000000000000D+00  0.0000000000000D+00
317  3.1600000000000D+00  0.0000000000000D+00  0.0000000000000D+00
318  3.1700000000000D+00  0.0000000000000D+00  0.0000000000000D+00
319  3.1800000000000D+00  0.0000000000000D+00  0.0000000000000D+00
320  3.1900000000000D+00  0.0000000000000D+00  0.0000000000000D+00
321  3.2000000000000D+00  0.0000000000000D+00  0.0000000000000D+00
322  3.2100000000000D+00  0.0000000000000D+00  0.0000000000000D+00
323  3.2200000000000D+00  0.0000000000000D+00  0.0000000000000D+00
324  3.2300000000000D+00  0.0000000000000D+00  0.0000000000000D+00
325  3.2400000000000D+00  0.0000000000000D+00  0.0000000000000D+00
326  3.2500000000000D+00  0.0000000000000D+00  0.0000000000000D+00
327  3.2600000000000D+00  0.0000000000000D+00  0.0000000000000D+00
328  3.2700000000000D+00  0.0000000000000D+00  0.0000000000000D+00
329  3.2800000000000D+00  0.0000000000000D+00  0.0000000000000D+00
330  3.2900000000000D+00  0.0000000000000D+00  0.0000000000000D+00
331  3.3000000000000D+00  0.0000000000000D+00  0.0000000000000D+00
332  3.3100000000000D+00  0.0000000000000D+00  0.0000000000000D+00
333  3.3200000000000D+00  0.0000000000000D+00  0.0000000000000D+00
334  3.3300000000000D+00  0.0000000000000D+00  0.0000000000000D+00
335  3.3400000000000D+00  0.0000000000000D+00  0.0000000000000D+00
336  3.3500000000000D+00  0.0000000000000D+00  0.0000000000000D+00
337  3.3600000000000D+00  0.0000000000000D+00  0.0000000000000D+00
338  3.3700000000000D+00  0.0000000000000D+00  0.0000000000000D+00
339  3.3800000000000D+00  0.0000000000000D+00  0.0000000000000D+00
340  3.3900000000000D+00  0.0000000000000D+00  0.0000000000000D+00
341  3.4000000000000D+00  0.0000000000000D+00  0.0000000000000D+00
342  3.4100000000000D+00  0.0000000000000D+00  0.0000000000000D+00
343  3.4200000000000D+00  0.0000000000000D+00  0.0000000000000D+00
344  3.4300000000000D+00  0.0000000000000D+00  0.0000000000000D+00
345  3.4400000000000D+00  0.0000000000000D+00  0.0000000000000D+00
346  3.4500000000000D+00  0.0000000000000D+00  0.0000000000000D+00
347  3.4600000000000D+00  0.0000000000000D+00  0.0000000000000D+00
348  3.4700000000000D+00  0.0000000000000D+00  0.0000000000000D+00
349  3.4800000000000D+00  0.0000000000000D+00  0.0000000000000D+00
350  3.4900000000000D+00  0.0000000000000D+00  0.0000000000000D+00
351  3.5000000000000D+00  0.0000000000000D+00  0.0000000000000D+00
352  3.5100000000000D+00  0.0000000000000D+00  0.0000000000000D+00
353  3.5200000000000D+00  0.0000000000000D+00  0.0000000000000D+00
354  3.5300000000000D+00  0.0000000000000D+00  0.0000000000000D+00
355  3.5400000000000D+00  0.0000000000000D+00  0.0000000000000D+00
356  3.5500000000000D+00  0.0000000000000D+00  0.0000000000000D+00
357  3.5600000000000D+00  0.0000000000000D+00  0.0000000000000D+00
358  3.5700000000000D+00  0.0000000000000D+00  0.0000000000000D+00
359  3.5800000000000D+00  0.0000000000000D+00  0.0000000000000D+00
360  3.5900000000000D+00  0.0000000000000D+00  0.0000000000000D+00
361  3.6000000000000D+00  0.0000000000000D+00  0.0000000000000D+00
362  3.6100000000000D+00  0.0000000000000D+00  0.0000000000000D+00
363  3.6200000000000D+00  0.0000000000000D+00  0.0000000000000D+00
364  3.6300000000000D+00  0.0000000000000D+00  0.0000000000000D+00
365  3.6400000000000D+00  0.0000000000000D+00  0.0000000000000D+00
366  3.6500000000000D+00  0.0000000000000D+00  0.0000000000000D+00
367  3.6600000000000D+00  0.0000000000000D+00  0.0000000000000D+00
368  3.6700000000000D+00  0.0000000000000D+00  0.0000000000000D+00
369  3.6800000000000D+00  0.0000000000000D+00  0.0000000000000D+00
370  3.6900000000000D+00  0.0000000000000D+00  0.0000000000000D+00
371  3.7000000000000D+00  0.0000000000000D+00  0.0000000000000D+00
372  3.7100000000000D+00  0.0000000000000D+00  0.0000000000000D+00
373  3.7200000000000D+00  0.0000000000000D+00  0.0000000000000D+00
374  3.7300000000000D+00  0.0000000000000D+00  0.0000000000000D+00
375  3.7400000000000D+00  0.0000000000000D+00  0.0000000000000D+00
376  3.7500000000000D+00  0.0000000000000D+00  0.0000000000000D+00
377  3.7600000000000D+00  0.0000000000000D+00  0.0000000000000D+00
378  3.7700000000000D+00  0.0000000000000D+00  0.0000000000000D+00
379  3.7800000000000D+00  0.0000000000000D+00  0.0000000000000D+00
380  3.7900000000000D+00  0.0000000000000D+00  0.0000000000000D+00
381  3.8000000000000D+00  0.0000000000000D+00  0.0000000000000D+00
382  3.8100000000000D+00  0.0000000000000D+00  0.0000000000000D+00
383  3.8200000000000D+00  0.0000000000000D+00  0.0000000000000D+00
384  3.8300000000000D+00  0.0000000000000D+00  0.0000000000000D+00
385  3.8400000000000D+00  0.0000000000000D+00  0.0000000000000D+00
386  3.8500000000000D+00  0.0000000000000D+00  0.0000000000000D+00
387  3.8600000000000D+00  0.0000000000000D+00  0.0000000000000D+00
388  3.8700000000000D+00  0.0000000000000D+00  0.0000000000000D+00
389  3.8800000000000D+00  0.0000000000000D+00  0.0000000000000D+00
390  3.8900000000000D+00  0.0000000000000D+00  0.0000000000000D+00
391  3.9000000000000D+00  0.0000000000000D+00  0.0000000000000D+00
392  3.9100000000000D+00  0.0000000000000D+00  0.0000000000000D+00
393  3.9200000000000D+00  0.0000000000000D+00  0.0000000000000D+00
394  3.9300000000000D+00  0.0000000000000D+00  0.0000000000000D+00
395  3.9400000000000D+00  0.0000000000000D+00  0.0000000000000D+00
396  3.9500000000000D+00  0.0000000000000D+00  0.0000000000000D+00
397  3.9600000000000D+00  0.0000000000000D+00  0.0000000000000D+00
398  3.9700000000000D+00  0.0000000000000D+00  0.0000000000000D+00
399  3.9800000000000D+00  0.0000000000000D+00  0.0000000000000D+00
400  3.9900000000000D+00  0.0000000000000D+00  0.0000000000000D+00
401  4.0000000000000D+00  0.0000000000000D+00  0.0000000000000D+00
402  4.0100000000000D+00  0.0000000000000D+00  0.0000000000000D+00
403  4.0200000000000D+00  0.0000000000000D+00  0.0000000000000D+00
404  4.0300000000000D+00  0.0000000000000D+00  0.0000000000000D+00
405  4.0400000000000D+00  0.0000000000000D+00  0.0000000000000D+00
406  4.0500000000000D+00  0.0000000000000D+00  0.0000000000000D+00
407  4.0600000000000D+00  0.0000000000000D+00  0.0000000000000D+00
408  4.0700000000000D+00  0.0000000000000D+00  0.0000000000000D+00
409  4.0800000000000D+00  0.0000000000000D+00  0.0000000000000D+00
410  4.0900000000000D+00  0.0000000000000D+00  0.0000000000000D+00
411  4.1000000000000D+00  0.0000000000000D+00  0.0000000000000D+00
412  4.1100000000000D+00  0.0000000000000D+00  0.0000000000000D+00
413  4.1200000000000D+00  0.0000000000000D+00  0.0000000000000D+00
414  4.1300000000000D+00  0.0000000000000D+00  0.0000000000000D+00
415  4.1400000000000D+00  0.0000000000000D+00  0.0000000000000D+00
416  4.1500000000000D+00  0.0000000000000D+00  0.0000000000000D+00
417  4.1600000000000D+00  0.0000000000000D+00  0.0000000000000D+00
418  4.1700000000000D+00  0.0000000000000D+00  0.0000000000000D+00
419  4.1800000000000D+00  0.0000000000000D+00  0.0000000000000D+00
420  4.1900000000000D+00  0.0000000000000D+00  0.0000000000000D+00
421  4.2000000000000D+00  0.0000000000000D+00  0.0000000000000D+00
422  4.2100000000000D+00  0.0000000000000D+00  0.0000000000000D+00
423  4.2200000000000D+00  0.0000000000000D+00  0.0000000000000D+00
424  4.2300000000000D+00  0.0000000000000D+00  0.0000000000000D+00
425  4.2400000000000D+00  0.0000000000000D+00  0.0000000000000D+00
426  4.2500000000000D+00  0.0000000000000D+00  0.0000000000000D+00
427  4.2600000000000D+00  0.0000000000000D+00  0.0000000000000D+00
428  4.2700000000000D+00  0.0000000000000D+00  0.0000000000000D+00
429  4.2800000000000D+00  0.0000000000000D+00  0.0000000000000D+00
430  4.2900000000000D+00  0.0000000000000D+00  0.0000000000000D+00
431  4.3000000000000D+00  0.0000000000000D+00  0.0000000000000D+00
432  4.3100000000000D+00  0.0000000000000D+00  0.0000000000000D+00
433  4.3200000000000D+00  0.0000000000000D+00  0.0000000000000D+00
434  4.3300000000000D+00  0.0000000000000D+00  0.0000000000000D+00
435  4.3400000000000D+00  0.0000000000000D+00  0.0000000000000D+00
436  4.3500000000000D+00  0.0000000000000D+00  0.0000000000000D+00
437  4.3600000000000D+00  0.0000000000000D+00  0.0000000000000D+00
438  4.3700000000000D+00  0.0000000000000D+00  0.0000000000000D+00
439  4.3800000000000D+00  0.0000000000000D+00  0.0000000000000D+00
440  4.3900000000000D+00  0.0000000000000D+00  0.0000000000000D+00
441  4.4000000000000D+00  0.0000000000000D+00  0.0000000000000D+00
442  4.4100000000000D+00  0.0000000000000D+00  0.0000000000000D+00
443  4.4200000000000D+00  0.0000000000000D+00  0.0000000000000D+00