   2   2   1   0
  0.2016476E+02  0.3849278E-09  0.3849279E-09  0.3849278E-09  0.5000000E-15
   1.0000000000000000E-004
  CAR
 unknown system
    132.12589373    -13.42356934  301      5.66751202      1.00000000
    -13.424  0.0000E+00  0.0000E+00  0.0000E+00  0.0000E+00
    -12.938  0.0000E+00  0.0000E+00  0.0000E+00  0.0000E+00
    -12.453  0.0000E+00  0.0000E+00  0.0000E+00  0.0000E+00
    -11.968  0.0000E+00  0.0000E+00  0.0000E+00  0.0000E+00
    -11.483  0.0000E+00  0.0000E+00  0.0000E+00  0.0000E+00
    -10.998  0.0000E+00  0.0000E+00  0.0000E+00  0.0000E+00
    -10.513  0.0000E+00  0.0000E+00  0.0000E+00  0.0000E+00
    -10.027  0.0000E+00  0.0000E+00  0.0000E+00  0.0000E+00
     -9.542  0.0000E+00  0.0000E+00  0.0000E+00  0.0000E+00
     -9.057  0.0000E+00  0.0000E+00  0.0000E+00  0.0000E+00
     -8.572  0.0000E+00  0.0000E+00  0.0000E+00  0.0000E+00
     -8.087  0.0000E+00  0.0000E+00  0.0000E+00  0.0000E+00
     -7.602  0.0000E+00  0.0000E+00  0.0000E+00  0.0000E+00
     -7.116  0.0000E+00  0.0000E+00  0.0000E+00  0.0000E+00
     -6.631  0.3769E-01  0.3769E-01  0.2216E-02  0.2216E-02
     -6.146  0.1255E+00  0.1255E+00  0.4659E-01  0.4659E-01
     -5.661  0.1766E+00  0.1766E+00  0.1218E+00  0.1218E+00
     -5.176  0.2343E+00  0.2343E+00  0.2211E+00  0.2211E+00
     -4.691  0.3100E+00  0.3100E+00  0.3508E+00  0.3508E+00
     -4.205  0.3982E+00  0.3982E+00  0.5399E+00  0.5399E+00
     -3.720  0.3717E+00  0.3717E+00  0.7320E+00  0.7320E+00
     -3.235  0.3175E+00  0.3175E+00  0.8873E+00  0.8873E+00
     -2.750  0.5657E-01  0.5657E-01  0.9960E+00  0.9960E+00
     -2.265  0.0000E+00  0.0000E+00  0.1000E+01  0.1000E+01
     -1.780  0.1434E+00  0.1434E+00  0.1029E+01  0.1029E+01
     -1.294  0.7572E+00  0.7572E+00  0.1222E+01  0.1222E+01
     -0.809  0.3305E+00  0.3305E+00  0.1482E+01  0.1482E+01
     -0.324  0.2350E+00  0.2350E+00  0.1615E+01  0.1615E+01
      0.161  0.1792E+00  0.1792E+00  0.1715E+01  0.1715E+01
      0.646  0.1231E+00  0.1231E+00  0.1785E+01  0.1785E+01
      1.131  0.1071E+00  0.1071E+00  0.1841E+01  0.1841E+01
      1.617  0.6357E+00  0.6357E+00  0.2021E+01  0.2021E+01
      2.102  0.4892E+00  0.4892E+00  0.2287E+01  0.2287E+01
      2.587  0.6874E+00  0.6874E+00  0.2560E+01  0.2560E+01
      3.072  0.7341E+00  0.7341E+00  0.2918E+01  0.2918E+01
      3.557  0.6994E+00  0.6994E+00  0.3263E+01  0.3263E+01
      4.042  0.6491E+00  0.6491E+00  0.3586E+01  0.3586E+01
      4.528  0.3784E+00  0.3784E+00  0.3843E+01  0.3843E+01
      5.013  0.1562E+00  0.1562E+00  0.3954E+01  0.3954E+01
      5.498  0.1426E-01  0.1426E-01  0.3999E+01  0.3999E+01
      5.983  0.0000E+00  0.0000E+00  0.4000E+01  0.4000E+01
      6.468  0.5062E-02  0.5062E-02  0.4000E+01  0.4000E+01
      6.953  0.1197E+00  0.1197E+00  0.4031E+01  0.4031E+01
      7.439  0.2420E+00  0.2420E+00  0.4116E+01  0.4116E+01
      7.924  0.5985E+00  0.5985E+00  0.4298E+01  0.4298E+01
      8.409  0.9665E+00  0.9665E+00  0.4734E+01  0.4734E+01
      8.894  0.4293E+00  0.4293E+00  0.5105E+01  0.5105E+01
      9.379  0.5396E+00  0.5396E+00  0.5279E+01  0.5279E+01
      9.864  0.1554E+01  0.1554E+01  0.5849E+01  0.5849E+01
     10.350  0.5800E+00  0.5800E+00  0.6181E+01  0.6181E+01
     10.835  0.4293E+00  0.4293E+00  0.6404E+01  0.6404E+01
     11.320  0.3530E+00  0.3530E+00  0.6602E+01  0.6602E+01
     11.805  0.6645E+00  0.6645E+00  0.6830E+01  0.6830E+01
     12.290  0.5881E+00  0.5881E+00  0.7106E+01  0.7106E+01
     12.775  0.7086E+00  0.7086E+00  0.7471E+01  0.7471E+01
     13.260  0.5401E+00  0.5401E+00  0.7750E+01  0.7750E+01
     13.746  0.4713E+00  0.4713E+00  0.7997E+01  0.7997E+01
     14.231  0.4686E+00  0.4686E+00  0.8217E+01  0.8217E+01
     14.716  0.6105E+00  0.6105E+00  0.8453E+01  0.8453E+01
     15.201  0.7607E+00  0.7607E+00  0.8786E+01  0.8786E+01
     15.686  0.7334E+00  0.7334E+00  0.9204E+01  0.9204E+01
     16.171  0.6717E+00  0.6717E+00  0.9536E+01  0.9536E+01
     16.657  0.5952E+00  0.5952E+00  0.9841E+01  0.9841E+01
     17.142  0.5247E+00  0.5247E+00  0.1008E+02  0.1008E+02
     17.627  0.4581E+00  0.4581E+00  0.1035E+02  0.1035E+02
     18.112  0.4504E+00  0.4504E+00  0.1054E+02  0.1054E+02
     18.597  0.6816E+00  0.6816E+00  0.1078E+02  0.1078E+02
     19.082  0.8478E+00  0.8478E+00  0.1121E+02  0.1121E+02
     19.568  0.7492E+00  0.7492E+00  0.1159E+02  0.1159E+02
     20.053  0.9662E+00  0.9662E+00  0.1198E+02  0.1198E+02
     20.538  0.1016E+01  0.1016E+01  0.1243E+02  0.1243E+02
     21.023  0.7916E+00  0.7916E+00  0.1286E+02  0.1286E+02
     21.508  0.5672E+00  0.5672E+00  0.1319E+02  0.1319E+02
     21.993  0.5168E+00  0.5168E+00  0.1344E+02  0.1344E+02
     22.479  0.5169E+00  0.5169E+00  0.1370E+02  0.1370E+02
     22.964  0.6584E+00  0.6584E+00  0.1398E+02  0.1398E+02
     23.449  0.8526E+00  0.8526E+00  0.1428E+02  0.1428E+02
     23.934  0.5788E+00  0.5788E+00  0.1462E+02  0.1462E+02
     24.419  0.1209E+01  0.1209E+01  0.1508E+02  0.1508E+02
     24.904  0.1057E+01  0.1057E+01  0.1564E+02  0.1564E+02
     25.390  0.6919E+00  0.6919E+00  0.1604E+02  0.1604E+02
     25.875  0.8976E+00  0.8976E+00  0.1646E+02  0.1646E+02
     26.360  0.5417E+00  0.5417E+00  0.1677E+02  0.1677E+02
     26.845  0.6912E+00  0.6912E+00  0.1706E+02  0.1706E+02
     27.330  0.9213E+00  0.9213E+00  0.1741E+02  0.1741E+02
     27.815  0.9925E+00  0.9925E+00  0.1783E+02  0.1783E+02
     28.301  0.1050E+01  0.1050E+01  0.1828E+02  0.1828E+02
     28.786  0.1054E+01  0.1054E+01  0.1881E+02  0.1881E+02
     29.271  0.7516E+00  0.7516E+00  0.1919E+02  0.1919E+02
     29.756  0.6187E+00  0.6187E+00  0.1953E+02  0.1953E+02
     30.241  0.8585E+00  0.8585E+00  0.1986E+02  0.1986E+02
     30.726  0.6844E+00  0.6844E+00  0.2024E+02  0.2024E+02
     31.212  0.7452E+00  0.7452E+00  0.2058E+02  0.2058E+02
     31.697  0.1039E+01  0.1039E+01  0.2108E+02  0.2108E+02
     32.182  0.6196E+00  0.6196E+00  0.2143E+02  0.2143E+02
     32.667  0.6522E+00  0.6522E+00  0.2174E+02  0.2174E+02
     33.152  0.7254E+00  0.7254E+00  0.2207E+02  0.2207E+02
     33.637  0.1024E+01  0.1024E+01  0.2251E+02  0.2251E+02
     34.123  0.7621E+00  0.7621E+00  0.2289E+02  0.2289E+02
     34.608  0.9843E+00  0.9843E+00  0.2326E+02  0.2326E+02
     35.093  0.9520E+00  0.9520E+00  0.2370E+02  0.2370E+02
     35.578  0.7417E+00  0.7417E+00  0.2412E+02  0.2412E+02
     36.063  0.1521E+01  0.1521E+01  0.2456E+02  0.2456E+02
     36.548  0.8783E+00  0.8783E+00  0.2503E+02  0.2503E+02
     37.034  0.7057E+00  0.7057E+00  0.2542E+02  0.2542E+02
     37.519  0.9603E+00  0.9603E+00  0.2583E+02  0.2583E+02
     38.004  0.1029E+01  0.1029E+01  0.2630E+02  0.2630E+02
     38.489  0.1329E+01  0.1329E+01  0.2685E+02  0.2685E+02
     38.974  0.6829E+00  0.6829E+00  0.2729E+02  0.2729E+02
     39.459  0.9390E+00  0.9390E+00  0.2769E+02  0.2769E+02
     39.945  0.9349E+00  0.9349E+00  0.2812E+02  0.2812E+02
     40.430  0.8182E+00  0.8182E+00  0.2857E+02  0.2857E+02
     40.915  0.1321E+01  0.1321E+01  0.2907E+02  0.2907E+02
     41.400  0.9463E+00  0.9463E+00  0.2958E+02  0.2958E+02
     41.885  0.8032E+00  0.8032E+00  0.3003E+02  0.3003E+02
     42.370  0.7341E+00  0.7341E+00  0.3039E+02  0.3039E+02
     42.856  0.7352E+00  0.7352E+00  0.3073E+02  0.3073E+02
     43.341  0.7224E+00  0.7224E+00  0.3108E+02  0.3108E+02
     43.826  0.7710E+00  0.7710E+00  0.3150E+02  0.3150E+02
     44.311  0.4592E+00  0.4592E+00  0.3179E+02  0.3179E+02
     44.796  0.2457E+01  0.2457E+01  0.3223E+02  0.3223E+02
     45.281  0.6768E+00  0.6768E+00  0.3284E+02  0.3284E+02
     45.767  0.7492E+00  0.7492E+00  0.3314E+02  0.3314E+02
     46.252  0.1029E+01  0.1029E+01  0.3357E+02  0.3357E+02
     46.737  0.1159E+01  0.1159E+01  0.3408E+02  0.3408E+02
     47.222  0.9337E+00  0.9337E+00  0.3475E+02  0.3475E+02
     47.707  0.7645E+00  0.7645E+00  0.3516E+02  0.3516E+02
     48.192  0.8822E+00  0.8822E+00  0.3561E+02  0.3561E+02
     48.678  0.8768E+00  0.8768E+00  0.3605E+02  0.3605E+02
     49.163  0.5825E+00  0.5825E+00  0.3636E+02  0.3636E+02
     49.648  0.1441E+01  0.1441E+01  0.3683E+02  0.3683E+02
     50.133  0.9330E+00  0.9330E+00  0.3730E+02  0.3730E+02
     50.618  0.1136E+01  0.1136E+01  0.3777E+02  0.3777E+02
     51.103  0.1079E+01  0.1079E+01  0.3837E+02  0.3837E+02
     51.589  0.1008E+01  0.1008E+01  0.3882E+02  0.3882E+02
     52.074  0.1231E+01  0.1231E+01  0.3946E+02  0.3946E+02
     52.559  0.7716E+00  0.7716E+00  0.3988E+02  0.3988E+02
     53.044  0.8364E+00  0.8364E+00  0.4025E+02  0.4025E+02
     53.529  0.1107E+01  0.1107E+01  0.4072E+02  0.4072E+02
     54.014  0.1150E+01  0.1150E+01  0.4126E+02  0.4126E+02
     54.500  0.1286E+01  0.1286E+01  0.4189E+02  0.4189E+02
     54.985  0.1016E+01  0.1016E+01  0.4247E+02  0.4247E+02
     55.470  0.9085E+00  0.9085E+00  0.4289E+02  0.4289E+02
     55.955  0.1177E+01  0.1177E+01  0.4336E+02  0.4336E+02
     56.440  0.1159E+01  0.1159E+01  0.4393E+02  0.4393E+02
     56.925  0.1461E+01  0.1461E+01  0.4460E+02  0.4460E+02
     57.411  0.8227E+00  0.8227E+00  0.4509E+02  0.4509E+02
     57.896  0.9134E+00  0.9134E+00  0.4561E+02  0.4561E+02
     58.381  0.6848E+00  0.6848E+00  0.4599E+02  0.4599E+02
     58.866  0.1050E+01  0.1050E+01  0.4638E+02  0.4638E+02
     59.351  0.8610E+00  0.8610E+00  0.4689E+02  0.4689E+02
     59.836  0.8752E+00  0.8752E+00  0.4732E+02  0.4732E+02
     60.321  0.6710E+00  0.6710E+00  0.4773E+02  0.4773E+02
     60.807  0.9938E+00  0.9938E+00  0.4808E+02  0.4808E+02
     61.292  0.1026E+01  0.1026E+01  0.4863E+02  0.4863E+02
     61.777  0.1187E+01  0.1187E+01  0.4913E+02  0.4913E+02
     62.262  0.1588E+01  0.1588E+01  0.4959E+02  0.4959E+02
     62.747  0.1458E+01  0.1458E+01  0.5029E+02  0.5029E+02
     63.232  0.1338E+01  0.1338E+01  0.5104E+02  0.5104E+02
     63.718  0.8670E+00  0.8670E+00  0.5146E+02  0.5146E+02
     64.203  0.9740E+00  0.9740E+00  0.5192E+02  0.5192E+02
     64.688  0.1205E+01  0.1205E+01  0.5238E+02  0.5238E+02
     65.173  0.1325E+01  0.1325E+01  0.5298E+02  0.5298E+02
     65.658  0.1101E+01  0.1101E+01  0.5354E+02  0.5354E+02
     66.143  0.1458E+01  0.1458E+01  0.5419E+02  0.5419E+02
     66.629  0.9683E+00  0.9683E+00  0.5477E+02  0.5477E+02
     67.114  0.1133E+01  0.1133E+01  0.5516E+02  0.5516E+02
     67.599  0.1074E+01  0.1074E+01  0.5574E+02  0.5574E+02
     68.084  0.1452E+01  0.1452E+01  0.5626E+02  0.5626E+02
     68.569  0.1544E+01  0.1544E+01  0.5692E+02  0.5692E+02
     69.054  0.1767E+01  0.1767E+01  0.5764E+02  0.5764E+02
     69.540  0.8140E+00  0.8140E+00  0.5814E+02  0.5814E+02
     70.025  0.9716E+00  0.9716E+00  0.5856E+02  0.5856E+02
     70.510  0.1826E+01  0.1826E+01  0.5913E+02  0.5913E+02
     70.995  0.1341E+01  0.1341E+01  0.5974E+02  0.5974E+02
     71.480  0.8319E+00  0.8319E+00  0.6027E+02  0.6027E+02
     71.965  0.1500E+01  0.1500E+01  0.6087E+02  0.6087E+02
     72.451  0.1817E+01  0.1817E+01  0.6169E+02  0.6169E+02
     72.936  0.9322E+00  0.9322E+00  0.6229E+02  0.6229E+02
     73.421  0.1269E+01  0.1269E+01  0.6282E+02  0.6282E+02
     73.906  0.9875E+00  0.9875E+00  0.6331E+02  0.6331E+02
     74.391  0.8879E+00  0.8879E+00  0.6389E+02  0.6389E+02
     74.876  0.1285E+01  0.1285E+01  0.6423E+02  0.6423E+02
     75.362  0.1619E+01  0.1619E+01  0.6473E+02  0.6473E+02
     75.847  0.1229E+01  0.1229E+01  0.6536E+02  0.6536E+02
     76.332  0.1404E+01  0.1404E+01  0.6600E+02  0.6600E+02
     76.817  0.1250E+01  0.1250E+01  0.6676E+02  0.6676E+02
     77.302  0.2219E+01  0.2219E+01  0.6764E+02  0.6764E+02
     77.787  0.1365E+01  0.1365E+01  0.6832E+02  0.6832E+02
     78.273  0.8169E+00  0.8169E+00  0.6876E+02  0.6876E+02
     78.758  0.1212E+01  0.1212E+01  0.6924E+02  0.6924E+02
     79.243  0.1696E+01  0.1696E+01  0.6991E+02  0.6991E+02
     79.728  0.1110E+01  0.1110E+01  0.7052E+02  0.7052E+02
     80.213  0.1140E+01  0.1140E+01  0.7113E+02  0.7113E+02
     80.698  0.7387E+00  0.7387E+00  0.7151E+02  0.7151E+02
     81.184  0.1423E+01  0.1423E+01  0.7203E+02  0.7203E+02
     81.669  0.1060E+01  0.1060E+01  0.7267E+02  0.7267E+02
     82.154  0.1586E+01  0.1586E+01  0.7338E+02  0.7338E+02
     82.639  0.1908E+01  0.1908E+01  0.7414E+02  0.7414E+02
     83.124  0.1182E+01  0.1182E+01  0.7483E+02  0.7483E+02
     83.609  0.6671E+00  0.6671E+00  0.7529E+02  0.7529E+02
     84.095  0.6053E+00  0.6053E+00  0.7554E+02  0.7554E+02
     84.580  0.1094E+01  0.1094E+01  0.7598E+02  0.7598E+02
     85.065  0.1446E+01  0.1446E+01  0.7660E+02  0.7660E+02
     85.550  0.1409E+01  0.1409E+01  0.7725E+02  0.7725E+02
     86.035  0.1550E+01  0.1550E+01  0.7789E+02  0.7789E+02
     86.520  0.1176E+01  0.1176E+01  0.7857E+02  0.7857E+02
     87.006  0.1280E+01  0.1280E+01  0.7915E+02  0.7915E+02
     87.491  0.1280E+01  0.1280E+01  0.7976E+02  0.7976E+02
     87.976  0.1485E+01  0.1485E+01  0.8040E+02  0.8040E+02
     88.461  0.1533E+01  0.1533E+01  0.8113E+02  0.8113E+02
     88.946  0.1158E+01  0.1158E+01  0.8182E+02  0.8182E+02
     89.431  0.1363E+01  0.1363E+01  0.8241E+02  0.8241E+02
     89.917  0.1369E+01  0.1369E+01  0.8306E+02  0.8306E+02
     90.402  0.1316E+01  0.1316E+01  0.8374E+02  0.8374E+02
     90.887  0.1601E+01  0.1601E+01  0.8438E+02  0.8438E+02
     91.372  0.1055E+01  0.1055E+01  0.8493E+02  0.8493E+02
     91.857  0.1079E+01  0.1079E+01  0.8544E+02  0.8544E+02
     92.342  0.1296E+01  0.1296E+01  0.8600E+02  0.8600E+02
     92.828  0.1394E+01  0.1394E+01  0.8666E+02  0.8666E+02
     93.313  0.1454E+01  0.1454E+01  0.8733E+02  0.8733E+02
     93.798  0.1306E+01  0.1306E+01  0.8798E+02  0.8798E+02
     94.283  0.1230E+01  0.1230E+01  0.8857E+02  0.8857E+02
     94.768  0.1583E+01  0.1583E+01  0.8932E+02  0.8932E+02
     95.253  0.1636E+01  0.1636E+01  0.9007E+02  0.9007E+02
     95.739  0.1320E+01  0.1320E+01  0.9075E+02  0.9075E+02
     96.224  0.1252E+01  0.1252E+01  0.9142E+02  0.9142E+02
     96.709  0.9725E+00  0.9725E+00  0.9193E+02  0.9193E+02
     97.194  0.1076E+01  0.1076E+01  0.9239E+02  0.9239E+02
     97.679  0.1289E+01  0.1289E+01  0.9306E+02  0.9306E+02
     98.164  0.1794E+01  0.1794E+01  0.9389E+02  0.9389E+02
     98.650  0.1315E+01  0.1315E+01  0.9462E+02  0.9462E+02
     99.135  0.1392E+01  0.1392E+01  0.9527E+02  0.9527E+02
     99.620  0.1130E+01  0.1130E+01  0.9582E+02  0.9582E+02
    100.105  0.1373E+01  0.1373E+01  0.9644E+02  0.9644E+02
    100.590  0.1487E+01  0.1487E+01  0.9710E+02  0.9710E+02
    101.075  0.1440E+01  0.1440E+01  0.9785E+02  0.9785E+02
    101.561  0.1683E+01  0.1683E+01  0.9857E+02  0.9857E+02
    102.046  0.1231E+01  0.1231E+01  0.9923E+02  0.9923E+02
    102.531  0.1743E+01  0.1743E+01  0.9993E+02  0.9993E+02
    103.016  0.1289E+01  0.1289E+01  0.1006E+03  0.1006E+03
    103.501  0.1764E+01  0.1764E+01  0.1014E+03  0.1014E+03
    103.986  0.1262E+01  0.1262E+01  0.1022E+03  0.1022E+03
    104.471  0.1995E+01  0.1995E+01  0.1029E+03  0.1029E+03
    104.957  0.1063E+01  0.1063E+01  0.1036E+03  0.1036E+03
    105.442  0.2651E+01  0.2651E+01  0.1043E+03  0.1043E+03
    105.927  0.1008E+01  0.1008E+01  0.1050E+03  0.1050E+03
    106.412  0.1444E+01  0.1444E+01  0.1056E+03  0.1056E+03
    106.897  0.1000E+01  0.1000E+01  0.1062E+03  0.1062E+03
    107.382  0.1655E+01  0.1655E+01  0.1068E+03  0.1068E+03
    107.868  0.1484E+01  0.1484E+01  0.1076E+03  0.1076E+03
    108.353  0.1080E+01  0.1080E+01  0.1082E+03  0.1082E+03
    108.838  0.1733E+01  0.1733E+01  0.1088E+03  0.1088E+03
    109.323  0.1328E+01  0.1328E+01  0.1096E+03  0.1096E+03
    109.808  0.1386E+01  0.1386E+01  0.1103E+03  0.1103E+03
    110.293  0.1557E+01  0.1557E+01  0.1109E+03  0.1109E+03
    110.779  0.1554E+01  0.1554E+01  0.1118E+03  0.1118E+03
    111.264  0.1683E+01  0.1683E+01  0.1125E+03  0.1125E+03
    111.749  0.1132E+01  0.1132E+01  0.1132E+03  0.1132E+03
    112.234  0.1926E+01  0.1926E+01  0.1138E+03  0.1138E+03
    112.719  0.2187E+01  0.2187E+01  0.1147E+03  0.1147E+03
    113.204  0.1511E+01  0.1511E+01  0.1156E+03  0.1156E+03
    113.690  0.1652E+01  0.1652E+01  0.1163E+03  0.1163E+03
    114.175  0.1793E+01  0.1793E+01  0.1172E+03  0.1172E+03
    114.660  0.1647E+01  0.1647E+01  0.1180E+03  0.1180E+03
    115.145  0.1384E+01  0.1384E+01  0.1188E+03  0.1188E+03
    115.630  0.1173E+01  0.1173E+01  0.1194E+03  0.1194E+03
    116.115  0.1440E+01  0.1439E+01  0.1200E+03  0.1200E+03
    116.601  0.1296E+01  0.1296E+01  0.1206E+03  0.1206E+03
    117.086  0.1732E+01  0.1732E+01  0.1214E+03  0.1214E+03
    117.571  0.1283E+01  0.1283E+01  0.1221E+03  0.1221E+03
    118.056  0.1612E+01  0.1612E+01  0.1227E+03  0.1227E+03
    118.541  0.1150E+01  0.1150E+01  0.1234E+03  0.1234E+03
    119.026  0.1475E+01  0.1475E+01  0.1240E+03  0.1240E+03
    119.512  0.1476E+01  0.1476E+01  0.1247E+03  0.1247E+03
    119.997  0.1247E+01  0.1246E+01  0.1254E+03  0.1254E+03
    120.482  0.1120E+01  0.1119E+01  0.1260E+03  0.1260E+03
    120.967  0.1006E+01  0.1006E+01  0.1264E+03  0.1264E+03
    121.452  0.8772E+00  0.8772E+00  0.1269E+03  0.1269E+03
    121.937  0.7473E+00  0.7502E+00  0.1273E+03  0.1273E+03
    122.423  0.4496E+00  0.4499E+00  0.1276E+03  0.1276E+03
    122.908  0.3030E+00  0.3028E+00  0.1277E+03  0.1277E+03
    123.393  0.2319E+00  0.2332E+00  0.1279E+03  0.1279E+03
    123.878  0.1134E+00  0.1134E+00  0.1279E+03  0.1279E+03
    124.363  0.7031E-01  0.7029E-01  0.1280E+03  0.1280E+03
    124.848  0.3023E-01  0.3018E-01  0.1280E+03  0.1280E+03
    125.334  0.5305E-02  0.5261E-02  0.1280E+03  0.1280E+03
    125.819  0.0000E+00  0.0000E+00  0.1280E+03  0.1280E+03
    126.304  0.0000E+00  0.0000E+00  0.1280E+03  0.1280E+03
    126.789  0.0000E+00  0.0000E+00  0.1280E+03  0.1280E+03
    127.274  0.0000E+00  0.0000E+00  0.1280E+03  0.1280E+03
    127.759  0.0000E+00  0.0000E+00  0.1280E+03  0.1280E+03
    128.245  0.0000E+00  0.0000E+00  0.1280E+03  0.1280E+03
    128.730  0.0000E+00  0.0000E+00  0.1280E+03  0.1280E+03
    129.215  0.0000E+00  0.0000E+00  0.1280E+03  0.1280E+03
    129.700  0.0000E+00  0.0000E+00  0.1280E+03  0.1280E+03
    130.185  0.0000E+00  0.0000E+00  0.1280E+03  0.1280E+03
    130.670  0.0000E+00  0.0000E+00  0.1280E+03  0.1280E+03
    131.156  0.0000E+00  0.0000E+00  0.1280E+03  0.1280E+03
    131.641  0.0000E+00  0.0000E+00  0.1280E+03  0.1280E+03
    132.126  0.0000E+00  0.0000E+00  0.1280E+03  0.1280E+03
    132.12589373    -13.42356934  301      5.66751202      1.00000000
    -13.424  0.0000E+00  0.0000E+00  0.0000E+00  0.0000E+00  0.0000E+00  0.0000E+00  0.0000E+00  0.0000E+00  0.0000E+00  0.0000E+00  0.0000E+00  0.0000E+00  0.0000E+00  0.0000E+00  0.0000E+00  0.0000E+00  0.0000E+00  0.0000E+00
    -12.938  0.0000E+00  0.0000E+00  0.0000E+00  0.0000E+00  0.0000E+00  0.0000E+00  0.0000E+00  0.0000E+00  0.0000E+00  0.0000E+00  0.0000E+00  0.0000E+00  0.0000E+00  0.0000E+00  0.0000E+00  0.0000E+00  0.0000E+00  0.0000E+00
    -12.453  0.0000E+00  0.0000E+00  0.0000E+00  0.0000E+00  0.0000E+00  0.0000E+00  0.0000E+00  0.0000E+00  0.0000E+00  0.0000E+00  0.0000E+00  0.0000E+00  0.0000E+00  0.0000E+00  0.0000E+00  0.0000E+00  0.0000E+00  0.0000E+00
    -11.968  0.0000E+00  0.0000E+00  0.0000E+00  0.0000E+00  0.0000E+00  0.0000E+00  0.0000E+00  0.0000E+00  0.0000E+00  0.0000E+00  0.0000E+00  0.0000E+00  0.0000E+00  0.0000E+00  0.0000E+00  0.0000E+00  0.0000E+00  0.0000E+00
    -11.483  0.0000E+00  0.0000E+00  0.0000E+00  0.0000E+00  0.0000E+00  0.0000E+00  0.0000E+00  0.0000E+00  0.0000E+00  0.0000E+00  0.0000E+00  0.0000E+00  0.0000E+00  0.0000E+00  0.0000E+00  0.0000E+00  0.0000E+00  0.0000E+00
    -10.998  0.0000E+00  0.0000E+00  0.0000E+00  0.0000E+00  0.0000E+00  0.0000E+00  0.0000E+00  0.0000E+00  0.0000E+00  0.0000E+00  0.0000E+00  0.0000E+00  0.0000E+00  0.0000E+00  0.0000E+00  0.0000E+00  0.0000E+00  0.0000E+00
    -10.513  0.0000E+00  0.0000E+00  0.0000E+00  0.0000E+00  0.0000E+00  0.0000E+00  0.0000E+00  0.0000E+00  0.0000E+00  0.0000E+00  0.0000E+00  0.0000E+00  0.0000E+00  0.0000E+00  0.0000E+00  0.0000E+00  0.0000E+00  0.0000E+00
    -10.027  0.0000E+00  0.0000E+00  0.0000E+00  0.0000E+00  0.0000E+00  0.0000E+00  0.0000E+00  0.0000E+00  0.0000E+00  0.0000E+00  0.0000E+00  0.0000E+00  0.0000E+00  0.0000E+00  0.0000E+00  0.0000E+00  0.0000E+00  0.0000E+00
     -9.542  0.0000E+00  0.0000E+00  0.0000E+00  0.0000E+00  0.0000E+00  0.0000E+00  0.0000E+00  0.0000E+00  0.0000E+00  0.0000E+00  0.0000E+00  0.0000E+00  0.0000E+00  0.0000E+00  0.0000E+00  0.0000E+00  0.0000E+00  0.0000E+00
     -9.057  0.0000E+00  0.0000E+00  0.0000E+00  0.0000E+00  0.0000E+00  0.0000E+00  0.0000E+00  0.0000E+00  0.0000E+00  0.0000E+00  0.0000E+00  0.0000E+00  0.0000E+00  0.0000E+00  0.0000E+00  0.0000E+00  0.0000E+00  0.0000E+00
     -8.572  0.0000E+00  0.0000E+00  0.0000E+00  0.0000E+00  0.0000E+00  0.0000E+00  0.0000E+00  0.0000E+00  0.0000E+00  0.0000E+00  0.0000E+00  0.0000E+00  0.0000E+00  0.0000E+00  0.0000E+00  0.0000E+00  0.0000E+00  0.0000E+00
     -8.087  0.0000E+00  0.0000E+00  0.0000E+00  0.0000E+00  0.0000E+00  0.0000E+00  0.0000E+00  0.0000E+00  0.0000E+00  0.0000E+00  0.0000E+00  0.0000E+00  0.0000E+00  0.0000E+00  0.0000E+00  0.0000E+00  0.0000E+00  0.0000E+00
     -7.602  0.0000E+00  0.0000E+00  0.0000E+00  0.0000E+00  0.0000E+00  0.0000E+00  0.0000E+00  0.0000E+00  0.0000E+00  0.0000E+00  0.0000E+00  0.0000E+00  0.0000E+00  0.0000E+00  0.0000E+00  0.0000E+00  0.0000E+00  0.0000E+00
     -7.116  0.0000E+00  0.0000E+00  0.0000E+00  0.0000E+00  0.0000E+00  0.0000E+00  0.0000E+00  0.0000E+00  0.0000E+00  0.0000E+00  0.0000E+00  0.0000E+00  0.0000E+00  0.0000E+00  0.0000E+00  0.0000E+00  0.0000E+00  0.0000E+00
     -6.631  0.8044E-02  0.8044E-02  0.3102E-04  0.3102E-04  0.3102E-04  0.3102E-04  0.3102E-04  0.3102E-04  0.0000E+00  0.0000E+00  0.0000E+00  0.0000E+00  0.0000E+00  0.0000E+00  0.0000E+00  0.0000E+00  0.0000E+00  0.0000E+00
     -6.146  0.2654E-01  0.2654E-01  0.3003E-03  0.3003E-03  0.3003E-03  0.3003E-03  0.3003E-03  0.3003E-03  0.0000E+00  0.0000E+00  0.0000E+00  0.0000E+00  0.0000E+00  0.0000E+00  0.0000E+00  0.0000E+00  0.0000E+00  0.0000E+00
     -5.661  0.3710E-01  0.3710E-01  0.7210E-03  0.7210E-03  0.7210E-03  0.7210E-03  0.7210E-03  0.7210E-03  0.0000E+00  0.0000E+00  0.0000E+00  0.0000E+00  0.0000E+00  0.0000E+00  0.0000E+00  0.0000E+00  0.0000E+00  0.0000E+00
     -5.176  0.4916E-01  0.4916E-01  0.1196E-02  0.1196E-02  0.1196E-02  0.1196E-02  0.1196E-02  0.1196E-02  0.0000E+00  0.0000E+00  0.0000E+00  0.0000E+00  0.0000E+00  0.0000E+00  0.0000E+00  0.0000E+00  0.0000E+00  0.0000E+00
     -4.691  0.6543E-01  0.6543E-01  0.2006E-02  0.2006E-02  0.2006E-02  0.2006E-02  0.2006E-02  0.2006E-02  0.0000E+00  0.0000E+00  0.0000E+00  0.0000E+00  0.0000E+00  0.0000E+00  0.0000E+00  0.0000E+00  0.0000E+00  0.0000E+00
     -4.205  0.8450E-01  0.8450E-01  0.2903E-02  0.2903E-02  0.2903E-02  0.2903E-02  0.2903E-02  0.2903E-02  0.0000E+00  0.0000E+00  0.0000E+00  0.0000E+00  0.0000E+00  0.0000E+00  0.0000E+00  0.0000E+00  0.0000E+00  0.0000E+00
     -3.720  0.7834E-01  0.7834E-01  0.3373E-02  0.3373E-02  0.3373E-02  0.3373E-02  0.3373E-02  0.3373E-02  0.0000E+00  0.0000E+00  0.0000E+00  0.0000E+00  0.0000E+00  0.0000E+00  0.0000E+00  0.0000E+00  0.0000E+00  0.0000E+00
     -3.235  0.6600E-01  0.6600E-01  0.3455E-02  0.3455E-02  0.3455E-02  0.3455E-02  0.3455E-02  0.3455E-02  0.0000E+00  0.0000E+00  0.0000E+00  0.0000E+00  0.0000E+00  0.0000E+00  0.0000E+00  0.0000E+00  0.0000E+00  0.0000E+00
     -2.750  0.1158E-01  0.1158E-01  0.6818E-03  0.6818E-03  0.6818E-03  0.6818E-03  0.6818E-03  0.6818E-03  0.0000E+00  0.0000E+00  0.0000E+00  0.0000E+00  0.0000E+00  0.0000E+00  0.0000E+00  0.0000E+00  0.0000E+00  0.0000E+00
     -2.265  0.0000E+00  0.0000E+00  0.0000E+00  0.0000E+00  0.0000E+00  0.0000E+00  0.0000E+00  0.0000E+00  0.0000E+00  0.0000E+00  0.0000E+00  0.0000E+00  0.0000E+00  0.0000E+00  0.0000E+00  0.0000E+00  0.0000E+00  0.0000E+00
     -1.780  0.2635E-01  0.2635E-01  0.2766E-02  0.2766E-02  0.2766E-02  0.2766E-02  0.2766E-02  0.2766E-02  0.0000E+00  0.0000E+00  0.0000E+00  0.0000E+00  0.0000E+00  0.0000E+00  0.0000E+00  0.0000E+00  0.0000E+00  0.0000E+00
     -1.294  0.1148E+00  0.1148E+00  0.1908E-01  0.1908E-01  0.1908E-01  0.1908E-01  0.1908E-01  0.1908E-01  0.0000E+00  0.0000E+00  0.0000E+00  0.0000E+00  0.0000E+00  0.0000E+00  0.0000E+00  0.0000E+00  0.0000E+00  0.0000E+00
     -0.809  0.4811E-01  0.4811E-01  0.9050E-02  0.9050E-02  0.9050E-02  0.9050E-02  0.9050E-02  0.9050E-02  0.0000E+00  0.0000E+00  0.0000E+00  0.0000E+00  0.0000E+00  0.0000E+00  0.0000E+00  0.0000E+00  0.0000E+00  0.0000E+00
     -0.324  0.3380E-01  0.3380E-01  0.6784E-02  0.6784E-02  0.6784E-02  0.6784E-02  0.6784E-02  0.6784E-02  0.0000E+00  0.0000E+00  0.0000E+00  0.0000E+00  0.0000E+00  0.0000E+00  0.0000E+00  0.0000E+00  0.0000E+00  0.0000E+00
      0.161  0.2483E-01  0.2483E-01  0.5533E-02  0.5533E-02  0.5533E-02  0.5533E-02  0.5533E-02  0.5533E-02  0.0000E+00  0.0000E+00  0.0000E+00  0.0000E+00  0.0000E+00  0.0000E+00  0.0000E+00  0.0000E+00  0.0000E+00  0.0000E+00
      0.646  0.1613E-01  0.1613E-01  0.4133E-02  0.4133E-02  0.4133E-02  0.4133E-02  0.4133E-02  0.4133E-02  0.0000E+00  0.0000E+00  0.0000E+00  0.0000E+00  0.0000E+00  0.0000E+00  0.0000E+00  0.0000E+00  0.0000E+00  0.0000E+00
      1.131  0.1358E-01  0.1358E-01  0.3772E-02  0.3772E-02  0.3772E-02  0.3772E-02  0.3772E-02  0.3772E-02  0.0000E+00  0.0000E+00  0.0000E+00  0.0000E+00  0.0000E+00  0.0000E+00  0.0000E+00  0.0000E+00  0.0000E+00  0.0000E+00
      1.617  0.1709E-01  0.1709E-01  0.3239E-01  0.3239E-01  0.3239E-01  0.3239E-01  0.3239E-01  0.3239E-01  0.0000E+00  0.0000E+00  0.0000E+00  0.0000E+00  0.0000E+00  0.0000E+00  0.0000E+00  0.0000E+00  0.0000E+00  0.0000E+00
      2.102  0.1298E-01  0.1298E-01  0.2620E-01  0.2620E-01  0.2620E-01  0.2620E-01  0.2620E-01  0.2620E-01  0.0000E+00  0.0000E+00  0.0000E+00  0.0000E+00  0.0000E+00  0.0000E+00  0.0000E+00  0.0000E+00  0.0000E+00  0.0000E+00
      2.587  0.1146E-01  0.1146E-01  0.3994E-01  0.3994E-01  0.3994E-01  0.3994E-01  0.3994E-01  0.3994E-01  0.0000E+00  0.0000E+00  0.0000E+00  0.0000E+00  0.0000E+00  0.0000E+00  0.0000E+00  0.0000E+00  0.0000E+00  0.0000E+00
      3.072  0.1020E-01  0.1020E-01  0.4473E-01  0.4473E-01  0.4473E-01  0.4473E-01  0.4473E-01  0.4473E-01  0.0000E+00  0.0000E+00  0.0000E+00  0.0000E+00  0.0000E+00  0.0000E+00  0.0000E+00  0.0000E+00  0.0000E+00  0.0000E+00
      3.557  0.7660E-02  0.7660E-02  0.4481E-01  0.4481E-01  0.4481E-01  0.4481E-01  0.4481E-01  0.4481E-01  0.0000E+00  0.0000E+00  0.0000E+00  0.0000E+00  0.0000E+00  0.0000E+00  0.0000E+00  0.0000E+00  0.0000E+00  0.0000E+00
      4.042  0.4164E-02  0.4164E-02  0.4365E-01  0.4365E-01  0.4365E-01  0.4365E-01  0.4365E-01  0.4365E-01  0.0000E+00  0.0000E+00  0.0000E+00  0.0000E+00  0.0000E+00  0.0000E+00  0.0000E+00  0.0000E+00  0.0000E+00  0.0000E+00
      4.528  0.1295E-02  0.1295E-02  0.2629E-01  0.2629E-01  0.2629E-01  0.2629E-01  0.2629E-01  0.2629E-01  0.0000E+00  0.0000E+00  0.0000E+00  0.0000E+00  0.0000E+00  0.0000E+00  0.0000E+00  0.0000E+00  0.0000E+00  0.0000E+00
      5.013  0.2612E-03  0.2612E-03  0.1096E-01  0.1096E-01  0.1096E-01  0.1096E-01  0.1096E-01  0.1096E-01  0.0000E+00  0.0000E+00  0.0000E+00  0.0000E+00  0.0000E+00  0.0000E+00  0.0000E+00  0.0000E+00  0.0000E+00  0.0000E+00
      5.498  0.9010E-05  0.9010E-05  0.1009E-02  0.1009E-02  0.1009E-02  0.1009E-02  0.1009E-02  0.1009E-02  0.0000E+00  0.0000E+00  0.0000E+00  0.0000E+00  0.0000E+00  0.0000E+00  0.0000E+00  0.0000E+00  0.0000E+00  0.0000E+00
      5.983  0.0000E+00  0.0000E+00  0.0000E+00  0.0000E+00  0.0000E+00  0.0000E+00  0.0000E+00  0.0000E+00  0.0000E+00  0.0000E+00  0.0000E+00  0.0000E+00  0.0000E+00  0.0000E+00  0.0000E+00  0.0000E+00  0.0000E+00  0.0000E+00
      6.468  0.2648E-03  0.2648E-03  0.6832E-04  0.6832E-04  0.6832E-04  0.6832E-04  0.6832E-04  0.6832E-04  0.0000E+00  0.0000E+00  0.0000E+00  0.0000E+00  0.0000E+00  0.0000E+00  0.0000E+00  0.0000E+00  0.0000E+00  0.0000E+00
      6.953  0.5584E-02  0.5584E-02  0.2270E-02  0.2270E-02  0.2270E-02  0.2270E-02  0.2270E-02  0.2270E-02  0.0000E+00  0.0000E+00  0.0000E+00  0.0000E+00  0.0000E+00  0.0000E+00  0.0000E+00  0.0000E+00  0.0000E+00  0.0000E+00
      7.439  0.1048E-01  0.1048E-01  0.5284E-02  0.5284E-02  0.5284E-02  0.5284E-02  0.5284E-02  0.5284E-02  0.0000E+00  0.0000E+00  0.0000E+00  0.0000E+00  0.0000E+00  0.0000E+00  0.0000E+00  0.0000E+00  0.0000E+00  0.0000E+00
      7.924  0.3806E-01  0.3806E-01  0.1319E-01  0.1319E-01  0.1319E-01  0.1319E-01  0.1319E-01  0.1319E-01  0.0000E+00  0.0000E+00  0.0000E+00  0.0000E+00  0.0000E+00  0.0000E+00  0.0000E+00  0.0000E+00  0.0000E+00  0.0000E+00
      8.409  0.5614E-01  0.5614E-01  0.2443E-01  0.2443E-01  0.2443E-01  0.2443E-01  0.2443E-01  0.2443E-01  0.0000E+00  0.0000E+00  0.0000E+00  0.0000E+00  0.0000E+00  0.0000E+00  0.0000E+00  0.0000E+00  0.0000E+00  0.0000E+00
      8.894  0.1640E-01  0.1640E-01  0.1141E-01  0.1141E-01  0.1141E-01  0.1141E-01  0.1141E-01  0.1141E-01  0.0000E+00  0.0000E+00  0.0000E+00  0.0000E+00  0.0000E+00  0.0000E+00  0.0000E+00  0.0000E+00  0.0000E+00  0.0000E+00
      9.379  0.1559E-01  0.1559E-01  0.1850E-01  0.1850E-01  0.1850E-01  0.1850E-01  0.1850E-01  0.1850E-01  0.0000E+00  0.0000E+00  0.0000E+00  0.0000E+00  0.0000E+00  0.0000E+00  0.0000E+00  0.0000E+00  0.0000E+00  0.0000E+00
      9.864  0.5678E-01  0.5678E-01  0.5193E-01  0.5193E-01  0.5193E-01  0.5193E-01  0.5193E-01  0.5193E-01  0.0000E+00  0.0000E+00  0.0000E+00  0.0000E+00  0.0000E+00  0.0000E+00  0.0000E+00  0.0000E+00  0.0000E+00  0.0000E+00
     10.350  0.1373E-01  0.1373E-01  0.1851E-01  0.1851E-01  0.1851E-01  0.1851E-01  0.1851E-01  0.1851E-01  0.0000E+00  0.0000E+00  0.0000E+00  0.0000E+00  0.0000E+00  0.0000E+00  0.0000E+00  0.0000E+00  0.0000E+00  0.0000E+00
     10.835  0.1699E-01  0.1699E-01  0.1458E-01  0.1458E-01  0.1458E-01  0.1458E-01  0.1458E-01  0.1458E-01  0.0000E+00  0.0000E+00  0.0000E+00  0.0000E+00  0.0000E+00  0.0000E+00  0.0000E+00  0.0000E+00  0.0000E+00  0.0000E+00