 vasp.6.3.2 27Jun22 (build Jun 30 2023 15:13:53) complex
 executed on    LinuxNV_CrayMPICH date 2023.07.25  18:02:47
 running  128 mpi-ranks, with    1 threads/rank
 distrk:  each k-point on  128 cores,    1 groups
 distr:  one band on NCORE=   1 cores,  128 groups


--------------------------------------------------------------------------------------------------------


 INCAR:
   ALGO = Fast
   EDIFF = 1e-05
   ENAUG = 1360.0
   ENCUT = 680.0
   GGA = Ps
   ISMEAR = -5
   ISPIN = 2
   KSPACING = 0.29539340980039036
   LAECHG = True
   LASPH = True
   LCHARG = True
   LELF = True
   LMIXTAU = True
   LORBIT = 11
   LREAL = False
   LVTOT = True
   LWAVE = False
   MAGMOM = 2*0.0
   METAGGA = R2scan
   NELM = 200
   NSW = 0
   PREC = Accurate
   SIGMA = 0.05

 POTCAR:    PAW_PBE Si 05Jan2001
 WARNING: For LVTOT=.TRUE., VASP.5.x writes the TOTAL local potential to the
     file LOCPOT. If you want only the Hartree contributions, use LVHAR=.TRUE.
     instead.

 POTCAR:    PAW_PBE Si 05Jan2001
   VRHFIN =Si: s2p2
   LEXCH  = PE
   EATOM  =   103.0669 eV,    7.5752 Ry

   TITEL  = PAW_PBE Si 05Jan2001
   LULTRA =        F    use ultrasoft PP ?
   IUNSCR =        1    unscreen: 0-lin 1-nonlin 2-no
   RPACOR =    1.500    partial core radius
   POMASS =   28.085; ZVAL   =    4.000    mass and valenz
   RCORE  =    1.900    outmost cutoff radius
   RWIGS  =    2.480; RWIGS  =    1.312    wigner-seitz radius (au A)
   ENMAX  =  245.345; ENMIN  =  184.009 eV
   ICORE  =        2    local potential
   LCOR   =        T    correct aug charges
   LPAW   =        T    paw PP
   EAUG   =  322.069
   DEXC   =    0.000
   RMAX   =    1.950    core radius for proj-oper
   RAUG   =    1.300    factor for augmentation sphere
   RDEP   =    1.993    radius for radial grids
   RDEPT  =    1.837    core radius for aug-charge

   Atomic configuration
    6 entries
     n  l   j            E        occ.
     1  0  0.50     -1785.8828   2.0000
     2  0  0.50      -139.4969   2.0000
     2  1  1.50       -95.5546   6.0000
     3  0  0.50       -10.8127   2.0000
     3  1  0.50        -4.0811   2.0000
     3  2  1.50        -4.0817   0.0000
   Description
     l       E           TYP  RCUT    TYP  RCUT
     0    -10.8127223     23  1.900
     0     -7.6451159     23  1.900
     1     -4.0811372     23  1.900
     1      2.4879257     23  1.900
     2     -4.0817478      7  1.900
  local pseudopotential read in
  partial core-charges read in
  partial kinetic energy density read in
  atomic valenz-charges read in
  non local Contribution for L=            0  read in
    real space projection operators read in
  non local Contribution for L=            0  read in
    real space projection operators read in
  non local Contribution for L=            1  read in
    real space projection operators read in
  non local Contribution for L=            1  read in
    real space projection operators read in
    PAW grid and wavefunctions read in

   number of l-projection  operators is LMAX  =            4
   number of lm-projection operators is LMMAX =            8

 -----------------------------------------------------------------------------
|                                                                             |
|               ----> ADVICE to this user running VASP <----                  |
|                                                                             |
|     You enforced a specific xc type in the INCAR file but a different       |
|     type was found in the POTCAR file.                                      |
|     I HOPE YOU KNOW WHAT YOU ARE DOING!                                     |
|                                                                             |
 -----------------------------------------------------------------------------

  PAW_PBE Si 05Jan2001                  :
 energy of atom  1       EATOM= -103.0669
 kinetic energy error for atom=    0.0003 (will be added to EATOM!!)


 POSCAR: Si2
  positions in direct lattice
  No initial velocities read in

 METAGGA = R2SCA    LMAXTAU =  6    LMIXTAU =  T

 exchange correlation table for  LEXCH =       14
   RHO(1)=    0.500       N(1)  =     2000
   RHO(2)=  100.500       N(2)  =     4000



--------------------------------------------------------------------------------------------------------


 ion  position               nearest neighbor table
   1  0.875  0.875  0.875-   2 2.36   2 2.36   2 2.36   2 2.36
   2  0.125  0.125  0.125-   1 2.36   1 2.36   1 2.36   1 2.36

  LATTYP: Found a face centered cubic cell.
 ALAT       =     5.4437031493

  Lattice vectors:

 A1 = (   3.3335730000,   0.0000000000,   1.9246390000)
 A2 = (   1.1111910000,   3.1429240000,   1.9246390000)
 A3 = (   0.0000000000,   0.0000000000,   3.8492780000)


Analysis of symmetry for initial positions (statically):
=====================================================================
 Subroutine PRICEL returns:
 Original cell was already a primitive cell.


 Routine SETGRP: Setting up the symmetry group for a
 face centered cubic supercell.


 Subroutine GETGRP returns: Found 48 space group operations
 (whereof 12 operations were pure point group operations)
 out of a pool of 48 trial point group operations.


The static configuration has the point symmetry D_3d.
 The point group associated with its full space group is O_h .


Analysis of symmetry for dynamics (positions and initial velocities):
=====================================================================
 Subroutine PRICEL returns:
 Original cell was already a primitive cell.


 Routine SETGRP: Setting up the symmetry group for a
 face centered cubic supercell.


 Subroutine GETGRP returns: Found 48 space group operations
 (whereof 12 operations were pure point group operations)
 out of a pool of 48 trial point group operations.


The dynamic configuration has the point symmetry D_3d.
 The point group associated with its full space group is O_h .


Analysis of structural, dynamic, and magnetic symmetry:
=====================================================================
 Subroutine PRICEL returns:
 Original cell was already a primitive cell.


 Routine SETGRP: Setting up the symmetry group for a
 face centered cubic supercell.


 Subroutine GETGRP returns: Found 48 space group operations
 (whereof 12 operations were pure point group operations)
 out of a pool of 48 trial point group operations.


The overall configuration has the point symmetry D_3d.
 The point group associated with its full space group is O_h .


 Subroutine INISYM returns: Found 48 space group operations
 (whereof 12 operations are pure point group operations),
 and found     1 'primitive' translations


----------------------------------------------------------------------------------------

                                     Primitive cell

  volume of cell :      40.3295

  direct lattice vectors                    reciprocal lattice vectors
     3.333573000  0.000000000  1.924639000     0.299978432 -0.106058350  0.000000000
     1.111191000  3.142924000  1.924639000     0.000000000  0.318175050  0.000000000
     0.000000000  0.000000000  3.849278000    -0.149989216 -0.106058350  0.259788979

  length of vectors
     3.849278403  3.849279412  3.849278000     0.318175161  0.318175050  0.318175190

  position of ions in fractional coordinates (direct lattice)
     0.875000000  0.875000000  0.875000000
     0.125000000  0.125000000  0.125000000

  ion indices of the primitive-cell ions
   primitive index   ion index
                 1           1
                 2           2

----------------------------------------------------------------------------------------


 -----------------------------------------------------------------------------
|                                                                             |
|           W    W    AA    RRRRR   N    N  II  N    N   GGGG   !!!           |
|           W    W   A  A   R    R  NN   N  II  NN   N  G    G  !!!           |
|           W    W  A    A  R    R  N N  N  II  N N  N  G       !!!           |
|           W WW W  AAAAAA  RRRRR   N  N N  II  N  N N  G  GGG   !            |
|           WW  WW  A    A  R   R   N   NN  II  N   NN  G    G                |
|           W    W  A    A  R    R  N    N  II  N    N   GGGG   !!!           |
|                                                                             |
|     The requested file  could not be found or opened for reading            |
|     k-point information. Automatic k-point generation is used as a          |
|     fallback, which may lead to unwanted results.                           |
|                                                                             |
 -----------------------------------------------------------------------------



Automatic generation of k-mesh.
 Grid dimensions derived from KSPACING:
 generate k-points for:    7    7    7

 Generating k-lattice:

  Cartesian coordinates                     Fractional coordinates (reciprocal lattice)
     0.042854062 -0.015151193  0.000000000     0.142857143  0.000000000  0.000000000
     0.000000000  0.045453579  0.000000000     0.000000000  0.142857143  0.000000000
    -0.021427031 -0.015151193  0.037112711     0.000000000  0.000000000  0.142857143

  Length of vectors
     0.045453594  0.045453579  0.045453599

  Shift w.r.t. Gamma in fractional coordinates (k-lattice)
     0.000000000  0.000000000  0.000000000

 TETIRR: Found     58 inequivalent tetrahedra from     2058

 Subroutine IBZKPT returns following result:
 ===========================================

 Found     20 irreducible k-points:

 Following reciprocal coordinates:
            Coordinates               Weight
  0.000000  0.000000  0.000000      1.000000
  0.142857  0.000000  0.000000      8.000000
  0.285714  0.000000  0.000000      8.000000
  0.428571  0.000000  0.000000      8.000000
  0.142857  0.142857  0.000000      6.000000
  0.285714  0.142857  0.000000     24.000000
  0.428571  0.142857  0.000000     24.000000
 -0.428571  0.142857  0.000000     24.000000
 -0.285714  0.142857  0.000000     24.000000
 -0.142857  0.142857  0.000000     12.000000
  0.285714  0.285714  0.000000      6.000000
  0.428571  0.285714  0.000000     24.000000
 -0.428571  0.285714  0.000000     24.000000
 -0.285714  0.285714  0.000000     12.000000
  0.428571  0.428571  0.000000      6.000000
 -0.428571  0.428571  0.000000     12.000000
  0.428571  0.285714  0.142857     24.000000
 -0.428571  0.285714  0.142857     48.000000
 -0.428571  0.428571  0.142857     24.000000
 -0.285714  0.428571  0.142857     24.000000

 Following cartesian coordinates:
            Coordinates               Weight
  0.000000  0.000000  0.000000      1.000000
  0.042854 -0.015151  0.000000      8.000000
  0.085708 -0.030302  0.000000      8.000000
  0.128562 -0.045454  0.000000      8.000000
  0.042854  0.030302  0.000000      6.000000
  0.085708  0.015151  0.000000     24.000000
  0.128562  0.000000  0.000000     24.000000
 -0.128562  0.090907  0.000000     24.000000
 -0.085708  0.075756  0.000000     24.000000
 -0.042854  0.060605  0.000000     12.000000
  0.085708  0.060605  0.000000      6.000000
  0.128562  0.045454  0.000000     24.000000
 -0.128562  0.136361  0.000000     24.000000
 -0.085708  0.121210  0.000000     12.000000
  0.128562  0.090907  0.000000      6.000000
 -0.128562  0.181814  0.000000     12.000000
  0.107135  0.030302  0.037113     24.000000
 -0.149989  0.121210  0.037113     48.000000
 -0.149989  0.166663  0.037113     24.000000
 -0.107135  0.151512  0.037113     24.000000



--------------------------------------------------------------------------------------------------------




 Dimension of arrays:
   k-points           NKPTS =     20   k-points in BZ     NKDIM =     20   number of bands    NBANDS=    128
   number of dos      NEDOS =    301   number of ions     NIONS =      2
   non local maximal  LDIM  =      4   non local SUM 2l+1 LMDIM =      8
   total plane-waves  NPLWV =  46656
   max r-space proj   IRMAX =      1   max aug-charges    IRDMAX=  38875
   dimension x,y,z NGX =    36 NGY =   36 NGZ =   36
   dimension x,y,z NGXF=    72 NGYF=   72 NGZF=   72
   support grid    NGXF=    72 NGYF=   72 NGZF=   72
   ions per type =               2
   NGX,Y,Z   is equivalent  to a cutoff of  15.55, 15.55, 15.55 a.u.
   NGXF,Y,Z  is equivalent  to a cutoff of  31.10, 31.10, 31.10 a.u.

 SYSTEM =  unknown system
 POSCAR =  Si2

 Startparameter for this run:
   NWRITE =      2    write-flag & timer
   PREC   = accura    normal or accurate (medium, high low for compatibility)
   ISTART =      1    job   : 0-new  1-cont  2-samecut
   ICHARG =      0    charge: 1-file 2-atom 10-const
   ISPIN  =      2    spin polarized calculation?
   LNONCOLLINEAR =      F non collinear calculations
   LSORBIT =      F    spin-orbit coupling
   INIWAV =      1    electr: 0-lowe 1-rand  2-diag
   LASPH  =      T    aspherical Exc in radial PAW
 Electronic Relaxation 1
   ENCUT  =  680.0 eV  49.98 Ry    7.07 a.u.   8.18  8.18  8.18*2*pi/ulx,y,z
   ENINI  =  680.0     initial cutoff
   ENAUG  = 1360.0 eV  augmentation charge cutoff
   NELM   =    200;   NELMIN=  2; NELMDL=  0     # of ELM steps
   EDIFF  = 0.1E-04   stopping-criterion for ELM
   LREAL  =      F    real-space projection
   NLSPLINE    = F    spline interpolate recip. space projectors
   LCOMPAT=      F    compatible to vasp.4.4
   GGA_COMPAT  = T    GGA compatible to vasp.4.4-vasp.4.6
   LMAXPAW     = -100 max onsite density
   LMAXMIX     =    2 max onsite mixed and CHGCAR
   VOSKOWN=      0    Vosko Wilk Nusair interpolation
   ROPT   =    0.00000
 Ionic relaxation
   EDIFFG = 0.1E-03   stopping-criterion for IOM
   NSW    =      0    number of steps for IOM
   NBLOCK =      1;   KBLOCK =      1    inner block; outer block
   IBRION =     -1    ionic relax: 0-MD 1-quasi-New 2-CG
   NFREE  =      0    steps in history (QN), initial steepest desc. (CG)
   ISIF   =      2    stress and relaxation
   IWAVPR =     10    prediction:  0-non 1-charg 2-wave 3-comb
   ISYM   =      2    0-nonsym 1-usesym 2-fastsym
   LCORR  =      T    Harris-Foulkes like correction to forces

   POTIM  = 0.5000    time-step for ionic-motion
   TEIN   =    0.0    initial temperature
   TEBEG  =    0.0;   TEEND  =   0.0 temperature during run
   SMASS  =  -3.00    Nose mass-parameter (am)
   estimated Nose-frequenzy (Omega)   =  0.10E-29 period in steps = 0.13E+47 mass=  -0.339E-27a.u.
   SCALEE = 1.0000    scale energy and forces
   NPACO  =    256;   APACO  = 10.0  distance and # of slots for P.C.
   PSTRESS=    0.0 pullay stress

  Mass of Ions in am
   POMASS =  28.09
  Ionic Valenz
   ZVAL   =   4.00
  Atomic Wigner-Seitz radii
   RWIGS  =  -1.00
  virtual crystal weights
   VCA    =   1.00
   NELECT =       8.0000    total number of electrons
   NUPDOWN=      -1.0000    fix difference up-down

 DOS related values:
   EMIN   =  10.00;   EMAX   =-10.00  energy-range for DOS
   EFERMI =   0.00
   ISMEAR =    -5;   SIGMA  =   0.05  broadening in eV -4-tet -1-fermi 0-gaus

 Electronic relaxation 2 (details)
   IALGO  =     68    algorithm
   LDIAG  =      T    sub-space diagonalisation (order eigenvalues)
   LSUBROT=      F    optimize rotation matrix (better conditioning)
   TURBO    =      0    0=normal 1=particle mesh
   IRESTART =      0    0=no restart 2=restart with 2 vectors
   NREBOOT  =      0    no. of reboots
   NMIN     =      0    reboot dimension
   EREF     =   0.00    reference energy to select bands
   IMIX   =      4    mixing-type and parameters
     AMIX     =   0.40;   BMIX     =  1.00
     AMIX_MAG =   1.60;   BMIX_MAG =  1.00
     AMIN     =   0.10
     WC   =   100.;   INIMIX=   1;  MIXPRE=   1;  MAXMIX= -45

 Intra band minimization:
   WEIMIN = 0.0000     energy-eigenvalue tresh-hold
   EBREAK =  0.20E-07  absolut break condition
   DEPER  =   0.30     relativ break condition

   TIME   =   0.40     timestep for ELM

  volume/ion in A,a.u.               =      20.16       136.08
  Fermi-wavevector in a.u.,A,eV,Ry     =   0.954766  1.804247 12.402783  0.911579
  Thomas-Fermi vector in A             =   2.083543

 Write flags
   LWAVE        =      F    write WAVECAR
   LDOWNSAMPLE  =      F    k-point downsampling of WAVECAR
   LCHARG       =      T    write CHGCAR
   LVTOT        =      T    write LOCPOT, total local potential
   LVHAR        =      F    write LOCPOT, Hartree potential only
   LELF         =      T    write electronic localiz. function (ELF)
   LORBIT       =     11    0 simple, 1 ext, 2 COOP (PROOUT), +10 PAW based schemes


 Dipole corrections
   LMONO  =      F    monopole corrections only (constant potential shift)
   LDIPOL =      F    correct potential (dipole corrections)
   IDIPOL =      0    1-x, 2-y, 3-z, 4-all directions
   EPSILON=  1.0000000 bulk dielectric constant

 Exchange correlation treatment:
   GGA     =    PS    GGA type
   LEXCH   =    14    internal setting for exchange type
   LIBXC   =     F    Libxc
   VOSKOWN =     0    Vosko Wilk Nusair interpolation
   LHFCALC =     F    Hartree Fock is set to
   LHFONE  =     F    Hartree Fock one center treatment
   AEXX    =    0.0000 exact exchange contribution

 Linear response parameters
   LEPSILON=     F    determine dielectric tensor
   LRPA    =     F    only Hartree local field effects (RPA)
   LNABLA  =     F    use nabla operator in PAW spheres
   LVEL    =     F    velocity operator in full k-point grid
   CSHIFT  =0.1000    complex shift for real part using Kramers Kronig
   OMEGAMAX=  -1.0    maximum frequency
   DEG_THRESHOLD= 0.2000000E-02 threshold for treating states as degnerate
   RTIME   =   -0.100 relaxation time in fs
  (WPLASMAI=    0.000 imaginary part of plasma frequency in eV, 0.658/RTIME)
   DFIELD  = 0.0000000 0.0000000 0.0000000 field for delta impulse in time

  Optional k-point grid parameters
   LKPOINTS_OPT  =     F    use optional k-point grid
   KPOINTS_OPT_MODE=     1    mode for optional k-point grid

 Orbital magnetization related:
   ORBITALMAG=     F  switch on orbital magnetization
   LCHIMAG   =     F  perturbation theory with respect to B field
   DQ        =  0.001000  dq finite difference perturbation B field
   LLRAUG    =     F  two centre corrections for induced B field



--------------------------------------------------------------------------------------------------------


 Static calculation
 charge density and potential will be updated during run
 spin polarized calculation
 RMM-DIIS sequential band-by-band and
  variant of blocked Davidson during initial phase
 perform sub-space diagonalisation
    before iterative eigenvector-optimisation
 modified Broyden-mixing scheme, WC =      100.0
 initial mixing is a Kerker type mixing with AMIX =  0.4000 and BMIX =      1.0000
 Hartree-type preconditioning will be used
 using additional bands           124
 reciprocal scheme for non local part
 use partial core corrections
 calculate Harris-corrections to forces
   (improved forces if not selfconsistent)
 use gradient corrections
 use of overlap-Matrix (Vanderbilt PP)
 Fermi weights with tetrahedron method with Bloechl corrections


--------------------------------------------------------------------------------------------------------


  energy-cutoff  :      680.00
  volume of cell :       40.33
      direct lattice vectors                 reciprocal lattice vectors
     3.333573000  0.000000000  1.924639000     0.299978432 -0.106058350  0.000000000
     1.111191000  3.142924000  1.924639000     0.000000000  0.318175050  0.000000000
     0.000000000  0.000000000  3.849278000    -0.149989216 -0.106058350  0.259788979

  length of vectors
     3.849278403  3.849279412  3.849278000     0.318175161  0.318175050  0.318175190



 old parameters found on file WAVECAR:
  energy-cutoff  :      680.00
  volume of cell :       40.33
      direct lattice vectors                 reciprocal lattice vectors
     3.333573000  0.000000000  1.924639000     0.299978432 -0.106058350  0.000000000
     1.111191000  3.142924000  1.924639000     0.000000000  0.318175050  0.000000000
     0.000000000  0.000000000  3.849278000    -0.149989216 -0.106058350  0.259788979

  length of vectors


 k-points in units of 2pi/SCALE and weight: read from INCAR
   0.00000000  0.00000000  0.00000000       0.003
   0.04285406 -0.01515119  0.00000000       0.023
   0.08570812 -0.03030239  0.00000000       0.023
   0.12856218 -0.04545358  0.00000000       0.023
   0.04285406  0.03030239  0.00000000       0.017
   0.08570812  0.01515119  0.00000000       0.070
   0.12856218  0.00000000  0.00000000       0.070
  -0.12856218  0.09090716  0.00000000       0.070
  -0.08570812  0.07575596  0.00000000       0.070
  -0.04285406  0.06060477  0.00000000       0.035
   0.08570812  0.06060477  0.00000000       0.017
   0.12856218  0.04545358  0.00000000       0.070
  -0.12856218  0.13636074  0.00000000       0.070
  -0.08570812  0.12120954  0.00000000       0.035
   0.12856218  0.09090716  0.00000000       0.017
  -0.12856218  0.18181431  0.00000000       0.035
   0.10713515  0.03030239  0.03711271       0.070
  -0.14998922  0.12120954  0.03711271       0.140
  -0.14998922  0.16666312  0.03711271       0.070
  -0.10713515  0.15151193  0.03711271       0.070

 k-points in reciprocal lattice and weights: read from INCAR
   0.00000000  0.00000000  0.00000000       0.003
   0.14285714  0.00000000  0.00000000       0.023
   0.28571429  0.00000000  0.00000000       0.023
   0.42857143  0.00000000  0.00000000       0.023
   0.14285714  0.14285714  0.00000000       0.017
   0.28571429  0.14285714  0.00000000       0.070
   0.42857143  0.14285714  0.00000000       0.070
  -0.42857143  0.14285714  0.00000000       0.070
  -0.28571429  0.14285714  0.00000000       0.070
  -0.14285714  0.14285714  0.00000000       0.035
   0.28571429  0.28571429  0.00000000       0.017
   0.42857143  0.28571429  0.00000000       0.070
  -0.42857143  0.28571429  0.00000000       0.070
  -0.28571429  0.28571429  0.00000000       0.035
   0.42857143  0.42857143  0.00000000       0.017
  -0.42857143  0.42857143  0.00000000       0.035
   0.42857143  0.28571429  0.14285714       0.070
  -0.42857143  0.28571429  0.14285714       0.140
  -0.42857143  0.42857143  0.14285714       0.070
  -0.28571429  0.42857143  0.14285714       0.070

 position of ions in fractional coordinates (direct lattice)
   0.87500000  0.87500000  0.87500000
   0.12500000  0.12500000  0.12500000

 position of ions in cartesian coordinates  (Angst):
   3.88916850  2.75005850  6.73623650
   0.55559550  0.39286550  0.96231950



--------------------------------------------------------------------------------------------------------


 k-point   1 :   0.0000 0.0000 0.0000  plane waves:    1639
 k-point   2 :   0.1429 0.0000 0.0000  plane waves:    1618
 k-point   3 :   0.2857 0.0000 0.0000  plane waves:    1633
 k-point   4 :   0.4286 0.0000 0.0000  plane waves:    1616
 k-point   5 :   0.1429 0.1429 0.0000  plane waves:    1623
 k-point   6 :   0.2857 0.1429 0.0000  plane waves:    1626
 k-point   7 :   0.4286 0.1429 0.0000  plane waves:    1623
 k-point   8 :  -0.4286 0.1429 0.0000  plane waves:    1626
 k-point   9 :  -0.2857 0.1429 0.0000  plane waves:    1629
 k-point  10 :  -0.1429 0.1429 0.0000  plane waves:    1618
 k-point  11 :   0.2857 0.2857 0.0000  plane waves:    1620
 k-point  12 :   0.4286 0.2857 0.0000  plane waves:    1626
 k-point  13 :  -0.4286 0.2857 0.0000  plane waves:    1623
 k-point  14 :  -0.2857 0.2857 0.0000  plane waves:    1622
 k-point  15 :   0.4286 0.4286 0.0000  plane waves:    1628
 k-point  16 :  -0.4286 0.4286 0.0000  plane waves:    1628
 k-point  17 :   0.4286 0.2857 0.1429  plane waves:    1615
 k-point  18 :  -0.4286 0.2857 0.1429  plane waves:    1624
 k-point  19 :  -0.4286 0.4286 0.1429  plane waves:    1641
 k-point  20 :  -0.2857 0.4286 0.1429  plane waves:    1626

 maximum and minimum number of plane-waves per node :      1641     1615

 maximum number of plane-waves:      1641
 maximum index in each direction:
   IXMAX=    8   IYMAX=    8   IZMAX=    8
   IXMIN=   -8   IYMIN=   -8   IZMIN=   -8


 serial   3D FFT for wavefunctions
 parallel 3D FFT for charge:
    minimum data exchange during FFTs selected (reduces bandwidth)


 total amount of memory used by VASP MPI-rank0    40962. kBytes
=======================================================================

   base      :      30000. kBytes
   nonl-proj :       2183. kBytes
   fftplans  :        395. kBytes
   grid      :       7226. kBytes
   one-center:         12. kBytes
   wavefun   :       1146. kBytes

     INWAV:  cpu time      0.7772: real time      3.0868
 Broyden mixing: mesh for mixing (old mesh)
   NGX = 17   NGY = 17   NGZ = 17
  (NGX  = 72   NGY  = 72   NGZ  = 72)
  gives a total of   4913 points

 charge density for first step will be calculated from the start-wavefunctions


--------------------------------------------------------------------------------------------------------


 Maximum index for augmentation-charges          1039 (set IRDMAX)


--------------------------------------------------------------------------------------------------------


 initial charge from wavefunction
 First call to EWALD:  gamma=   0.517
 Maximum number of real-space cells 3x 3x 3
 Maximum number of reciprocal cells 3x 3x 3

    FEWALD:  cpu time      0.0006: real time      0.0006


--------------------------------------- Iteration      1(   1)  ---------------------------------------


    POTLOK:  cpu time      0.0321: real time      0.0324
    SETDIJ:  cpu time      0.3962: real time      0.3964
     EDDAV:  cpu time     21.3795: real time     21.3965
 BZINTS: Fermi energy:    5.796534;    8.000000 electrons
         Band energy: 0.554820E+01;  BLOECHL correction:   -0.000000
       DOS:  cpu time      0.0512: real time      0.0512
    CHARGE:  cpu time      0.2214: real time      0.2217
    MIXING:  cpu time      0.0017: real time      0.0018
    --------------------------------------------
      LOOP:  cpu time     22.0820: real time     22.0999

 eigenvalue-minimisations  : 14336
 total energy-change (2. order) :-0.4644434E+02  (-0.5502115E+02)
 number of electron       8.0000000 magnetization       0.0000000
 augmentation part       -0.4297363 magnetization      -0.0000000

 Broyden mixing:
  rms(total) = 0.37011E+01    rms(broyden)= 0.24695E+02
  rms(prec ) = 0.37137E+01
  weight for this iteration     100.00
  WARNING: grid for Broyden might be to small

 Free energy of the ion-electron system (eV)
  ---------------------------------------------------
  alpha Z        PSCENC =         3.33880741
  Ewald energy   TEWEN  =      -227.98820643
  -Hartree energ DENC   =       -16.64023139
  -exchange      EXHF   =         0.00000000
  -V(xc)+E(xc)   XCENC  =        -9.26769450
  PAW double counting   =     10701.20864341   -10707.79546027
  entropy T*S    EENTRO =         0.00000000
  eigenvalues    EBANDS =         5.54819685
  atomic energy  EATOM  =       205.15160006
  Solvation  Ediel_sol  =         0.00000000
  ---------------------------------------------------
  free energy    TOTEN  =       -46.44434486 eV

  energy without entropy =      -46.44434486  energy(sigma->0) =      -46.44434486


--------------------------------------------------------------------------------------------------------




--------------------------------------- Iteration      1(   2)  ---------------------------------------


    POTLOK:  cpu time      0.0406: real time      0.0438
    SETDIJ:  cpu time      0.3982: real time      0.3984
    EDDIAG:  cpu time      0.9927: real time      0.9934
  RMM-DIIS:  cpu time      1.5729: real time      1.5737
    ORTHCH:  cpu time      0.1746: real time      0.1746
 BZINTS: Fermi energy:    5.786191;    8.000000 electrons
         Band energy: 0.413632E+01;  BLOECHL correction:    0.000000
       DOS:  cpu time      0.0580: real time      0.0580
    CHARGE:  cpu time      0.2208: real time      0.2223
    MIXING:  cpu time      0.0008: real time      0.0008
    --------------------------------------------
      LOOP:  cpu time      3.4586: real time      3.4648

 eigenvalue-minimisations  : 10240
 total energy-change (2. order) :-0.4224860E+00  (-0.2140527E-02)
 number of electron       8.0000000 magnetization      -0.0000000
 augmentation part       -0.4302687 magnetization      -0.0000000

 Broyden mixing:
  rms(total) = 0.22203E+01    rms(broyden)= 0.14462E+02
  rms(prec ) = 0.22310E+01
  weight for this iteration     100.00
  WARNING: grid for Broyden might be to small

 eigenvalues of (default mixing * dielectric matrix)
  average eigenvalue GAMMA=   0.6314
  0.6314

 Free energy of the ion-electron system (eV)
  ---------------------------------------------------
  alpha Z        PSCENC =         3.33880741
  Ewald energy   TEWEN  =      -227.98820643
  -Hartree energ DENC   =       -16.14823088
  -exchange      EXHF   =         0.00000000
  -V(xc)+E(xc)   XCENC  =        -8.73051811
  PAW double counting   =      6067.23388308    -6073.86048717
  entropy T*S    EENTRO =         0.00000000
  eigenvalues    EBANDS =         4.13632116
  atomic energy  EATOM  =       205.15160006
  Solvation  Ediel_sol  =         0.00000000
  ---------------------------------------------------
  free energy    TOTEN  =       -46.86683088 eV

  energy without entropy =      -46.86683088  energy(sigma->0) =      -46.86683088


--------------------------------------------------------------------------------------------------------




--------------------------------------- Iteration      1(   3)  ---------------------------------------


    POTLOK:  cpu time      0.0352: real time      0.0448
    SETDIJ:  cpu time      0.3971: real time      0.3972
    EDDIAG:  cpu time      0.9899: real time      0.9903
  RMM-DIIS:  cpu time      1.8652: real time      1.8663
    ORTHCH:  cpu time      0.1777: real time      0.1777
 BZINTS: Fermi energy:    5.674462;    8.000000 electrons
         Band energy: 0.327057E+01;  BLOECHL correction:   -0.000000
       DOS:  cpu time      0.0530: real time      0.0532
    CHARGE:  cpu time      0.2280: real time      0.2281
    MIXING:  cpu time      0.0007: real time      0.0008
    --------------------------------------------
      LOOP:  cpu time      3.7467: real time      3.7582

 eigenvalue-minimisations  : 10818
 total energy-change (2. order) : 0.1578210E-01  (-0.1320029E-03)
 number of electron       8.0000000 magnetization      -0.0000000
 augmentation part       -0.4339526 magnetization      -0.0000000

 Broyden mixing:
  rms(total) = 0.13442E+00    rms(broyden)= 0.39503E+02
  rms(prec ) = 0.41740E+00
  weight for this iteration     100.00
  WARNING: grid for Broyden might be to small

 eigenvalues of (default mixing * dielectric matrix)
  average eigenvalue GAMMA=   1.1607
  1.6899  0.6315

 Free energy of the ion-electron system (eV)
  ---------------------------------------------------
  alpha Z        PSCENC =         3.33880741
  Ewald energy   TEWEN  =      -227.98820643
  -Hartree energ DENC   =       -15.12565209
  -exchange      EXHF   =         0.00000000
  -V(xc)+E(xc)   XCENC  =        -8.80821871
  PAW double counting   =      1711.16120333    -1717.85115727
  entropy T*S    EENTRO =         0.00000000
  eigenvalues    EBANDS =         3.27057492
  atomic energy  EATOM  =       205.15160006
  Solvation  Ediel_sol  =         0.00000000
  ---------------------------------------------------
  free energy    TOTEN  =       -46.85104878 eV

  energy without entropy =      -46.85104878  energy(sigma->0) =      -46.85104878


--------------------------------------------------------------------------------------------------------




--------------------------------------- Iteration      1(   4)  ---------------------------------------


    POTLOK:  cpu time      0.0310: real time      0.0420
    SETDIJ:  cpu time      0.3960: real time      0.3963
    EDDIAG:  cpu time      0.9802: real time      0.9807
  RMM-DIIS:  cpu time      2.1894: real time      2.1909
    ORTHCH:  cpu time      0.1787: real time      0.1788
 BZINTS: Fermi energy:    5.667104;    8.000000 electrons
         Band energy: 0.320128E+01;  BLOECHL correction:    0.000000
       DOS:  cpu time      0.0524: real time      0.0524
    CHARGE:  cpu time      0.2309: real time      0.2309
    MIXING:  cpu time      0.0005: real time      0.0005
    --------------------------------------------
      LOOP:  cpu time      4.0591: real time      4.0724

 eigenvalue-minimisations  : 11797
 total energy-change (2. order) :-0.1022586E-01  (-0.1770584E-04)
 number of electron       8.0000000 magnetization       0.0000000
 augmentation part       -0.4343257 magnetization      -0.0000000

 Broyden mixing:
  rms(total) = 0.12855E-01    rms(broyden)= 0.76711E+00
  rms(prec ) = 0.16124E-01
  weight for this iteration     100.00
  WARNING: grid for Broyden might be to small

 eigenvalues of (default mixing * dielectric matrix)
  average eigenvalue GAMMA=   1.2694
  2.4709  0.7126  0.6246

 Free energy of the ion-electron system (eV)
  ---------------------------------------------------
  alpha Z        PSCENC =         3.33880741
  Ewald energy   TEWEN  =      -227.98820643
  -Hartree energ DENC   =       -15.06767674
  -exchange      EXHF   =         0.00000000
  -V(xc)+E(xc)   XCENC  =        -8.80139160
  PAW double counting   =      1531.08924110    -1537.78493188
  entropy T*S    EENTRO =         0.00000000
  eigenvalues    EBANDS =         3.20128344
  atomic energy  EATOM  =       205.15160006
  Solvation  Ediel_sol  =         0.00000000
  ---------------------------------------------------
  free energy    TOTEN  =       -46.86127464 eV

  energy without entropy =      -46.86127464  energy(sigma->0) =      -46.86127464


--------------------------------------------------------------------------------------------------------




--------------------------------------- Iteration      1(   5)  ---------------------------------------


    POTLOK:  cpu time      0.0313: real time      0.0421
    SETDIJ:  cpu time      0.3960: real time      0.3960
    EDDIAG:  cpu time      0.9792: real time      0.9795
  RMM-DIIS:  cpu time      2.2232: real time      2.2243
    ORTHCH:  cpu time      0.1748: real time      0.1749
 BZINTS: Fermi energy:    5.667352;    8.000000 electrons
         Band energy: 0.319941E+01;  BLOECHL correction:    0.000000
       DOS:  cpu time      0.0521: real time      0.0521
    CHARGE:  cpu time      0.2317: real time      0.2322
    MIXING:  cpu time      0.0004: real time      0.0004
    --------------------------------------------
      LOOP:  cpu time      4.0888: real time      4.1015

 eigenvalue-minimisations  : 11965
 total energy-change (2. order) :-0.4990026E-04  (-0.3470370E-06)
 number of electron       8.0000000 magnetization      -0.0000000
 augmentation part       -0.4343654 magnetization       0.0000000

 Broyden mixing:
  rms(total) = 0.44658E-02    rms(broyden)= 0.18328E+00
  rms(prec ) = 0.62955E-02
  weight for this iteration     100.00
  WARNING: grid for Broyden might be to small

 eigenvalues of (default mixing * dielectric matrix)
  average eigenvalue GAMMA=   1.1763
  2.5308  0.8733  0.6698  0.6313

 Free energy of the ion-electron system (eV)
  ---------------------------------------------------
  alpha Z        PSCENC =         3.33880741
  Ewald energy   TEWEN  =      -227.98820643
  -Hartree energ DENC   =       -15.06303885
  -exchange      EXHF   =         0.00000000
  -V(xc)+E(xc)   XCENC  =        -8.80206919
  PAW double counting   =      1509.67322302    -1516.37104782
  entropy T*S    EENTRO =         0.00000000
  eigenvalues    EBANDS =         3.19940725
  atomic energy  EATOM  =       205.15160006
  Solvation  Ediel_sol  =         0.00000000
  ---------------------------------------------------
  free energy    TOTEN  =       -46.86132454 eV

  energy without entropy =      -46.86132454  energy(sigma->0) =      -46.86132454


--------------------------------------------------------------------------------------------------------




--------------------------------------- Iteration      1(   6)  ---------------------------------------


    POTLOK:  cpu time      0.0304: real time      0.0424
    SETDIJ:  cpu time      0.3956: real time      0.3956
    EDDIAG:  cpu time      0.9801: real time      0.9809
  RMM-DIIS:  cpu time      2.2845: real time      2.2860
    ORTHCH:  cpu time      0.1737: real time      0.1737
 BZINTS: Fermi energy:    5.667723;    8.000000 electrons
         Band energy: 0.320035E+01;  BLOECHL correction:    0.000000
       DOS:  cpu time      0.0526: real time      0.0528
    CHARGE:  cpu time      0.2338: real time      0.2338
    MIXING:  cpu time      0.0005: real time      0.0005
    --------------------------------------------
      LOOP:  cpu time      4.1512: real time      4.1656

 eigenvalue-minimisations  : 11906
 total energy-change (2. order) :-0.2610715E-04  (-0.8841799E-07)
 number of electron       8.0000000 magnetization      -0.0000000
 augmentation part       -0.4343870 magnetization      -0.0000000

 Broyden mixing:
  rms(total) = 0.22970E-02    rms(broyden)= 0.15815E+00
  rms(prec ) = 0.36384E-02
  weight for this iteration     100.00
  WARNING: grid for Broyden might be to small

 eigenvalues of (default mixing * dielectric matrix)
  average eigenvalue GAMMA=   1.1118
  2.5346  0.9873  0.7594  0.6270  0.6505

 Free energy of the ion-electron system (eV)
  ---------------------------------------------------
  alpha Z        PSCENC =         3.33880741
  Ewald energy   TEWEN  =      -227.98820643
  -Hartree energ DENC   =       -15.06185836
  -exchange      EXHF   =         0.00000000
  -V(xc)+E(xc)   XCENC  =        -8.80282054
  PAW double counting   =      1502.85286435    -1509.55208788
  entropy T*S    EENTRO =         0.00000000
  eigenvalues    EBANDS =         3.20035075
  atomic energy  EATOM  =       205.15160006
  Solvation  Ediel_sol  =         0.00000000
  ---------------------------------------------------
  free energy    TOTEN  =       -46.86135065 eV

  energy without entropy =      -46.86135065  energy(sigma->0) =      -46.86135065


--------------------------------------------------------------------------------------------------------




--------------------------------------- Iteration      1(   7)  ---------------------------------------


    POTLOK:  cpu time      0.0441: real time      0.0460
    SETDIJ:  cpu time      0.3959: real time      0.3960
    EDDIAG:  cpu time      0.9786: real time      0.9790
  RMM-DIIS:  cpu time      2.2150: real time      2.2161
    ORTHCH:  cpu time      0.1702: real time      0.1705
 BZINTS: Fermi energy:    5.667653;    8.000000 electrons
         Band energy: 0.320133E+01;  BLOECHL correction:   -0.000000
       DOS:  cpu time      0.0525: real time      0.0525
    CHARGE:  cpu time      0.2495: real time      0.2495
    MIXING:  cpu time      0.0004: real time      0.0004
    --------------------------------------------
      LOOP:  cpu time      4.1063: real time      4.1100

 eigenvalue-minimisations  : 11853
 total energy-change (2. order) :-0.2336119E-04  (-0.1189035E-06)
 number of electron       8.0000000 magnetization       0.0000000
 augmentation part       -0.4344114 magnetization       0.0000000

 Broyden mixing:
  rms(total) = 0.27251E-03    rms(broyden)= 0.27682E-01
  rms(prec ) = 0.52358E-03
  weight for this iteration     100.00
  WARNING: grid for Broyden might be to small

 eigenvalues of (default mixing * dielectric matrix)
  average eigenvalue GAMMA=   1.0717
  2.5349  0.9396  0.9396  0.7415  0.6299  0.6447

 Free energy of the ion-electron system (eV)
  ---------------------------------------------------
  alpha Z        PSCENC =         3.33880741
  Ewald energy   TEWEN  =      -227.98820643
  -Hartree energ DENC   =       -15.06016894
  -exchange      EXHF   =         0.00000000
  -V(xc)+E(xc)   XCENC  =        -8.80397305
  PAW double counting   =      1496.01222969    -1502.71299734
  entropy T*S    EENTRO =         0.00000000
  eigenvalues    EBANDS =         3.20133460
  atomic energy  EATOM  =       205.15160006
  Solvation  Ediel_sol  =         0.00000000
  ---------------------------------------------------
  free energy    TOTEN  =       -46.86137401 eV

  energy without entropy =      -46.86137401  energy(sigma->0) =      -46.86137401


--------------------------------------------------------------------------------------------------------




--------------------------------------- Iteration      1(   8)  ---------------------------------------


    POTLOK:  cpu time      0.0300: real time      0.0424
    SETDIJ:  cpu time      0.3953: real time      0.3954
    EDDIAG:  cpu time      0.9760: real time      0.9763
  RMM-DIIS:  cpu time      2.2836: real time      2.2847
    ORTHCH:  cpu time      0.1748: real time      0.1748
 BZINTS: Fermi energy:    5.667512;    8.000000 electrons
         Band energy: 0.320104E+01;  BLOECHL correction:   -0.000000
       DOS:  cpu time      0.0526: real time      0.0526
    --------------------------------------------
      LOOP:  cpu time      3.9124: real time      3.9262

 eigenvalue-minimisations  :  9776
 total energy-change (2. order) : 0.2051659E-06  (-0.1603736E-08)
 number of electron       8.0000000 magnetization       0.0000000
 augmentation part       -0.4344114 magnetization       0.0000000

 Free energy of the ion-electron system (eV)
  ---------------------------------------------------
  alpha Z        PSCENC =         3.33880741
  Ewald energy   TEWEN  =      -227.98820643
  -Hartree energ DENC   =       -15.05970007
  -exchange      EXHF   =         0.00000000
  -V(xc)+E(xc)   XCENC  =        -8.80413744
  PAW double counting   =      1496.17571842    -1502.87649335
  entropy T*S    EENTRO =         0.00000000
  eigenvalues    EBANDS =         3.20103760
  atomic energy  EATOM  =       205.15160006
  Solvation  Ediel_sol  =         0.00000000
  ---------------------------------------------------
  free energy    TOTEN  =       -46.86137380 eV

  energy without entropy =      -46.86137380  energy(sigma->0) =      -46.86137380


--------------------------------------------------------------------------------------------------------




 average (electrostatic) potential at core
  the test charge radii are     0.9892
  (the norm of the test charge is              1.0000)
       1 -86.0173       2 -86.0173



 E-fermi :   5.6675     XC(G=0):  -9.8250     alpha+bet :-11.8943

 Fermi energy:         5.6675120241

 spin component 1

 k-point     1 :       0.0000    0.0000    0.0000
  band No.  band energies     occupation
      1      -6.8077      1.00000
      2       5.6677      1.00000
      3       5.6677      1.00000
      4       5.6677      1.00000
      5       8.4221      0.00000
      6       8.4221      0.00000
      7       8.4221      0.00000
      8       9.5689      0.00000
      9      13.7892      0.00000
     10      13.7892      0.00000
     11      14.3357      0.00000
     12      17.6863      0.00000
     13      17.6863      0.00000
     14      17.6863      0.00000
     15      21.8091      0.00000
     16      30.0918      0.00000
     17      30.0918      0.00000
     18      30.0918      0.00000
     19      31.2992      0.00000
     20      31.2992      0.00000
     21      32.9144      0.00000
     22      32.9144      0.00000
     23      32.9144      0.00000
     24      36.3929      0.00000
     25      36.3929      0.00000
     26      36.3929      0.00000
     27      42.4434      0.00000
     28      42.4434      0.00000
     29      42.4434      0.00000
     30      45.2119      0.00000
     31      46.4601      0.00000
     32      46.4601      0.00000
     33      48.4613      0.00000
     34      48.4613      0.00000
     35      50.1451      0.00000
     36      50.1451      0.00000
     37      50.1451      0.00000
     38      51.8316      0.00000
     39      51.8316      0.00000
     40      51.8316      0.00000
     41      52.3495      0.00000
     42      52.6068      0.00000
     43      52.6068      0.00000
     44      52.6068      0.00000
     45      53.1108      0.00000
     46      53.1108      0.00000
     47      53.1108      0.00000
     48      54.5332      0.00000
     49      54.5332      0.00000
     50      54.5332      0.00000
     51      57.7880      0.00000
     52      59.6062      0.00000
     53      59.6063      0.00000
     54      59.6063      0.00000
     55      59.6063      0.00000
     56      59.6063      0.00000
     57      59.6063      0.00000
     58      64.4502      0.00000
     59      66.5673      0.00000
     60      75.2922      0.00000
     61      75.2922      0.00000
     62      78.2778      0.00000
     63      78.2778      0.00000
     64      78.2778      0.00000
     65      81.1983      0.00000
     66      81.1983      0.00000
     67      81.5585      0.00000
     68      81.5585      0.00000
     69      81.5585      0.00000
     70      81.6468      0.00000
     71      81.6855      0.00000
     72      81.6855      0.00000
     73      81.6855      0.00000
     74      86.0687      0.00000
     75      86.0687      0.00000
     76      86.0688      0.00000
     77      92.4744      0.00000
     78      92.4744      0.00000
     79      92.4745      0.00000
     80      92.9127      0.00000
     81      92.9127      0.00000
     82      93.3696      0.00000
     83      93.3696      0.00000
     84      93.3696      0.00000
     85      93.8013      0.00000
     86      94.1956      0.00000
     87      94.1956      0.00000
     88      94.1956      0.00000
     89      96.4048      0.00000
     90      96.4048      0.00000
     91      96.6045      0.00000
     92      96.6046      0.00000
     93      96.6046      0.00000
     94     100.0260      0.00000
     95     100.3434      0.00000
     96     100.3434      0.00000
     97     100.3434      0.00000
     98     101.4537      0.00000
     99     101.4537      0.00000
    100     101.4537      0.00000
    101     101.6892      0.00000
    102     101.6892      0.00000
    103     101.6892      0.00000
    104     101.8061      0.00000
    105     101.8061      0.00000
    106     101.8061      0.00000
    107     104.1327      0.00000
    108     104.2324      0.00000
    109     104.2324      0.00000
    110     104.2324      0.00000
    111     104.3094      0.00000
    112     104.3094      0.00000
    113     107.9853      0.00000
    114     110.3152      0.00000
    115     110.3153      0.00000
    116     110.3153      0.00000
    117     112.8916      0.00000
    118     114.3434      0.00000
    119     114.3435      0.00000
    120     114.3435      0.00000
    121     114.3849      0.00000
    122     114.3849      0.00000
    123     119.0230      0.00000
    124     119.0230      0.00000
    125     119.0230      0.00000
    126     119.2289      0.00000
    127     119.2289      0.00000
    128     119.2289      0.00000

 k-point     2 :       0.1429    0.0000    0.0000
  band No.  band energies     occupation
      1      -6.5292      1.00000
      2       3.6891      1.00000
      3       5.2927      1.00000
      4       5.2927      1.00000
      5       8.3981      0.00000
      6       8.9715      0.00000
      7       8.9715      0.00000
      8      11.2034      0.00000
      9      13.2372      0.00000
     10      13.2372      0.00000
     11      15.2944      0.00000
     12      17.0221      0.00000
     13      19.1862      0.00000
     14      19.1862      0.00000
     15      23.4346      0.00000
     16      27.4427      0.00000
     17      27.4427      0.00000
     18      27.9477      0.00000
     19      30.9322      0.00000
     20      30.9322      0.00000
     21      33.5054      0.00000
     22      33.5054      0.00000
     23      34.6561      0.00000
     24      36.6453      0.00000
     25      39.2402      0.00000
     26      39.2402      0.00000
     27      39.2478      0.00000
     28      41.7590      0.00000
     29      41.7591      0.00000
     30      43.8410      0.00000
     31      43.8410      0.00000
     32      46.0722      0.00000
     33      46.0722      0.00000
     34      46.0799      0.00000
     35      49.2923      0.00000
     36      49.5676      0.00000
     37      49.5676      0.00000
     38      49.6724      0.00000
     39      51.4211      0.00000
     40      51.8937      0.00000
     41      51.8937      0.00000
     42      51.9068      0.00000
     43      53.1072      0.00000
     44      53.1072      0.00000
     45      53.5854      0.00000
     46      55.3564      0.00000
     47      55.7677      0.00000
     48      55.7677      0.00000
     49      57.3703      0.00000
     50      57.3703      0.00000
     51      58.6903      0.00000
     52      59.0839      0.00000
     53      60.1811      0.00000
     54      60.1811      0.00000
     55      62.8376      0.00000
     56      62.8377      0.00000
     57      63.6710      0.00000
     58      67.0715      0.00000
     59      69.0632      0.00000
     60      71.5318      0.00000
     61      71.5318      0.00000
     62      74.0487      0.00000
     63      76.2938      0.00000
     64      76.2938      0.00000
     65      77.9000      0.00000
     66      79.0372      0.00000
     67      79.0372      0.00000
     68      81.5400      0.00000
     69      81.5400      0.00000
     70      82.7791      0.00000
     71      83.0039      0.00000
     72      83.0039      0.00000
     73      85.6387      0.00000
     74      85.9072      0.00000
     75      87.3002      0.00000
     76      87.3002      0.00000
     77      88.3829      0.00000
     78      88.3829      0.00000
     79      89.5394      0.00000
     80      91.0720      0.00000
     81      91.0720      0.00000
     82      92.9209      0.00000
     83      93.2187      0.00000
     84      93.4030      0.00000
     85      93.4031      0.00000
     86      93.6648      0.00000
     87      94.3480      0.00000
     88      94.3480      0.00000
     89      94.9381      0.00000
     90      94.9381      0.00000
     91      94.9902      0.00000
     92      97.5295      0.00000
     93      98.3542      0.00000
     94      98.9199      0.00000
     95      98.9199      0.00000
     96      99.5550      0.00000
     97      99.5550      0.00000
     98     101.0927      0.00000
     99     101.1294      0.00000
    100     101.1294      0.00000
    101     102.6574      0.00000
    102     102.7318      0.00000
    103     102.7318      0.00000
    104     103.5867      0.00000
    105     104.7400      0.00000
    106     104.7400      0.00000
    107     105.3518      0.00000
    108     107.2024      0.00000
    109     107.3507      0.00000
    110     107.3507      0.00000
    111     107.6609      0.00000
    112     107.6609      0.00000
    113     109.1277      0.00000
    114     109.1277      0.00000
    115     110.9006      0.00000
    116     112.2844      0.00000
    117     112.6452      0.00000
    118     112.6569      0.00000
    119     112.6569      0.00000
    120     113.4794      0.00000
    121     113.4794      0.00000
    122     114.0821      0.00000
    123     115.9220      0.00000
    124     115.9221      0.00000
    125     117.1364      0.00000
    126     118.0232      0.00000
    127     118.5799      0.00000
    128     118.5799      0.00000

 k-point     3 :       0.2857    0.0000    0.0000
  band No.  band energies     occupation
      1      -5.7272      1.00000
      2       0.9563      1.00000
      3       4.7471      1.00000
      4       4.7471      1.00000
      5       7.8898      0.00000
      6       9.4544      0.00000
      7       9.4544      0.00000
      8      13.5690      0.00000
      9      13.5690      0.00000
     10      13.7215      0.00000
     11      15.2565      0.00000
     12      19.0823      0.00000
     13      21.6046      0.00000
     14      21.6046      0.00000
     15      23.9886      0.00000
     16      23.9886      0.00000
     17      24.2536      0.00000
     18      27.3991      0.00000
     19      31.1508      0.00000
     20      31.1508      0.00000
     21      33.8820      0.00000
     22      33.8820      0.00000
     23      33.9029      0.00000
     24      36.8839      0.00000
     25      37.3322      0.00000
     26      38.1041      0.00000
     27      38.1041      0.00000
     28      40.6118      0.00000
     29      40.6119      0.00000
     30      41.8137      0.00000
     31      41.8137      0.00000
     32      44.5409      0.00000
     33      45.8212      0.00000
     34      46.4382      0.00000
     35      46.7723      0.00000
     36      46.7723      0.00000
     37      48.9312      0.00000
     38      48.9313      0.00000
     39      50.7931      0.00000
     40      51.8550      0.00000
     41      51.8550      0.00000
     42      52.2080      0.00000
     43      53.0206      0.00000
     44      55.8466      0.00000
     45      55.8466      0.00000
     46      57.8284      0.00000
     47      57.8285      0.00000
     48      59.3716      0.00000
     49      60.2051      0.00000
     50      60.2051      0.00000
     51      61.2594      0.00000
     52      64.1435      0.00000
     53      66.1969      0.00000
     54      66.1969      0.00000
     55      66.3841      0.00000
     56      67.3274      0.00000
     57      67.3274      0.00000
     58      68.2799      0.00000
     59      68.2799      0.00000
     60      69.1300      0.00000
     61      69.6055      0.00000
     62      70.0557      0.00000
     63      70.0557      0.00000
     64      74.3461      0.00000
     65      74.3461      0.00000
     66      74.5656      0.00000
     67      76.3420      0.00000
     68      78.2224      0.00000
     69      78.2224      0.00000
     70      81.1284      0.00000
     71      83.2125      0.00000
     72      83.7688      0.00000
     73      84.1206      0.00000
     74      84.1206      0.00000
     75      84.9069      0.00000
     76      84.9070      0.00000
     77      87.6739      0.00000
     78      87.6833      0.00000
     79      87.6834      0.00000
     80      88.2619      0.00000
     81      89.5881      0.00000
     82      89.5881      0.00000
     83      91.5797      0.00000
     84      91.5797      0.00000
     85      92.8420      0.00000
     86      93.9064      0.00000
     87      94.2920      0.00000
     88      94.3030      0.00000
     89      94.3030      0.00000
     90      95.2730      0.00000
     91      95.2730      0.00000
     92      97.2645      0.00000
     93      97.8435      0.00000
     94      97.8435      0.00000
     95      98.9522      0.00000
     96      99.4727      0.00000
     97      99.4728      0.00000
     98     100.4702      0.00000
     99     103.3424      0.00000
    100     103.3424      0.00000
    101     103.7175      0.00000
    102     103.9075      0.00000
    103     103.9076      0.00000
    104     105.6721      0.00000
    105     105.6721      0.00000
    106     107.5822      0.00000
    107     107.6216      0.00000
    108     107.6216      0.00000
    109     108.9918      0.00000
    110     109.2893      0.00000
    111     109.2893      0.00000
    112     109.3284      0.00000
    113     109.9562      0.00000
    114     110.3879      0.00000
    115     111.6025      0.00000
    116     111.6025      0.00000
    117     111.8021      0.00000
    118     114.6023      0.00000
    119     114.6023      0.00000
    120     115.7919      0.00000
    121     116.9316      0.00000
    122     116.9316      0.00000
    123     117.6464      0.00000
    124     118.3262      0.00000
    125     118.3262      0.00000
    126     118.4563      0.00000
    127     118.4563      0.00000
    128     118.6081      0.00000

 k-point     4 :       0.4286    0.0000    0.0000
  band No.  band energies     occupation
      1      -4.6397      1.00000
      2      -1.1676      1.00000
      3       4.4402      1.00000
      4       4.4402      1.00000
      5       7.5672      0.00000
      6       9.2995      0.00000
      7       9.2995      0.00000
      8      14.0566      0.00000
      9      15.7042      0.00000
     10      15.7042      0.00000
     11      16.9768      0.00000
     12      18.9803      0.00000
     13      18.9804      0.00000
     14      20.3170      0.00000
     15      24.2861      0.00000
     16      26.6962      0.00000
     17      26.6962      0.00000
     18      28.8624      0.00000
     19      30.2920      0.00000
     20      30.2920      0.00000
     21      31.2668      0.00000
     22      33.7244      0.00000
     23      33.7244      0.00000
     24      34.8155      0.00000
     25      34.8155      0.00000
     26      36.3393      0.00000
     27      38.1029      0.00000
     28      39.8374      0.00000
     29      39.8374      0.00000
     30      40.6157      0.00000
     31      40.6157      0.00000
     32      41.4775      0.00000
     33      44.3186      0.00000
     34      44.3843      0.00000
     35      48.5596      0.00000
     36      48.5596      0.00000
     37      50.3033      0.00000
     38      50.4173      0.00000
     39      50.4174      0.00000
     40      51.9333      0.00000
     41      53.1886      0.00000
     42      53.1886      0.00000
     43      56.2451      0.00000
     44      57.0622      0.00000
     45      57.0622      0.00000
     46      60.2996      0.00000
     47      60.2996      0.00000
     48      61.3239      0.00000
     49      61.7350      0.00000
     50      62.9662      0.00000
     51      62.9662      0.00000
     52      64.6224      0.00000
     53      64.6225      0.00000
     54      65.7721      0.00000
     55      65.7722      0.00000
     56      67.5890      0.00000
     57      69.1113      0.00000
     58      69.1113      0.00000
     59      69.3868      0.00000
     60      70.2257      0.00000
     61      70.3879      0.00000
     62      72.5827      0.00000
     63      72.5827      0.00000
     64      72.7124      0.00000
     65      72.7124      0.00000
     66      75.9632      0.00000
     67      76.8565      0.00000
     68      76.8565      0.00000
     69      76.9258      0.00000
     70      76.9386      0.00000
     71      78.0616      0.00000
     72      78.7658      0.00000
     73      78.7658      0.00000
     74      81.8175      0.00000
     75      83.3104      0.00000
     76      83.3104      0.00000
     77      86.1547      0.00000
     78      86.1547      0.00000
     79      86.3193      0.00000
     80      87.0751      0.00000
     81      87.0752      0.00000
     82      87.6049      0.00000
     83      91.5574      0.00000
     84      91.5574      0.00000
     85      93.0536      0.00000
     86      94.2200      0.00000
     87      94.2201      0.00000
     88      94.4434      0.00000
     89      95.6709      0.00000
     90      96.0149      0.00000
     91      96.0149      0.00000
     92      97.7637      0.00000
     93      97.7637      0.00000
     94      98.9252      0.00000
     95     100.0695      0.00000
     96     100.7022      0.00000
     97     100.7022      0.00000
     98     100.7710      0.00000
     99     101.6076      0.00000
    100     102.1040      0.00000
    101     102.1040      0.00000
    102     104.2894      0.00000
    103     104.2894      0.00000
    104     105.3523      0.00000
    105     105.4209      0.00000
    106     106.4126      0.00000
    107     106.4126      0.00000
    108     108.8486      0.00000
    109     108.8486      0.00000
    110     109.5571      0.00000
    111     110.4799      0.00000
    112     111.4944      0.00000
    113     111.4944      0.00000
    114     113.5191      0.00000
    115     113.6003      0.00000
    116     113.6003      0.00000
    117     114.0753      0.00000
    118     114.0754      0.00000
    119     114.0852      0.00000
    120     116.3246      0.00000
    121     116.4238      0.00000
    122     117.1538      0.00000
    123     117.1587      0.00000
    124     118.1035      0.00000
    125     118.1117      0.00000
    126     118.6369      0.00000
    127     118.8197      0.00000
    128     120.4801      0.00000

 k-point     5 :       0.1429    0.1429    0.0000
  band No.  band energies     occupation
      1      -6.4350      1.00000
      2       4.0205      1.00000
      3       4.6504      1.00000
      4       4.6504      1.00000
      5       7.7551      0.00000
      6       9.9057      0.00000
      7       9.9057      0.00000
      8      10.5578      0.00000
      9      12.6043      0.00000
     10      14.2071      0.00000
     11      15.7271      0.00000
     12      18.3241      0.00000
     13      18.3241      0.00000
     14      18.8002      0.00000
     15      24.2620      0.00000
     16      26.9561      0.00000
     17      26.9561      0.00000
     18      28.1982      0.00000
     19      29.3450      0.00000
     20      30.5784      0.00000
     21      33.7947      0.00000
     22      34.1649      0.00000
     23      34.1649      0.00000
     24      39.0481      0.00000
     25      39.0481      0.00000
     26      39.6373      0.00000
     27      39.9509      0.00000
     28      40.1521      0.00000
     29      40.1521      0.00000
     30      42.2173      0.00000
     31      44.3984      0.00000
     32      45.6850      0.00000
     33      47.3107      0.00000
     34      47.7388      0.00000
     35      47.7388      0.00000
     36      48.2063      0.00000
     37      49.5522      0.00000
     38      49.7149      0.00000
     39      49.7150      0.00000
     40      51.6748      0.00000
     41      51.6748      0.00000
     42      52.6714      0.00000
     43      53.8763      0.00000
     44      54.6977      0.00000
     45      55.1498      0.00000
     46      55.1498      0.00000
     47      56.3015      0.00000
     48      56.3260      0.00000
     49      56.3260      0.00000
     50      57.0225      0.00000
     51      57.1017      0.00000
     52      59.2688      0.00000
     53      60.5958      0.00000
     54      60.5958      0.00000
     55      63.5128      0.00000
     56      65.9216      0.00000
     57      65.9216      0.00000
     58      66.9402      0.00000
     59      67.7584      0.00000
     60      68.5609      0.00000
     61      75.2250      0.00000
     62      75.2250      0.00000
     63      75.5381      0.00000
     64      76.3449      0.00000
     65      78.9068      0.00000
     66      79.2036      0.00000
     67      79.2995      0.00000
     68      79.2995      0.00000
     69      80.3669      0.00000
     70      80.3863      0.00000
     71      80.3863      0.00000
     72      81.6316      0.00000
     73      84.6197      0.00000
     74      87.2910      0.00000
     75      87.2911      0.00000
     76      88.4100      0.00000
     77      88.5351      0.00000
     78      89.1296      0.00000
     79      89.5890      0.00000
     80      90.1508      0.00000
     81      90.1508      0.00000
     82      91.1607      0.00000
     83      91.1607      0.00000
     84      92.9507      0.00000
     85      93.0249      0.00000
     86      94.6496      0.00000
     87      94.6496      0.00000
     88      95.2732      0.00000
     89      95.2732      0.00000
     90      95.2905      0.00000
     91      95.7180      0.00000
     92      96.1090      0.00000
     93      98.8716      0.00000
     94      98.8716      0.00000
     95      99.9145      0.00000
     96     100.2128      0.00000
     97     101.0237      0.00000
     98     101.0238      0.00000
     99     101.8178      0.00000
    100     102.2235      0.00000
    101     102.2953      0.00000
    102     102.8743      0.00000
    103     103.4047      0.00000
    104     103.4047      0.00000
    105     103.6370      0.00000
    106     104.9049      0.00000
    107     104.9049      0.00000
    108     105.8859      0.00000
    109     107.5289      0.00000
    110     107.5598      0.00000
    111     108.8889      0.00000
    112     108.8889      0.00000
    113     109.8134      0.00000
    114     110.9725      0.00000
    115     111.6673      0.00000
    116     112.0829      0.00000
    117     112.0829      0.00000
    118     112.1950      0.00000
    119     112.2709      0.00000
    120     112.6011      0.00000
    121     112.6011      0.00000
    122     114.1903      0.00000
    123     114.1904      0.00000
    124     115.6167      0.00000
    125     116.4528      0.00000
    126     118.2090      0.00000
    127     118.7622      0.00000
    128     120.0701      0.00000

 k-point     6 :       0.2857    0.1429    0.0000
  band No.  band energies     occupation
      1      -5.7997      1.00000
      2       1.7893      1.00000
      3       4.0661      1.00000
      4       4.0785      1.00000
      5       7.9746      0.00000
      6       9.9345      0.00000
      7      10.5690      0.00000
      8      10.7371      0.00000
      9      14.4538      0.00000
     10      14.6434      0.00000
     11      16.6081      0.00000
     12      18.5287      0.00000
     13      20.0426      0.00000
     14      21.5157      0.00000
     15      23.3809      0.00000
     16      24.1106      0.00000
     17      26.5059      0.00000
     18      28.0158      0.00000
     19      28.3871      0.00000
     20      30.0001      0.00000
     21      33.2851      0.00000
     22      34.5502      0.00000
     23      34.7054      0.00000
     24      37.0901      0.00000
     25      38.0697      0.00000
     26      38.3067      0.00000
     27      39.6357      0.00000
     28      39.8916      0.00000
     29      40.8780      0.00000
     30      41.5862      0.00000
     31      43.2433      0.00000
     32      43.6502      0.00000
     33      45.6283      0.00000
     34      45.9855      0.00000
     35      47.1093      0.00000
     36      47.9434      0.00000
     37      48.2741      0.00000
     38      49.6971      0.00000
     39      51.5775      0.00000
     40      51.6818      0.00000
     41      52.5297      0.00000
     42      52.5860      0.00000
     43      53.4042      0.00000
     44      54.0514      0.00000
     45      55.1374      0.00000
     46      56.0432      0.00000
     47      57.9540      0.00000
     48      58.2246      0.00000
     49      59.1174      0.00000
     50      59.4124      0.00000
     51      62.0739      0.00000
     52      63.2841      0.00000
     53      63.3416      0.00000
     54      64.8325      0.00000
     55      65.0977      0.00000
     56      66.6288      0.00000
     57      68.6556      0.00000
     58      69.1720      0.00000
     59      70.3577      0.00000
     60      70.5200      0.00000
     61      70.9281      0.00000
     62      72.3635      0.00000
     63      73.2787      0.00000
     64      73.6573      0.00000
     65      74.7349      0.00000
     66      76.0541      0.00000
     67      76.6453      0.00000
     68      77.0770      0.00000
     69      78.9587      0.00000
     70      79.9471      0.00000
     71      81.8343      0.00000
     72      82.9183      0.00000
     73      83.2096      0.00000
     74      84.0375      0.00000
     75      84.5564      0.00000
     76      85.7067      0.00000
     77      86.6552      0.00000
     78      86.9033      0.00000
     79      87.6968      0.00000
     80      88.0215      0.00000
     81      89.6513      0.00000
     82      89.6706      0.00000
     83      90.5486      0.00000
     84      91.6789      0.00000
     85      92.8670      0.00000
     86      93.1689      0.00000
     87      94.6891      0.00000
     88      95.2409      0.00000
     89      95.9882      0.00000
     90      96.2673      0.00000
     91      97.0920      0.00000
     92      97.5649      0.00000
     93      97.8952      0.00000
     94      97.9070      0.00000
     95      99.2476      0.00000
     96     100.3091      0.00000
     97     100.6709      0.00000
     98     101.5116      0.00000
     99     101.7093      0.00000
    100     102.6290      0.00000
    101     102.6316      0.00000
    102     103.8308      0.00000
    103     104.2790      0.00000
    104     105.0421      0.00000
    105     105.6347      0.00000
    106     105.6987      0.00000
    107     107.1868      0.00000
    108     107.5698      0.00000
    109     107.5700      0.00000
    110     107.8840      0.00000
    111     108.8319      0.00000
    112     109.8485      0.00000
    113     110.5105      0.00000
    114     111.3321      0.00000
    115     112.1050      0.00000
    116     112.2776      0.00000
    117     112.7061      0.00000
    118     112.9822      0.00000
    119     113.9167      0.00000
    120     114.5874      0.00000
    121     114.7723      0.00000
    122     116.3922      0.00000
    123     116.6519      0.00000
    124     116.7477      0.00000
    125     117.2510      0.00000
    126     118.0932      0.00000
    127     119.2779      0.00000
    128     119.6349      0.00000

 k-point     7 :       0.4286    0.1429    0.0000
  band No.  band energies     occupation
      1      -4.7441      1.00000
      2      -0.4995      1.00000
      3       3.3529      1.00000
      4       3.8766      1.00000
      5       8.0748      0.00000
      6       9.8285      0.00000
      7      10.5085      0.00000
      8      11.8726      0.00000
      9      15.7817      0.00000
     10      16.4906      0.00000
     11      17.3676      0.00000
     12      18.6500      0.00000
     13      19.5655      0.00000
     14      22.2951      0.00000
     15      24.2992      0.00000
     16      24.3027      0.00000
     17      26.0687      0.00000
     18      28.4308      0.00000
     19      29.1785      0.00000
     20      30.6001      0.00000
     21      31.4501      0.00000
     22      31.8314      0.00000
     23      34.6193      0.00000
     24      35.4400      0.00000
     25      36.0925      0.00000
     26      37.0257      0.00000
     27      37.7555      0.00000
     28      38.3828      0.00000
     29      40.2114      0.00000
     30      40.7986      0.00000
     31      41.9944      0.00000
     32      42.9073      0.00000
     33      44.9423      0.00000
     34      45.1124      0.00000
     35      46.8734      0.00000
     36      47.7555      0.00000
     37      50.0865      0.00000
     38      50.2573      0.00000
     39      52.2609      0.00000
     40      52.7153      0.00000
     41      53.6738      0.00000
     42      54.0253      0.00000
     43      55.0694      0.00000
     44      55.2811      0.00000
     45      56.6846      0.00000
     46      57.8493      0.00000
     47      58.8655      0.00000
     48      59.6429      0.00000
     49      61.1114      0.00000
     50      62.9367      0.00000
     51      64.4988      0.00000
     52      64.6374      0.00000
     53      64.7902      0.00000
     54      66.4578      0.00000
     55      67.5835      0.00000
     56      67.7591      0.00000
     57      68.6196      0.00000
     58      69.3917      0.00000
     59      69.9601      0.00000
     60      70.3759      0.00000
     61      71.4647      0.00000
     62      72.0955      0.00000
     63      72.1352      0.00000
     64      72.6910      0.00000
     65      73.5913      0.00000
     66      75.2742      0.00000
     67      75.8161      0.00000
     68      76.4960      0.00000
     69      76.7091      0.00000
     70      77.2229      0.00000
     71      79.8346      0.00000
     72      80.1738      0.00000
     73      80.9970      0.00000
     74      82.5620      0.00000
     75      83.2889      0.00000
     76      83.8075      0.00000
     77      85.2462      0.00000
     78      85.5092      0.00000
     79      86.8414      0.00000
     80      87.8684      0.00000
     81      87.9542      0.00000
     82      89.1153      0.00000
     83      90.0330      0.00000
     84      90.1478      0.00000
     85      90.7555      0.00000
     86      92.5288      0.00000
     87      93.1728      0.00000
     88      93.2595      0.00000
     89      94.6304      0.00000
     90      94.6879      0.00000
     91      96.2569      0.00000
     92      97.5695      0.00000
     93      98.4071      0.00000
     94      99.0457      0.00000
     95      99.7059      0.00000
     96     100.8559      0.00000
     97     100.9445      0.00000
     98     101.6995      0.00000
     99     102.4350      0.00000
    100     102.9179      0.00000
    101     103.0810      0.00000
    102     103.6635      0.00000
    103     104.3719      0.00000
    104     104.6100      0.00000
    105     105.5587      0.00000
    106     106.9130      0.00000
    107     107.6453      0.00000
    108     107.9782      0.00000
    109     108.5357      0.00000
    110     108.6775      0.00000
    111     109.8396      0.00000
    112     110.2877      0.00000
    113     111.6675      0.00000
    114     111.7352      0.00000
    115     112.1416      0.00000
    116     112.6890      0.00000
    117     113.8791      0.00000
    118     114.6737      0.00000
    119     114.9100      0.00000
    120     115.0435      0.00000
    121     115.7117      0.00000
    122     116.4608      0.00000
    123     117.7042      0.00000
    124     118.4909      0.00000
    125     118.8149      0.00000
    126     119.2015      0.00000
    127     119.8999      0.00000
    128     120.3827      0.00000

 k-point     8 :      -0.4286    0.1429    0.0000
  band No.  band energies     occupation
      1      -4.1606      1.00000
      2      -1.4037      1.00000
      3       2.9191      1.00000
      4       4.0817      1.00000
      5       8.1947      0.00000
      6       9.7294      0.00000
      7      10.0930      0.00000
      8      14.4107      0.00000
      9      14.9391      0.00000
     10      15.2547      0.00000
     11      17.3779      0.00000
     12      19.6011      0.00000
     13      20.1854      0.00000
     14      20.9140      0.00000
     15      24.8678      0.00000
     16      26.7892      0.00000
     17      27.3676      0.00000
     18      27.6479      0.00000
     19      28.6894      0.00000
     20      28.9535      0.00000
     21      31.8674      0.00000
     22      32.8101      0.00000
     23      33.3753      0.00000
     24      34.6395      0.00000
     25      34.8259      0.00000
     26      36.1131      0.00000
     27      37.1264      0.00000
     28      37.8864      0.00000
     29      40.2048      0.00000
     30      41.0480      0.00000
     31      41.3312      0.00000
     32      42.6882      0.00000
     33      44.7246      0.00000
     34      44.8056      0.00000
     35      46.5089      0.00000
     36      48.1205      0.00000
     37      49.1239      0.00000
     38      51.6809      0.00000
     39      52.1410      0.00000
     40      53.6987      0.00000
     41      54.8549      0.00000
     42      54.8592      0.00000
     43      56.4295      0.00000
     44      57.0226      0.00000
     45      57.2148      0.00000
     46      57.9419      0.00000
     47      58.7784      0.00000
     48      61.0599      0.00000
     49      62.4320      0.00000
     50      62.6105      0.00000
     51      63.1635      0.00000
     52      64.7772      0.00000
     53      65.5839      0.00000
     54      65.8877      0.00000
     55      65.9248      0.00000
     56      67.0409      0.00000
     57      67.8296      0.00000
     58      69.5661      0.00000
     59      69.5674      0.00000
     60      70.8217      0.00000
     61      71.5893      0.00000
     62      71.6282      0.00000
     63      72.4513      0.00000
     64      73.4166      0.00000
     65      75.3622      0.00000
     66      75.3796      0.00000
     67      76.4505      0.00000
     68      77.0409      0.00000
     69      77.8493      0.00000
     70      77.9723      0.00000
     71      79.2584      0.00000
     72      79.7918      0.00000
     73      80.8482      0.00000
     74      81.1139      0.00000
     75      81.4815      0.00000
     76      82.0732      0.00000
     77      83.6044      0.00000
     78      84.6902      0.00000
     79      85.7117      0.00000
     80      86.7519      0.00000
     81      87.6846      0.00000
     82      88.1090      0.00000
     83      89.1049      0.00000
     84      90.0619      0.00000
     85      91.7612      0.00000
     86      92.6896      0.00000
     87      92.7137      0.00000
     88      94.0020      0.00000
     89      94.3157      0.00000
     90      95.0294      0.00000
     91      96.0649      0.00000
     92      97.1563      0.00000
     93      98.5530      0.00000
     94      99.2374      0.00000
     95      99.3705      0.00000
     96     100.1580      0.00000
     97     100.9375      0.00000
     98     101.2126      0.00000
     99     101.4398      0.00000
    100     102.6745      0.00000
    101     103.7419      0.00000
    102     104.3050      0.00000
    103     104.7535      0.00000
    104     105.9514      0.00000
    105     106.1475      0.00000
    106     106.2450      0.00000
    107     107.2401      0.00000
    108     107.4528      0.00000
    109     109.2931      0.00000
    110     109.5845      0.00000
    111     110.7835      0.00000
    112     110.8902      0.00000
    113     111.3007      0.00000
    114     112.2906      0.00000
    115     112.7614      0.00000
    116     113.0495      0.00000
    117     113.3899      0.00000
    118     113.8373      0.00000
    119     114.2699      0.00000
    120     114.5235      0.00000
    121     115.5505      0.00000
    122     115.9580      0.00000
    123     116.2993      0.00000
    124     119.1387      0.00000
    125     119.5273      0.00000
    126     119.5599      0.00000
    127     120.9742      0.00000
    128     121.9638      0.00000

 k-point     9 :      -0.2857    0.1429    0.0000
  band No.  band energies     occupation
      1      -5.1297      1.00000
      2       0.2126      1.00000
      3       2.9208      1.00000
      4       4.6206      1.00000
      5       8.6221      0.00000
      6       9.8420      0.00000
      7       9.9221      0.00000
      8      12.8297      0.00000
      9      12.8363      0.00000
     10      16.1919      0.00000
     11      17.5780      0.00000
     12      18.6479      0.00000
     13      20.6626      0.00000
     14      22.5845      0.00000
     15      22.8609      0.00000
     16      24.3121      0.00000
     17      26.0308      0.00000
     18      28.7095      0.00000
     19      29.2229      0.00000
     20      30.1290      0.00000
     21      31.7674      0.00000
     22      33.1020      0.00000
     23      34.5419      0.00000
     24      35.8009      0.00000
     25      36.3158      0.00000
     26      37.3681      0.00000
     27      37.7068      0.00000
     28      39.5391      0.00000
     29      41.1250      0.00000
     30      41.5022      0.00000
     31      41.5666      0.00000
     32      43.9928      0.00000
     33      45.0166      0.00000
     34      45.6457      0.00000
     35      46.7227      0.00000
     36      47.1354      0.00000
     37      48.3401      0.00000
     38      49.6726      0.00000
     39      49.8407      0.00000
     40      51.9847      0.00000
     41      54.5602      0.00000
     42      54.7192      0.00000
     43      55.0249      0.00000
     44      55.8670      0.00000
     45      56.0294      0.00000
     46      57.4723      0.00000
     47      60.3541      0.00000
     48      60.4042      0.00000
     49      60.7656      0.00000
[...]
  503        fft3d_mpi                             0.009386                           20   3
  504          fftbrc_mpi                            0.008943                         20   4
  505            fftbas_plan_mpi                       0.008934                       20   5
  506              dfftw_execute                         0.000940                     60   6
  507              map_forward                           0.004575                     24   6
  508                map_gather                            0.000044                   16   7
  509                m_alltoallv_z                         0.004321                   16   7
  510                map_scatter                           0.000184                   16   7
  511              map_backward                          0.003161                     16   6
  512                map_gather                            0.000037                    8   7
  513                m_alltoallv_z                         0.003092                    8   7
  514                map_scatter                           0.000020                    8   7
  515        pothar                                0.000205                            2   3
  516          m_sumb_d                              0.000109                          2   4
  517        m_bcast_d                             0.002762                            4   3
  518      potlok_metagga                        0.035180                              2   2
  519        fft3d_mpi                             0.019067                           76   3
  520          fftbrc_mpi                            0.018232                         76   4
  521            fftbas_plan_mpi                       0.018200                       76   5
  522              dfftw_execute                         0.002784                    228   6
  523              map_forward                           0.009167                     96   6
  524                map_gather                            0.000113                   56   7
  525                m_alltoallv_z                         0.008507                   56   7
  526                map_scatter                           0.000461                   56   7
  527              map_backward                          0.005188                     56   6
  528                map_gather                            0.000118                   28   7
  529                m_alltoallv_z                         0.004964                   28   7
  530                map_scatter                           0.000073                   28   7
  531        m_sumb_d                              0.000198                            6   3
  532        m_bcast_d                             0.002388                            8   3
  533      set_dd_magatom                        0.000000                              1   2
  534      set_dd_paw                            0.405609                              1   2
  535        set_rsgf_all                          0.000000                            1   3
  536        m_sumb_d                              0.405591                            7   3
  537      augmentation_charge                   0.002065                              1   2
  538        fft3d_mpi                             0.001408                            2   3
  539          fftbrc_mpi                            0.001402                          2   4
  540            fftbas_plan_mpi                       0.001402                        2   5
  541              dfftw_execute                         0.000063                      6   6
  542              map_backward                          0.001289                      4   6
  543                map_gather                            0.000009                    2   7
  544                m_alltoallv_z                         0.001265                    2   7
  545                map_scatter                           0.000010                    2   7
  546      fftwav_mpi                            0.072751                            120   2
  547        fftwav                                0.072680                          120   3
  548          fft3d                                 0.065935                        120   4
  549      m_alltoall_d                          0.844155                             18   2
  550      densta                                0.710052                              1   2

 Flat profile
 ============

             routine name                   CPU           calls
 ---------------------------------------------------------------
 lapack                                 14.632737         152
 m_sumb_d                                9.903581        1412
 fft3d                                   9.524834       18256
 total_time                              7.543910           1
 m_alltoall_d                            6.306310        7868
 bg_pdssyex_zheevx                       3.200440         280
 eddav                                   2.071771           1
 kinhamil_tau                            1.985736        1912
 m_bcast_z                               1.452411        5274
 fftwav                                  1.335119       10608
 densta                                  1.128828           9
 set_kineden                             0.855333          27
 eccp_tau                                0.419383        1040
 vhamil                                  0.360835         872
 orth1                                   0.221204         416
 bg_ppotrf_trtri                         0.216732         320
 m_alltoallv_z                           0.188284         867
 w1_daxpy                                0.188044         880
 elmin                                   0.171225           1
 sphpro_fast                             0.118249           2
 fftext_mpi                              0.111923        7648
 lincom_slice                            0.084794         600
 orth1_nosubindex                        0.078218         600
 w1_dscal                                0.072509         920
 m_sum_g                                 0.069309        1200
 potlok_metagga                          0.067049          10
 spher                                   0.064640          20
 eddrmm                                  0.062577           7
 w1_copy                                 0.055384        1776
 m_bcast_d                               0.044883         371
 proj1                                   0.042913         952
 set_charge                              0.039971           9
 ggemm                                   0.035534         152
 phase                                   0.033606         541
 setdij_                                 0.033111          36
 gemm                                    0.032513        1184
 orth1_distri                            0.031219         600
 dfftw_execute                           0.031154        2145
 fft3d_mpi                               0.019370        8363
 crexp_mul_wave                          0.018878        1904
 work_mul_crexp                          0.013668        1184
 pw_charge                               0.012865         360
 eddiag                                  0.011935           7
 hamiltmu_tau                            0.011842         592
 i2                                      0.011728         440
 zhegv                                   0.010740         160
 augmentation_charge                     0.010145          10
 fftbas_plan_mpi                         0.009594         715
 recon_slice                             0.009210         600
 i3                                      0.007882         440
 soft_charge                             0.007689           9
 apply_precond                           0.007326         712
 map_gather                              0.007018         867
 potxc_metagga                           0.006390           1
 newband                                 0.006120         912
 setup_precond                           0.005685         320
 inisym                                  0.005368           1
 redis_pw                                0.005224        1976
 map_scatter                             0.004987         867
 fftwav_mpi                              0.004951       10608
 fornl                                   0.004721           1
 redis_proj                              0.004450        2408
 orthch                                  0.004139           8
 cnorma                                  0.003032         720
 w1_gemv                                 0.003005         640
 vnlac0                                  0.002820         592
 lincom_distri                           0.002725         600
 overl1                                  0.002316         912
 force_and_stress                        0.002085           1
 brmix                                   0.002047           8
 w1_dot                                  0.001982         280
 potlok                                  0.001958          10
 overl                                   0.001909         864
 w1_projall                              0.001842         552
 w1_gaxpy                                0.001816         320
 broyd                                   0.001508           8
 eccp_nl                                 0.001334         720
 stretau                                 0.001109           1
 distri_slice                            0.001013         600
 strkin                                  0.000979           1
 i1                                      0.000906         440
 map_forward                             0.000774         832
 hamilt_local_tau                        0.000682         280
 map_backward                            0.000586         598
 strenl                                  0.000451           1
 truncate_high_frequency_w1              0.000395         912
 set_dd_paw                              0.000395          10
 fewald                                  0.000358           1
 brgrid                                  0.000330           1
 fftbrc_mpi                              0.000277         715
 pothar                                  0.000258          11
 forhar                                  0.000257           2
 fft_gq                                  0.000237           9
 depsum                                  0.000221           9
 bg_change_diagonale                     0.000218         280
 choleski                                0.000206         320
 setg0                                   0.000201          12
 chggra                                  0.000195           1
 fordep                                  0.000149           1
 brpre                                   0.000134          32
 rsp                                     0.000125           1
 brget                                   0.000115         206
 stufak                                  0.000088           1
 strelo                                  0.000076           1
 brsav                                   0.000057          69
 shift_bands_between_low_high            0.000056         280
 strehar                                 0.000054           1
 proj                                    0.000050          20
 forloc                                  0.000041           1
 fortau                                  0.000038           1
 crpa_reader                             0.000024           1
 proall                                  0.000019           1
 posmap                                  0.000016           2
 rcp                                     0.000009           1
 FERMAT_RAZOR                            0.000007           1
 set_rsgf_all                            0.000006          10
 set_dd_magatom                          0.000003          10
 vectorpot                               0.000002           9
 redis_pw_over_bands                     0.000000           1
 rotate_active_occupied_orbital          0.000000           1
 ---------------------------------------------------------------
  summed up times     63.07969212532043

 Accumulative profile
 ====================

             routine name                   CPU           calls
 ---------------------------------------------------------------
 total_time                             63.079692           1
 elmin                                  49.716441           1
 eddav                                  21.396379           1
 eddrmm                                 14.641140           7
 lapack                                 14.632737         152
 kinhamil_tau                           10.123172        1912
 m_sumb_d                                9.903581        1412
 fft3d                                   9.524834       18256
 eddiag                                  6.879225           7
 fftwav_mpi                              6.645020       10608
 fftwav                                  6.640069       10608
 m_alltoall_d                            6.306310        7868
 eccp_tau                                5.905553        1040
 fft3d_mpi                               4.481928        8363
 i3                                      4.348973         440
 fftext_mpi                              4.336443        7648
 set_dd_paw                              3.954124          10
 hamiltmu_tau                            3.456296         592
 bg_pdssyex_zheevx                       3.200440         280
 set_kineden                             3.103956          27
 force_and_stress                        2.136050           1
 newband                                 2.100869         912
 m_sum_g                                 1.981343        1200
 hamilt_local_tau                        1.604856         280
 stretau                                 1.578701           1
 m_bcast_z                               1.452411        5274
 orthch                                  1.428186           8
 orth1_distri                            1.179360         600
 densta                                  1.128828           9
 lincom_distri                           1.009162         600
 redis_proj                              0.719141        2408
 redis_pw                                0.617271        1976
 set_charge                              0.392618           9
 i2                                      0.382695         440
 vhamil                                  0.360835         872
 soft_charge                             0.284263           9
 fftbrc_mpi                              0.242673         715
 fftbas_plan_mpi                         0.242397         715
 orth1                                   0.221204         416
 choleski                                0.216938         320
 bg_ppotrf_trtri                         0.216732         320
 m_alltoallv_z                           0.188284         867
 w1_daxpy                                0.188044         880
 potlok_metagga                          0.176427          10
 map_forward                             0.133827         832
 sphpro_fast                             0.127174           2
 lincom_slice                            0.084794         600
 strenl                                  0.080724           1
 orth1_nosubindex                        0.078218         600
 w1_dscal                                0.072509         920
 map_backward                            0.067821         598
 spher                                   0.064640          20
 proj1                                   0.061792         952
 w1_projall                              0.056680         552
 w1_copy                                 0.055384        1776
 vnlac0                                  0.049001         592
 potlok                                  0.047405          10
 m_bcast_d                               0.044883         371
 setdij_                                 0.038023          36
 ggemm                                   0.035534         152
 phase                                   0.033606         541
 gemm                                    0.032513        1184
 dfftw_execute                           0.031154        2145
 crexp_mul_wave                          0.018878        1904
 augmentation_charge                     0.018720          10
 work_mul_crexp                          0.013668        1184
 pw_charge                               0.012865         360
 potxc_metagga                           0.012573           1
 zhegv                                   0.010740         160
 recon_slice                             0.009210         600
 fft_gq                                  0.007792           9
 apply_precond                           0.007326         712
 map_gather                              0.007018         867
 fordep                                  0.006060           1
 i1                                      0.005970         440
 fornl                                   0.005963           1
 setup_precond                           0.005685         320
 brmix                                   0.005396           8
 inisym                                  0.005384           1
 map_scatter                             0.004987         867
 cnorma                                  0.004366         720
 w1_gemv                                 0.003530         640
 depsum                                  0.002584           9
 broyd                                   0.002395           8
 overl1                                  0.002316         912
 proall                                  0.002092           1
 w1_dot                                  0.001982         280
 overl                                   0.001909         864
 w1_gaxpy                                0.001816         320
 eccp_nl                                 0.001334         720
 proj                                    0.001074          20
 strkin                                  0.001036           1
 distri_slice                            0.001013         600
 chggra                                  0.000899           1
 pothar                                  0.000746          11
 fewald                                  0.000610           1
 truncate_high_frequency_w1              0.000395         912
 forhar                                  0.000339           2
 brgrid                                  0.000330           1
 strelo                                  0.000297           1
 bg_change_diagonale                     0.000218         280
 setg0                                   0.000201          12
 forloc                                  0.000175           1
 brpre                                   0.000134          32
 rsp                                     0.000125           1
 brget                                   0.000115         206
 stufak                                  0.000088           1
 strehar                                 0.000063           1
 brsav                                   0.000057          69
 shift_bands_between_low_high            0.000056         280
 fortau                                  0.000046           1
 crpa_reader                             0.000024           1
 posmap                                  0.000016           2
 rcp                                     0.000009           1
 FERMAT_RAZOR                            0.000007           1
 set_rsgf_all                            0.000006          10
 set_dd_magatom                          0.000003          10
 vectorpot                               0.000002           9
 redis_pw_over_bands                     0.000000           1
 rotate_active_occupied_orbital          0.000000           1
 ---------------------------------------------------------------

Profiling took   0.026992  0.017065  0.005333  0.005222 seconds
Profiling took   0.019883 seconds
