<?xml version="1.0" encoding="ISO-8859-1"?>
<modeling>
 <generator>
  <i name="program" type="string">vasp </i>
  <i name="version" type="string">6.3.2  </i>
  <i name="subversion" type="string">27Jun22 (build Jun 30 2023 15:13:53) complex                          parallel </i>
  <i name="platform" type="string">LinuxNV_CrayMPICH </i>
  <i name="date" type="string">2023 07 25 </i>
  <i name="time" type="string">18:02:47 </i>
 </generator>
 <incar>
  <i type="string" name="PREC">Accurate</i>
  <i type="string" name="ALGO">Fast</i>
  <i type="int" name="ISPIN">     2</i>
  <i type="int" name="NELM">   200</i>
  <i name="EDIFF">      0.00001000</i>
  <i type="int" name="NSW">     0</i>
  <i name="ENCUT">    680.00000000</i>
  <i name="ENAUG">   1360.00000000</i>
  <v name="MAGMOM">      0.00000000      0.00000000</v>
  <i type="logical" name="LREAL"> F  </i>
  <i type="int" name="ISMEAR">    -5</i>
  <i name="SIGMA">      0.05000000</i>
  <i name="KSPACING">      0.29539341</i>
  <i type="logical" name="LWAVE"> F  </i>
  <i type="logical" name="LCHARG"> T  </i>
  <i type="logical" name="LVTOT"> T  </i>
  <i type="int" name="LORBIT">    11</i>
  <i type="logical" name="LELF"> T  </i>
  <i type="logical" name="LASPH"> T  </i>
  <i type="logical" name="LAECHG"> T  </i>
  <i type="string" name="GGA">Ps</i>
  <i type="string" name="METAGGA">R2scan</i>
  <i type="logical" name="LMIXTAU"> T  </i>
 </incar>
 <primitive_cell>
  <structure name="primitive_cell" >
   <crystal>
    <varray name="basis" >
     <v>       3.33357300       0.00000000       1.92463900 </v>
     <v>       1.11119100       3.14292400       1.92463900 </v>
     <v>       0.00000000       0.00000000       3.84927800 </v>
    </varray>
    <i name="volume">     40.32952685 </i>
    <varray name="rec_basis" >
     <v>       0.29997843      -0.10605835       0.00000000 </v>
     <v>       0.00000000       0.31817505       0.00000000 </v>
     <v>      -0.14998922      -0.10605835       0.25978898 </v>
    </varray>
   </crystal>
   <varray name="positions" >
    <v>       0.87500000       0.87500000       0.87500000 </v>
    <v>       0.12500000       0.12500000       0.12500000 </v>
   </varray>
  </structure>
  <varray name="primitive_index" >
   <v type="int" >        1 </v>
   <v type="int" >        2 </v>
  </varray>
 </primitive_cell>
 <kpoints>
  <generation param="Gamma">
   <v type="int" name="divisions">       7        7        7 </v>
   <v name="usershift">      0.00000000       0.00000000       0.00000000 </v>
   <v name="genvec1">      0.14285714       0.00000000       0.00000000 </v>
   <v name="genvec2">      0.00000000       0.14285714       0.00000000 </v>
   <v name="genvec3">      0.00000000       0.00000000       0.14285714 </v>
   <v name="shift">      0.00000000       0.00000000       0.00000000 </v>
  </generation>
  <varray name="kpointlist" >
   <v>       0.00000000       0.00000000       0.00000000 </v>
   <v>       0.14285714       0.00000000       0.00000000 </v>
   <v>       0.28571429       0.00000000       0.00000000 </v>
   <v>       0.42857143       0.00000000       0.00000000 </v>
   <v>       0.14285714       0.14285714       0.00000000 </v>
   <v>       0.28571429       0.14285714       0.00000000 </v>
   <v>       0.42857143       0.14285714       0.00000000 </v>
   <v>      -0.42857143       0.14285714       0.00000000 </v>
   <v>      -0.28571429       0.14285714       0.00000000 </v>
   <v>      -0.14285714       0.14285714       0.00000000 </v>
   <v>       0.28571429       0.28571429       0.00000000 </v>
   <v>       0.42857143       0.28571429       0.00000000 </v>
   <v>      -0.42857143       0.28571429       0.00000000 </v>
   <v>      -0.28571429       0.28571429       0.00000000 </v>
   <v>       0.42857143       0.42857143       0.00000000 </v>
   <v>      -0.42857143       0.42857143       0.00000000 </v>
   <v>       0.42857143       0.28571429       0.14285714 </v>
   <v>      -0.42857143       0.28571429       0.14285714 </v>
   <v>      -0.42857143       0.42857143       0.14285714 </v>
   <v>      -0.28571429       0.42857143       0.14285714 </v>
  </varray>
  <varray name="weights" >
   <v>       0.00291545 </v>
   <v>       0.02332362 </v>
   <v>       0.02332362 </v>
   <v>       0.02332362 </v>
   <v>       0.01749271 </v>
   <v>       0.06997085 </v>
   <v>       0.06997085 </v>
   <v>       0.06997085 </v>
   <v>       0.06997085 </v>
   <v>       0.03498542 </v>
   <v>       0.01749271 </v>
   <v>       0.06997085 </v>
   <v>       0.06997085 </v>
   <v>       0.03498542 </v>
   <v>       0.01749271 </v>
   <v>       0.03498542 </v>
   <v>       0.06997085 </v>
   <v>       0.13994169 </v>
   <v>       0.06997085 </v>
   <v>       0.06997085 </v>
  </varray>
  <varray name="tetrahedronlist"  type="int" >
   <v type="int" >       48        2        3        6       10 </v>
   <v type="int" >       48        6        9       10       17 </v>
   <v type="int" >       24        9        9       10       17 </v>
   <v type="int" >       48        3        6        9       10 </v>
   <v type="int" >       48        9       14       17       18 </v>
   <v type="int" >       48        8        9       14       18 </v>
   <v type="int" >       24        9        9       14       17 </v>
   <v type="int" >       48        8       13       18       18 </v>
   <v type="int" >       48        7        8       13       18 </v>
   <v type="int" >       48        8       13       14       18 </v>
   <v type="int" >       48        7       12       17       18 </v>
   <v type="int" >       48        6        7       12       17 </v>
   <v type="int" >       48        7       12       13       18 </v>
   <v type="int" >       24        6        6       11       17 </v>
   <v type="int" >       24        5        6        6       11 </v>
   <v type="int" >       48        6       11       12       17 </v>
   <v type="int" >       24        5        6        6       10 </v>
   <v type="int" >       48        2        5        6       10 </v>
   <v type="int" >       48        6        7        9       17 </v>
   <v type="int" >       48        3        6        7        9 </v>
   <v type="int" >       48       12       17       18       19 </v>
   <v type="int" >       24       17       18       18       19 </v>
   <v type="int" >       24       14       17       18       18 </v>
   <v type="int" >       48        7        9       17       18 </v>
   <v type="int" >       48       18       19       20       20 </v>
   <v type="int" >       24       18       18       20       20 </v>
   <v type="int" >       48       13       18       18       20 </v>
   <v type="int" >       24       18       18       19       20 </v>
   <v type="int" >       24       14       18       18       20 </v>
   <v type="int" >       48       13       14       18       20 </v>
   <v type="int" >       48       13       18       19       20 </v>
   <v type="int" >       48       12       13       18       19 </v>
   <v type="int" >       24       12       12       17       19 </v>
   <v type="int" >       24       11       12       12       17 </v>
   <v type="int" >       24        6        6       10       17 </v>
   <v type="int" >       48       12       13       16       19 </v>
   <v type="int" >       24       16       19       19       20 </v>
   <v type="int" >       12       19       19       20       20 </v>
   <v type="int" >       24       19       20       20       20 </v>
   <v type="int" >       48       13       16       19       20 </v>
   <v type="int" >        6       20       20       20       20 </v>
   <v type="int" >       48        7        8        8       18 </v>
   <v type="int" >       48        7        8        9       18 </v>
   <v type="int" >       24       13       13       16       20 </v>
   <v type="int" >       24        8        8       18       18 </v>
   <v type="int" >       24        2        2        5       10 </v>
   <v type="int" >       48        3        4        7        9 </v>
   <v type="int" >       48        4        7        8        9 </v>
   <v type="int" >       24       13       13       14       20 </v>
   <v type="int" >       24       12       12       15       19 </v>
   <v type="int" >       24       11       12       12       15 </v>
   <v type="int" >       48       12       15       16       19 </v>
   <v type="int" >       48        4        7        8        8 </v>
   <v type="int" >       12       16       16       19       19 </v>
   <v type="int" >       24       15       16       16       19 </v>
   <v type="int" >       24        4        4        8        8 </v>
   <v type="int" >       12       15       15       16       16 </v>
   <v type="int" >       24        1        2        2        5 </v>
  </varray>
  <i name="volumeweight">      0.00048591 </i>
 </kpoints>
 <parameters>
  <separator name="general" >
   <i type="string" name="SYSTEM">unknown system</i>
   <i type="logical" name="LCOMPAT"> F  </i>
  </separator>
  <separator name="electronic" >
   <i type="string" name="PREC">accura</i>
   <i name="ENMAX">    680.00000000</i>
   <i name="ENAUG">   1360.00000000</i>
   <i name="EDIFF">      0.00001000</i>
   <i type="int" name="IALGO">    68</i>
   <i type="int" name="IWAVPR">    10</i>
   <i type="int" name="NBANDS">   128</i>
   <i type="int" name="NBANDSLOW">    -1</i>
   <i type="int" name="NBANDSHIGH">    -1</i>
   <i name="NELECT">      8.00000000</i>
   <i type="int" name="TURBO">     0</i>
   <i type="int" name="IRESTART">     0</i>
   <i type="int" name="NREBOOT">     0</i>
   <i type="int" name="NMIN">     0</i>
   <i name="EREF">      0.00000000</i>
   <separator name="electronic smearing" >
    <i type="int" name="ISMEAR">    -5</i>
    <i name="SIGMA">      0.05000000</i>
    <i name="KSPACING">      0.29539341</i>
    <i type="logical" name="KGAMMA"> T  </i>
    <i type="logical" name="KBLOWUP"> T  </i>
   </separator>
   <separator name="electronic projectors" >
    <i type="logical" name="LREAL"> F  </i>
    <v name="ROPT">      0.00000000</v>
    <i type="int" name="LMAXPAW">  -100</i>
    <i type="int" name="LMAXMIX">     2</i>
    <i type="logical" name="NLSPLINE"> F  </i>
   </separator>
   <separator name="electronic startup" >
    <i type="int" name="ISTART">     1</i>
    <i type="int" name="ICHARG">     0</i>
    <i type="int" name="INIWAV">     1</i>
   </separator>
   <separator name="electronic spin" >
    <i type="int" name="ISPIN">     2</i>
    <i type="logical" name="LNONCOLLINEAR"> F  </i>
    <v name="MAGMOM">      0.00000000      0.00000000</v>
    <i name="NUPDOWN">     -1.00000000</i>
    <i type="logical" name="LSORBIT"> F  </i>
    <v name="SAXIS">      0.00000000      0.00000000      1.00000000</v>
    <i type="logical" name="LSPIRAL"> F  </i>
    <v name="QSPIRAL">      0.00000000      0.00000000      0.00000000</v>
    <i type="logical" name="LZEROZ"> F  </i>
   </separator>
   <separator name="electronic exchange-correlation" >
    <i type="logical" name="LASPH"> T  </i>
    <i type="logical" name="LMETAGGA"> F  </i>
   </separator>
   <separator name="electronic convergence" >
    <i type="int" name="NELM">   200</i>
    <i type="int" name="NELMDL">     0</i>
    <i type="int" name="NELMIN">     2</i>
    <i name="ENINI">    680.00000000</i>
    <separator name="electronic convergence detail" >
     <i type="logical" name="LDIAG"> T  </i>
     <i type="logical" name="LSUBROT"> F  </i>
     <i name="WEIMIN">      0.00000000</i>
     <i name="EBREAK">      0.00000002</i>
     <i name="DEPER">      0.30000000</i>
     <i type="int" name="NRMM">     4</i>
     <i name="TIME">      0.40000000</i>
    </separator>
   </separator>
   <separator name="electronic mixer" >
    <i name="AMIX">      0.40000000</i>
    <i name="BMIX">      1.00000000</i>
    <i name="AMIN">      0.10000000</i>
    <i name="AMIX_MAG">      1.60000000</i>
    <i name="BMIX_MAG">      1.00000000</i>
    <separator name="electronic mixer details" >
     <i type="int" name="IMIX">     4</i>
     <i type="logical" name="MIXFIRST"> F  </i>
     <i type="int" name="MAXMIX">   -45</i>
     <i name="WC">    100.00000000</i>
     <i type="int" name="INIMIX">     1</i>
     <i type="int" name="MIXPRE">     1</i>
     <i type="int" name="MREMOVE">     5</i>
    </separator>
   </separator>
   <separator name="electronic dipolcorrection" >
    <i type="logical" name="LDIPOL"> F  </i>
    <i type="logical" name="LMONO"> F  </i>
    <i type="int" name="IDIPOL">     0</i>
    <i name="EPSILON">      1.00000000</i>
    <v name="DIPOL">   -100.00000000   -100.00000000   -100.00000000</v>
    <i name="EFIELD">      0.00000000</i>
   </separator>
  </separator>
  <separator name="grids" >
   <i type="int" name="NGX">    36</i>
   <i type="int" name="NGY">    36</i>
   <i type="int" name="NGZ">    36</i>
   <i type="int" name="NGXF">    72</i>
   <i type="int" name="NGYF">    72</i>
   <i type="int" name="NGZF">    72</i>
   <i type="logical" name="ADDGRID"> F  </i>
  </separator>
  <separator name="ionic" >
   <i type="int" name="NSW">     0</i>
   <i type="int" name="IBRION">    -1</i>
   <i type="int" name="MDALGO">     0</i>
   <i type="int" name="ISIF">     2</i>
   <i name="PSTRESS">      0.00000000</i>
   <i name="EDIFFG">      0.00010000</i>
   <i type="int" name="NFREE">     0</i>
   <i name="POTIM">      0.50000000</i>
   <i name="SMASS">     -3.00000000</i>
   <i name="SCALEE">      1.00000000</i>
  </separator>
  <separator name="ionic md" >
   <i name="TEBEG">      0.00010000</i>
   <i name="TEEND">      0.00010000</i>
   <i type="int" name="NBLOCK">     1</i>
   <i type="int" name="KBLOCK">     1</i>
   <i type="int" name="NPACO">   256</i>
   <i name="APACO">     10.00000000</i>
  </separator>
  <separator name="symmetry" >
   <i type="int" name="ISYM">     2</i>
   <i name="SYMPREC">      0.00001000</i>
  </separator>
  <separator name="dos" >
   <i type="int" name="LORBIT">    11</i>
   <v name="RWIGS">     -1.00000000</v>
   <i type="int" name="NEDOS">   301</i>
   <i name="EMIN">     10.00000000</i>
   <i name="EMAX">    -10.00000000</i>
   <i name="EFERMI">      0.00000000</i>
  </separator>
  <separator name="writing" >
   <i type="int" name="NWRITE">     2</i>
   <i type="logical" name="LWAVE"> F  </i>
   <i type="logical" name="LDOWNSAMPLE"> F  </i>
   <i type="logical" name="LCHARG"> T  </i>
   <i type="logical" name="LPARD"> F  </i>
   <i type="logical" name="LVTOT"> T  </i>
   <i type="logical" name="LVHAR"> F  </i>
   <i type="logical" name="LELF"> T  </i>
   <i type="logical" name="LOPTICS"> F  </i>
   <v name="STM">      0.00000000      0.00000000      0.00000000      0.00000000      0.00000000      0.00000000      0.00000000</v>
  </separator>
  <separator name="performance" >
   <i type="int" name="NPAR">   128</i>
   <i type="int" name="NSIM">     4</i>
   <i type="int" name="NBLK">    -1</i>
   <i type="logical" name="LPLANE"> T  </i>
   <i type="logical" name="LSCALAPACK"> T  </i>
   <i type="logical" name="LSCAAWARE"> T  </i>
   <i type="logical" name="LSCALU"> F  </i>
   <i type="logical" name="LASYNC"> F  </i>
   <i type="logical" name="LORBITALREAL"> F  </i>
  </separator>
  <separator name="miscellaneous" >
   <i type="int" name="IDIOT">     3</i>
   <i type="int" name="PHON_NSTRUCT">    -1</i>
   <i type="logical" name="LMUSIC"> F  </i>
   <v name="POMASS">     28.08500000</v>
   <v name="DARWINR">      0.00000000</v>
   <v name="DARWINV">      1.00000000</v>
   <i type="logical" name="LCORR"> T  </i>
  </separator>
  <i type="logical" name="GGA_COMPAT"> T  </i>
  <i type="logical" name="LBERRY"> F  </i>
  <i type="int" name="ICORELEVEL">     0</i>
  <i type="logical" name="LDAU"> F  </i>
  <i type="int" name="I_CONSTRAINED_M">     0</i>
  <separator name="electronic exchange-correlation" >
   <i type="string" name="GGA">PS</i>
   <i type="int" name="VOSKOWN">     0</i>
   <i type="logical" name="LHFCALC"> F  </i>
   <i type="string" name="PRECFOCK"></i>
   <i type="logical" name="LSYMGRAD"> F  </i>
   <i type="logical" name="LHFONE"> F  </i>
   <i type="logical" name="LRHFCALC"> F  </i>
   <i type="logical" name="LTHOMAS"> F  </i>
   <i type="logical" name="LMODELHF"> F  </i>
   <i type="logical" name="LFOCKACE"> F  </i>
   <i name="ENCUT4O">     -1.00000000</i>
   <i type="int" name="EXXOEP">     0</i>
   <i type="int" name="FOURORBIT">     0</i>
   <i name="AEXX">      0.00000000</i>
   <i name="HFALPHA">      0.00000000</i>
   <i name="MCALPHA">      0.00000000</i>
   <i name="ALDAX">      1.00000000</i>
   <i name="AGGAX">      1.00000000</i>
   <i name="ALDAC">      1.00000000</i>
   <i name="AGGAC">      1.00000000</i>
   <i type="int" name="NKREDX">     1</i>
   <i type="int" name="NKREDY">     1</i>
   <i type="int" name="NKREDZ">     1</i>
   <i type="logical" name="SHIFTRED"> F  </i>
   <i type="logical" name="ODDONLY"> F  </i>
   <i type="logical" name="EVENONLY"> F  </i>
   <i type="int" name="LMAXFOCK">     0</i>
   <i type="int" name="NMAXFOCKAE">     0</i>
   <i type="logical" name="LFOCKAEDFT"> F  </i>
   <i name="HFSCREEN">      0.00000000</i>
   <i name="HFSCREENC">      0.00000000</i>
   <i type="int" name="NBANDSGWLOW">     0</i>
  </separator>
  <separator name="vdW DFT" >
   <i type="logical" name="LUSE_VDW"> F  </i>
   <i name="Zab_VDW">     -0.84910000</i>
   <i name="PARAM1">      0.12340000</i>
   <i name="PARAM2">      1.00000000</i>
   <i name="PARAM3">      0.00000000</i>
  </separator>
  <separator name="model GW" >
   <i type="int" name="MODEL_GW">     0</i>
   <i name="MODEL_EPS0">     12.09885805</i>
   <i name="MODEL_ALPHA">      1.00000000</i>
  </separator>
  <separator name="linear response parameters" >
   <i type="logical" name="LEPSILON"> F  </i>
   <i type="logical" name="LRPA"> F  </i>
   <i type="logical" name="LNABLA"> F  </i>
   <i type="logical" name="LVEL"> F  </i>
   <i name="CSHIFT">      0.10000000</i>
   <i name="OMEGAMAX">     -1.00000000</i>
   <i name="DEG_THRESHOLD">      0.00200000</i>
   <i name="RTIME">     -0.10000000</i>
   <i name="WPLASMAI">      0.00000000</i>
   <v name="DFIELD">      0.00000000      0.00000000      0.00000000</v>
   <v name="WPLASMA">      0.00000000      0.00000000      0.00000000      0.00000000      0.00000000      0.00000000      0.00000000      0.00000000      0.00000000</v>
  </separator>
  <separator name="orbital magnetization" >
   <i type="logical" name="NUCIND"> F  </i>
   <v name="MAGPOS">      0.00000000      0.00000000      0.00000000</v>
   <i type="logical" name="LNICSALL"> T  </i>
   <i type="logical" name="ORBITALMAG"> F  </i>
   <i type="logical" name="LMAGBLOCH"> F  </i>
   <i type="logical" name="LCHIMAG"> F  </i>
   <i type="logical" name="LGAUGE"> T  </i>
   <i type="int" name="MAGATOM">     0</i>
   <v name="MAGDIPOL">      0.00000000      0.00000000      0.00000000</v>
   <v name="AVECCONST">      0.00000000      0.00000000      0.00000000</v>
  </separator>
  <separator name="response functions" >
   <i type="logical" name="LFINITE_TEMPERATURE"> F  </i>
   <i type="logical" name="LADDER"> F  </i>
   <i type="logical" name="LRPAFORCE"> F  </i>
   <i type="logical" name="LFXC"> F  </i>
   <i type="logical" name="LHARTREE"> T  </i>
   <i type="int" name="IBSE">     0</i>
   <v type="int" name="KPOINT">    -1     0     0     0</v>
   <i type="logical" name="LTCTC"> F  </i>
   <i type="logical" name="LTCTE"> F  </i>
   <i type="logical" name="LTETE"> F  </i>
   <i type="logical" name="LTRIPLET"> F  </i>
   <i type="logical" name="LFXCEPS"> F  </i>
   <i type="logical" name="LFXHEG"> F  </i>
   <i type="int" name="NATURALO">     2</i>
   <i type="logical" name="LHOLEGF"> F  </i>
   <i type="logical" name="L2ORDER"> F  </i>
   <i type="logical" name="LDMP1"> F  </i>
   <i type="logical" name="LMP2LT"> F  </i>
   <i type="logical" name="LSMP2LT"> F  </i>
   <i type="logical" name="LGWLF"> F  </i>
   <i name="ENCUTGW">     -2.00000000</i>
   <i name="ENCUTGWSOFT">     -2.00000000</i>
   <i name="ENCUTLF">     -1.00000000</i>
   <i type="logical" name="LESF_SPLINES"> F  </i>
   <i type="int" name="LMAXMP2">    -1</i>
   <i name="SCISSOR">      0.00000000</i>
   <i type="int" name="NOMEGA">     0</i>
   <i type="int" name="NOMEGAR">     0</i>
   <i type="int" name="NBANDSGW">    -1</i>
   <i type="int" name="NBANDSO">    -1</i>
   <i type="int" name="NBANDSV">    -1</i>
   <i type="int" name="NELMGW">     1</i>
   <i type="int" name="NELMHF">     1</i>
   <i type="int" name="DIM">     3</i>
   <i type="int" name="IESPILON">     4</i>
   <i type="int" name="ANTIRES">     0</i>
   <i name="OMEGAMAX">    -30.00000000</i>
   <i name="OMEGAMIN">    -30.00000000</i>
   <i name="OMEGATL">   -200.00000000</i>
   <i type="int" name="OMEGAGRID">     0</i>
   <i name="CSHIFT">     -0.10000000</i>
   <i type="logical" name="LSELFENERGY"> F  </i>
   <i type="logical" name="LSPECTRAL"> F  </i>
   <i type="logical" name="LSPECTRALGW"> F  </i>
   <i type="logical" name="LSINGLES"> F  </i>
   <i type="logical" name="LFERMIGW"> F  </i>
   <i type="logical" name="ODDONLYGW"> F  </i>
   <i type="logical" name="EVENONLYGW"> F  </i>
   <i type="int" name="NKREDLFX">     1</i>
   <i type="int" name="NKREDLFY">     1</i>
   <i type="int" name="NKREDLFZ">     1</i>
   <i type="int" name="MAXMEM">  2800</i>
   <i type="int" name="TELESCOPE">     0</i>
   <i type="int" name="NTAUPAR">    -1</i>
   <i type="int" name="NOMEGAPAR">    -1</i>
   <i name="DAMP_NEWTON">      0.80000001</i>
   <i name="LAMBDA">      1.00000000</i>
  </separator>
  <separator name="External order field" >
   <i name="OFIELD_KAPPA">      0.00000000</i>
   <v name="OFIELD_K">      0.00000000      0.00000000      0.00000000</v>
   <i name="OFIELD_Q6_NEAR">      0.00000000</i>
   <i name="OFIELD_Q6_FAR">      0.00000000</i>
   <i name="OFIELD_A">      0.00000000</i>
  </separator>
  <separator name="optional k-points parameters" >
   <i type="int" name="KPOINTS_OPT_MODE">     1</i>
   <i type="logical" name="LKPOINTS_OPT"> F  </i>
  </separator>
 </parameters>
 <atominfo>
  <atoms>       2 </atoms>
  <types>       1 </types>
  <array name="atoms" >
   <dimension dim="1">ion</dimension>
   <field type="string">element</field>
   <field type="int">atomtype</field>
   <set>
    <rc><c>Si</c><c>   1</c></rc>
    <rc><c>Si</c><c>   1</c></rc>
   </set>
  </array>
  <array name="atomtypes" >
   <dimension dim="1">type</dimension>
   <field type="int">atomspertype</field>
   <field type="string">element</field>
   <field>mass</field>
   <field>valence</field>
   <field type="string">pseudopotential</field>
   <set>
    <rc><c>   2</c><c>Si</c><c>     28.08500000</c><c>      4.00000000</c><c>  PAW_PBE Si 05Jan2001                  </c></rc>
   </set>
  </array>
 </atominfo>
 <structure name="initialpos" >
  <crystal>
   <varray name="basis" >
    <v>       3.33357300       0.00000000       1.92463900 </v>
    <v>       1.11119100       3.14292400       1.92463900 </v>
    <v>       0.00000000       0.00000000       3.84927800 </v>
   </varray>
   <i name="volume">     40.32952685 </i>
   <varray name="rec_basis" >
    <v>       0.29997843      -0.10605835       0.00000000 </v>
    <v>       0.00000000       0.31817505       0.00000000 </v>
    <v>      -0.14998922      -0.10605835       0.25978898 </v>
   </varray>
  </crystal>
  <varray name="positions" >
   <v>       0.87500000       0.87500000       0.87500000 </v>
   <v>       0.12500000       0.12500000       0.12500000 </v>
  </varray>
 </structure>
 <calculation>
  <scstep>
   <time name="dav">   21.38   21.40</time>
   <time name="total">   22.08   22.10</time>
   <energy>
    <i name="alphaZ">      3.33880741 </i>
    <i name="ewald">   -227.98820643 </i>
    <i name="hartreedc">    -16.64023139 </i>
    <i name="XCdc">     -9.26769450 </i>
    <i name="pawpsdc">  10701.20864341 </i>
    <i name="pawaedc"> -10707.79546027 </i>
    <i name="eentropy">      0.00000000 </i>
    <i name="bandstr">      5.54819685 </i>
    <i name="atom">    205.15160006 </i>
    <i name="e_fr_energy">    -46.44434486 </i>
    <i name="e_wo_entrp">    -46.44434486 </i>
    <i name="e_0_energy">    -46.44434486 </i>
   </energy>
  </scstep>
  <scstep>
   <time name="diag">    0.99    0.99</time>
   <time name="diis">    1.57    1.57</time>
   <time name="orth">    0.17    0.17</time>
   <time name="total">    3.46    3.46</time>
   <energy>
    <i name="e_fr_energy">    -46.86683088 </i>
    <i name="e_wo_entrp">    -46.86683088 </i>
    <i name="e_0_energy">    -46.86683088 </i>
   </energy>
  </scstep>
  <scstep>
   <time name="diag">    0.99    0.99</time>
   <time name="diis">    1.87    1.87</time>
   <time name="orth">    0.18    0.18</time>
   <time name="total">    3.75    3.76</time>
   <energy>
    <i name="e_fr_energy">    -46.85104878 </i>
    <i name="e_wo_entrp">    -46.85104878 </i>
    <i name="e_0_energy">    -46.85104878 </i>
   </energy>
  </scstep>
  <scstep>
   <time name="diag">    0.98    0.98</time>
   <time name="diis">    2.19    2.19</time>
   <time name="orth">    0.18    0.18</time>
   <time name="total">    4.06    4.07</time>
   <energy>
    <i name="e_fr_energy">    -46.86127464 </i>
    <i name="e_wo_entrp">    -46.86127464 </i>
    <i name="e_0_energy">    -46.86127464 </i>
   </energy>
  </scstep>
  <scstep>
   <time name="diag">    0.98    0.98</time>
   <time name="diis">    2.22    2.22</time>
   <time name="orth">    0.17    0.17</time>
   <time name="total">    4.09    4.10</time>
   <energy>
    <i name="e_fr_energy">    -46.86132454 </i>
    <i name="e_wo_entrp">    -46.86132454 </i>
    <i name="e_0_energy">    -46.86132454 </i>
   </energy>
  </scstep>
  <scstep>
   <time name="diag">    0.98    0.98</time>
   <time name="diis">    2.28    2.29</time>
   <time name="orth">    0.17    0.17</time>
   <time name="total">    4.15    4.17</time>
   <energy>
    <i name="e_fr_energy">    -46.86135065 </i>
    <i name="e_wo_entrp">    -46.86135065 </i>
    <i name="e_0_energy">    -46.86135065 </i>
   </energy>
  </scstep>
  <scstep>
   <time name="diag">    0.98    0.98</time>
   <time name="diis">    2.22    2.22</time>
   <time name="orth">    0.17    0.17</time>
   <time name="total">    4.11    4.11</time>
   <energy>
    <i name="e_fr_energy">    -46.86137401 </i>
    <i name="e_wo_entrp">    -46.86137401 </i>
    <i name="e_0_energy">    -46.86137401 </i>
   </energy>
  </scstep>
  <scstep>
   <time name="diag">    0.98    0.98</time>
   <time name="diis">    2.28    2.28</time>
   <time name="orth">    0.17    0.17</time>
   <time name="total">    3.91    3.93</time>
   <energy>
    <i name="alphaZ">      3.33880741 </i>
    <i name="ewald">   -227.98820643 </i>
    <i name="hartreedc">    -15.05970007 </i>
    <i name="XCdc">     -8.80413744 </i>
    <i name="pawpsdc">   1496.17571842 </i>
    <i name="pawaedc">  -1502.87649335 </i>
    <i name="eentropy">      0.00000000 </i>
    <i name="bandstr">      3.20103760 </i>
    <i name="atom">    205.15160006 </i>
    <i name="e_fr_energy">    -46.86137380 </i>
    <i name="e_wo_entrp">    -46.86137380 </i>
    <i name="e_0_energy">    -46.86137380 </i>
   </energy>
  </scstep>
  <structure>
   <crystal>
    <varray name="basis" >
     <v>       3.33357300       0.00000000       1.92463900 </v>
     <v>       1.11119100       3.14292400       1.92463900 </v>
     <v>       0.00000000       0.00000000       3.84927800 </v>
    </varray>
    <i name="volume">     40.32952685 </i>
    <varray name="rec_basis" >
     <v>       0.29997843      -0.10605835       0.00000000 </v>
     <v>       0.00000000       0.31817505       0.00000000 </v>
     <v>      -0.14998922      -0.10605835       0.25978898 </v>
    </varray>
   </crystal>
   <varray name="positions" >
    <v>       0.87500000       0.87500000       0.87500000 </v>
    <v>       0.12500000       0.12500000       0.12500000 </v>
   </varray>
  </structure>
  <varray name="forces" >
   <v>      -0.00000000       0.00000000      -0.00000000 </v>
   <v>       0.00000000      -0.00000000       0.00000000 </v>
  </varray>
  <varray name="stress" >
   <v>      -1.91169859       0.00000000       0.00000000 </v>
   <v>       0.00000000      -1.91170009       0.00000000 </v>
   <v>      -0.00000000       0.00000000      -1.91169806 </v>
  </varray>
  <energy>
   <i name="e_fr_energy">    -46.86137380 </i>
   <i name="e_wo_entrp">    -46.86137380 </i>
   <i name="e_0_energy">    -46.86137380 </i>
  </energy>
  <time name="totalsc">   52.62   53.13</time>
  <eigenvalues>
   <array>
    <dimension dim="1">band</dimension>
    <dimension dim="2">kpoint</dimension>
    <dimension dim="3">spin</dimension>
    <field>eigene</field>
    <field>occ</field>
    <set>
     <set comment="spin 1">
      <set comment="kpoint 1">
       <r>   -6.8077    1.0000 </r>
       <r>    5.6677    1.0000 </r>
       <r>    5.6677    1.0000 </r>
       <r>    5.6677    1.0000 </r>
       <r>    8.4221    0.0000 </r>
       <r>    8.4221    0.0000 </r>
       <r>    8.4221    0.0000 </r>
       <r>    9.5689    0.0000 </r>
       <r>   13.7892    0.0000 </r>
       <r>   13.7892    0.0000 </r>
       <r>   14.3357    0.0000 </r>
       <r>   17.6863    0.0000 </r>
       <r>   17.6863    0.0000 </r>
       <r>   17.6863    0.0000 </r>
       <r>   21.8091    0.0000 </r>
       <r>   30.0918    0.0000 </r>
       <r>   30.0918    0.0000 </r>
       <r>   30.0918    0.0000 </r>
       <r>   31.2992    0.0000 </r>
       <r>   31.2992    0.0000 </r>
       <r>   32.9144    0.0000 </r>
       <r>   32.9144    0.0000 </r>
       <r>   32.9144    0.0000 </r>
       <r>   36.3929    0.0000 </r>
       <r>   36.3929    0.0000 </r>
       <r>   36.3929    0.0000 </r>
       <r>   42.4434    0.0000 </r>
       <r>   42.4434    0.0000 </r>
       <r>   42.4434    0.0000 </r>
       <r>   45.2119    0.0000 </r>
       <r>   46.4601    0.0000 </r>
       <r>   46.4601    0.0000 </r>
       <r>   48.4613    0.0000 </r>
       <r>   48.4613    0.0000 </r>
       <r>   50.1451    0.0000 </r>
       <r>   50.1451    0.0000 </r>
       <r>   50.1451    0.0000 </r>
       <r>   51.8316    0.0000 </r>
       <r>   51.8316    0.0000 </r>
       <r>   51.8316    0.0000 </r>
       <r>   52.3495    0.0000 </r>
       <r>   52.6068    0.0000 </r>
       <r>   52.6068    0.0000 </r>
       <r>   52.6068    0.0000 </r>
       <r>   53.1108    0.0000 </r>
       <r>   53.1108    0.0000 </r>
       <r>   53.1108    0.0000 </r>
       <r>   54.5332    0.0000 </r>
       <r>   54.5332    0.0000 </r>
       <r>   54.5332    0.0000 </r>
       <r>   57.7880    0.0000 </r>
       <r>   59.6062    0.0000 </r>
       <r>   59.6063    0.0000 </r>
       <r>   59.6063    0.0000 </r>
       <r>   59.6063    0.0000 </r>
       <r>   59.6063    0.0000 </r>
       <r>   59.6063    0.0000 </r>
       <r>   64.4502    0.0000 </r>
       <r>   66.5673    0.0000 </r>
       <r>   75.2922    0.0000 </r>
       <r>   75.2922    0.0000 </r>
       <r>   78.2778    0.0000 </r>
       <r>   78.2778    0.0000 </r>
       <r>   78.2778    0.0000 </r>
       <r>   81.1983    0.0000 </r>
       <r>   81.1983    0.0000 </r>
       <r>   81.5585    0.0000 </r>
       <r>   81.5585    0.0000 </r>
       <r>   81.5585    0.0000 </r>
       <r>   81.6468    0.0000 </r>
       <r>   81.6855    0.0000 </r>
       <r>   81.6855    0.0000 </r>
       <r>   81.6855    0.0000 </r>
       <r>   86.0687    0.0000 </r>
       <r>   86.0687    0.0000 </r>
       <r>   86.0688    0.0000 </r>
       <r>   92.4744    0.0000 </r>
       <r>   92.4744    0.0000 </r>
       <r>   92.4745    0.0000 </r>
       <r>   92.9127    0.0000 </r>
       <r>   92.9127    0.0000 </r>
       <r>   93.3696    0.0000 </r>
       <r>   93.3696    0.0000 </r>
       <r>   93.3696    0.0000 </r>
       <r>   93.8013    0.0000 </r>
       <r>   94.1956    0.0000 </r>
       <r>   94.1956    0.0000 </r>
       <r>   94.1956    0.0000 </r>
       <r>   96.4048    0.0000 </r>
       <r>   96.4048    0.0000 </r>
       <r>   96.6045    0.0000 </r>
       <r>   96.6046    0.0000 </r>
       <r>   96.6046    0.0000 </r>
       <r>  100.0260    0.0000 </r>
       <r>  100.3434    0.0000 </r>
       <r>  100.3434    0.0000 </r>
       <r>  100.3434    0.0000 </r>
       <r>  101.4537    0.0000 </r>
       <r>  101.4537    0.0000 </r>
       <r>  101.4537    0.0000 </r>
       <r>  101.6892    0.0000 </r>
       <r>  101.6892    0.0000 </r>
       <r>  101.6892    0.0000 </r>
       <r>  101.8061    0.0000 </r>
       <r>  101.8061    0.0000 </r>
       <r>  101.8061    0.0000 </r>
       <r>  104.1327    0.0000 </r>
       <r>  104.2324    0.0000 </r>
       <r>  104.2324    0.0000 </r>
       <r>  104.2324    0.0000 </r>
       <r>  104.3094    0.0000 </r>
       <r>  104.3094    0.0000 </r>
       <r>  107.9853    0.0000 </r>
       <r>  110.3152    0.0000 </r>
       <r>  110.3153    0.0000 </r>
       <r>  110.3153    0.0000 </r>
       <r>  112.8916    0.0000 </r>
       <r>  114.3434    0.0000 </r>
       <r>  114.3435    0.0000 </r>
       <r>  114.3435    0.0000 </r>
       <r>  114.3849    0.0000 </r>
       <r>  114.3849    0.0000 </r>
       <r>  119.0230    0.0000 </r>
       <r>  119.0230    0.0000 </r>
       <r>  119.0230    0.0000 </r>
       <r>  119.2289    0.0000 </r>
       <r>  119.2289    0.0000 </r>
       <r>  119.2289    0.0000 </r>
      </set>
      <set comment="kpoint 2">
       <r>   -6.5292    1.0000 </r>
       <r>    3.6891    1.0000 </r>
       <r>    5.2927    1.0000 </r>
       <r>    5.2927    1.0000 </r>
       <r>    8.3981    0.0000 </r>
       <r>    8.9715    0.0000 </r>
       <r>    8.9715    0.0000 </r>
       <r>   11.2034    0.0000 </r>
       <r>   13.2372    0.0000 </r>
       <r>   13.2372    0.0000 </r>
       <r>   15.2944    0.0000 </r>
       <r>   17.0221    0.0000 </r>
       <r>   19.1862    0.0000 </r>
       <r>   19.1862    0.0000 </r>
       <r>   23.4346    0.0000 </r>
       <r>   27.4427    0.0000 </r>
       <r>   27.4427    0.0000 </r>
       <r>   27.9477    0.0000 </r>
       <r>   30.9322    0.0000 </r>
       <r>   30.9322    0.0000 </r>
       <r>   33.5054    0.0000 </r>
       <r>   33.5054    0.0000 </r>
       <r>   34.6561    0.0000 </r>
       <r>   36.6453    0.0000 </r>
       <r>   39.2402    0.0000 </r>
       <r>   39.2402    0.0000 </r>
       <r>   39.2478    0.0000 </r>
       <r>   41.7590    0.0000 </r>
       <r>   41.7591    0.0000 </r>
       <r>   43.8410    0.0000 </r>
       <r>   43.8410    0.0000 </r>
       <r>   46.0722    0.0000 </r>
       <r>   46.0722    0.0000 </r>
       <r>   46.0799    0.0000 </r>
       <r>   49.2923    0.0000 </r>
       <r>   49.5676    0.0000 </r>
       <r>   49.5676    0.0000 </r>
       <r>   49.6724    0.0000 </r>
       <r>   51.4211    0.0000 </r>
       <r>   51.8937    0.0000 </r>
       <r>   51.8937    0.0000 </r>
       <r>   51.9068    0.0000 </r>
       <r>   53.1072    0.0000 </r>
       <r>   53.1072    0.0000 </r>
       <r>   53.5854    0.0000 </r>
       <r>   55.3564    0.0000 </r>
       <r>   55.7677    0.0000 </r>
       <r>   55.7677    0.0000 </r>
       <r>   57.3703    0.0000 </r>
       <r>   57.3703    0.0000 </r>
       <r>   58.6903    0.0000 </r>
       <r>   59.0839    0.0000 </r>
       <r>   60.1811    0.0000 </r>
       <r>   60.1811    0.0000 </r>
       <r>   62.8376    0.0000 </r>
       <r>   62.8377    0.0000 </r>
       <r>   63.6710    0.0000 </r>
       <r>   67.0715    0.0000 </r>
       <r>   69.0632    0.0000 </r>
       <r>   71.5318    0.0000 </r>
       <r>   71.5318    0.0000 </r>
       <r>   74.0487    0.0000 </r>
       <r>   76.2938    0.0000 </r>
       <r>   76.2938    0.0000 </r>
       <r>   77.9000    0.0000 </r>
       <r>   79.0372    0.0000 </r>
       <r>   79.0372    0.0000 </r>
       <r>   81.5400    0.0000 </r>
       <r>   81.5400    0.0000 </r>
       <r>   82.7791    0.0000 </r>
       <r>   83.0039    0.0000 </r>
       <r>   83.0039    0.0000 </r>
       <r>   85.6387    0.0000 </r>
       <r>   85.9072    0.0000 </r>
       <r>   87.3002    0.0000 </r>
       <r>   87.3002    0.0000 </r>
       <r>   88.3829    0.0000 </r>
       <r>   88.3829    0.0000 </r>
       <r>   89.5394    0.0000 </r>
       <r>   91.0720    0.0000 </r>
       <r>   91.0720    0.0000 </r>
       <r>   92.9209    0.0000 </r>
       <r>   93.2187    0.0000 </r>
       <r>   93.4030    0.0000 </r>
       <r>   93.4031    0.0000 </r>
       <r>   93.6648    0.0000 </r>
       <r>   94.3480    0.0000 </r>
       <r>   94.3480    0.0000 </r>
       <r>   94.9381    0.0000 </r>
       <r>   94.9381    0.0000 </r>
       <r>   94.9902    0.0000 </r>
       <r>   97.5295    0.0000 </r>
       <r>   98.3542    0.0000 </r>
       <r>   98.9199    0.0000 </r>
       <r>   98.9199    0.0000 </r>
       <r>   99.5550    0.0000 </r>
       <r>   99.5550    0.0000 </r>
       <r>  101.0927    0.0000 </r>
       <r>  101.1294    0.0000 </r>
       <r>  101.1294    0.0000 </r>
       <r>  102.6574    0.0000 </r>
       <r>  102.7318    0.0000 </r>
       <r>  102.7318    0.0000 </r>
       <r>  103.5867    0.0000 </r>
       <r>  104.7400    0.0000 </r>
       <r>  104.7400    0.0000 </r>
       <r>  105.3518    0.0000 </r>
       <r>  107.2024    0.0000 </r>
       <r>  107.3507    0.0000 </r>
       <r>  107.3507    0.0000 </r>
       <r>  107.6609    0.0000 </r>
       <r>  107.6609    0.0000 </r>
       <r>  109.1277    0.0000 </r>
       <r>  109.1277    0.0000 </r>
       <r>  110.9006    0.0000 </r>
       <r>  112.2844    0.0000 </r>
       <r>  112.6452    0.0000 </r>
       <r>  112.6569    0.0000 </r>
       <r>  112.6569    0.0000 </r>
       <r>  113.4794    0.0000 </r>
       <r>  113.4794    0.0000 </r>
       <r>  114.0821    0.0000 </r>
       <r>  115.9220    0.0000 </r>
       <r>  115.9221    0.0000 </r>
       <r>  117.1364    0.0000 </r>
       <r>  118.0232    0.0000 </r>
       <r>  118.5799    0.0000 </r>
       <r>  118.5799    0.0000 </r>
      </set>
      <set comment="kpoint 3">
       <r>   -5.7272    1.0000 </r>
       <r>    0.9563    1.0000 </r>
       <r>    4.7471    1.0000 </r>
       <r>    4.7471    1.0000 </r>
       <r>    7.8898    0.0000 </r>
       <r>    9.4544    0.0000 </r>
       <r>    9.4544    0.0000 </r>
       <r>   13.5690    0.0000 </r>
       <r>   13.5690    0.0000 </r>
       <r>   13.7215    0.0000 </r>
       <r>   15.2565    0.0000 </r>
       <r>   19.0823    0.0000 </r>
       <r>   21.6046    0.0000 </r>
       <r>   21.6046    0.0000 </r>
       <r>   23.9886    0.0000 </r>
       <r>   23.9886    0.0000 </r>
       <r>   24.2536    0.0000 </r>
       <r>   27.3991    0.0000 </r>
       <r>   31.1508    0.0000 </r>
       <r>   31.1508    0.0000 </r>
       <r>   33.8820    0.0000 </r>
       <r>   33.8820    0.0000 </r>
       <r>   33.9029    0.0000 </r>
       <r>   36.8839    0.0000 </r>
       <r>   37.3322    0.0000 </r>
       <r>   38.1041    0.0000 </r>
       <r>   38.1041    0.0000 </r>
       <r>   40.6118    0.0000 </r>
       <r>   40.6119    0.0000 </r>
       <r>   41.8137    0.0000 </r>
       <r>   41.8137    0.0000 </r>
       <r>   44.5409    0.0000 </r>
       <r>   45.8212    0.0000 </r>
       <r>   46.4382    0.0000 </r>
       <r>   46.7723    0.0000 </r>
       <r>   46.7723    0.0000 </r>
       <r>   48.9312    0.0000 </r>
       <r>   48.9313    0.0000 </r>
       <r>   50.7931    0.0000 </r>
       <r>   51.8550    0.0000 </r>
       <r>   51.8550    0.0000 </r>
       <r>   52.2080    0.0000 </r>
       <r>   53.0206    0.0000 </r>
       <r>   55.8466    0.0000 </r>
       <r>   55.8466    0.0000 </r>
       <r>   57.8284    0.0000 </r>
       <r>   57.8285    0.0000 </r>
       <r>   59.3716    0.0000 </r>
       <r>   60.2051    0.0000 </r>
       <r>   60.2051    0.0000 </r>
       <r>   61.2594    0.0000 </r>
       <r>   64.1435    0.0000 </r>
       <r>   66.1969    0.0000 </r>
       <r>   66.1969    0.0000 </r>
       <r>   66.3841    0.0000 </r>
       <r>   67.3274    0.0000 </r>
       <r>   67.3274    0.0000 </r>
       <r>   68.2799    0.0000 </r>
       <r>   68.2799    0.0000 </r>
       <r>   69.1300    0.0000 </r>
       <r>   69.6055    0.0000 </r>
       <r>   70.0557    0.0000 </r>
       <r>   70.0557    0.0000 </r>
       <r>   74.3461    0.0000 </r>
       <r>   74.3461    0.0000 </r>
       <r>   74.5656    0.0000 </r>
       <r>   76.3420    0.0000 </r>
       <r>   78.2224    0.0000 </r>
       <r>   78.2224    0.0000 </r>
       <r>   81.1284    0.0000 </r>
       <r>   83.2125    0.0000 </r>
       <r>   83.7688    0.0000 </r>
       <r>   84.1206    0.0000 </r>
       <r>   84.1206    0.0000 </r>
       <r>   84.9069    0.0000 </r>
       <r>   84.9070    0.0000 </r>
       <r>   87.6739    0.0000 </r>
       <r>   87.6833    0.0000 </r>
       <r>   87.6834    0.0000 </r>
       <r>   88.2619    0.0000 </r>
       <r>   89.5881    0.0000 </r>
       <r>   89.5881    0.0000 </r>
       <r>   91.5797    0.0000 </r>
       <r>   91.5797    0.0000 </r>
       <r>   92.8420    0.0000 </r>
       <r>   93.9064    0.0000 </r>
       <r>   94.2920    0.0000 </r>
       <r>   94.3030    0.0000 </r>
       <r>   94.3030    0.0000 </r>
       <r>   95.2730    0.0000 </r>
       <r>   95.2730    0.0000 </r>
       <r>   97.2645    0.0000 </r>
       <r>   97.8435    0.0000 </r>
       <r>   97.8435    0.0000 </r>
       <r>   98.9522    0.0000 </r>
       <r>   99.4727    0.0000 </r>
       <r>   99.4728    0.0000 </r>
       <r>  100.4702    0.0000 </r>
       <r>  103.3424    0.0000 </r>
       <r>  103.3424    0.0000 </r>
       <r>  103.7175    0.0000 </r>
       <r>  103.9075    0.0000 </r>
       <r>  103.9076    0.0000 </r>
       <r>  105.6721    0.0000 </r>
       <r>  105.6721    0.0000 </r>
       <r>  107.5822    0.0000 </r>
       <r>  107.6216    0.0000 </r>
       <r>  107.6216    0.0000 </r>
       <r>  108.9918    0.0000 </r>
       <r>  109.2893    0.0000 </r>
       <r>  109.2893    0.0000 </r>
       <r>  109.3284    0.0000 </r>
       <r>  109.9562    0.0000 </r>
       <r>  110.3879    0.0000 </r>
       <r>  111.6025    0.0000 </r>
       <r>  111.6025    0.0000 </r>
       <r>  111.8021    0.0000 </r>
       <r>  114.6023    0.0000 </r>
       <r>  114.6023    0.0000 </r>
       <r>  115.7919    0.0000 </r>
       <r>  116.9316    0.0000 </r>
       <r>  116.9316    0.0000 </r>
       <r>  117.6464    0.0000 </r>
       <r>  118.3262    0.0000 </r>
       <r>  118.3262    0.0000 </r>
       <r>  118.4563    0.0000 </r>
       <r>  118.4563    0.0000 </r>
       <r>  118.6081    0.0000 </r>
      </set>
      <set comment="kpoint 4">
       <r>   -4.6397    1.0000 </r>
       <r>   -1.1676    1.0000 </r>
       <r>    4.4402    1.0000 </r>
       <r>    4.4402    1.0000 </r>
       <r>    7.5672    0.0000 </r>
       <r>    9.2995    0.0000 </r>
       <r>    9.2995    0.0000 </r>
       <r>   14.0566    0.0000 </r>
       <r>   15.7042    0.0000 </r>
       <r>   15.7042    0.0000 </r>
       <r>   16.9768    0.0000 </r>
       <r>   18.9803    0.0000 </r>
       <r>   18.9804    0.0000 </r>
       <r>   20.3170    0.0000 </r>
       <r>   24.2861    0.0000 </r>
       <r>   26.6962    0.0000 </r>
       <r>   26.6962    0.0000 </r>
       <r>   28.8624    0.0000 </r>
       <r>   30.2920    0.0000 </r>
       <r>   30.2920    0.0000 </r>
       <r>   31.2668    0.0000 </r>
       <r>   33.7244    0.0000 </r>
       <r>   33.7244    0.0000 </r>
       <r>   34.8155    0.0000 </r>
       <r>   34.8155    0.0000 </r>
       <r>   36.3393    0.0000 </r>
       <r>   38.1029    0.0000 </r>
       <r>   39.8374    0.0000 </r>
       <r>   39.8374    0.0000 </r>
       <r>   40.6157    0.0000 </r>
       <r>   40.6157    0.0000 </r>
       <r>   41.4775    0.0000 </r>
       <r>   44.3186    0.0000 </r>
       <r>   44.3843    0.0000 </r>
       <r>   48.5596    0.0000 </r>
       <r>   48.5596    0.0000 </r>
       <r>   50.3033    0.0000 </r>
       <r>   50.4173    0.0000 </r>
       <r>   50.4174    0.0000 </r>
       <r>   51.9333    0.0000 </r>
       <r>   53.1886    0.0000 </r>
       <r>   53.1886    0.0000 </r>
       <r>   56.2451    0.0000 </r>
       <r>   57.0622    0.0000 </r>
       <r>   57.0622    0.0000 </r>
       <r>   60.2996    0.0000 </r>
       <r>   60.2996    0.0000 </r>
       <r>   61.3239    0.0000 </r>
       <r>   61.7350    0.0000 </r>
       <r>   62.9662    0.0000 </r>
       <r>   62.9662    0.0000 </r>
       <r>   64.6224    0.0000 </r>
       <r>   64.6225    0.0000 </r>
       <r>   65.7721    0.0000 </r>
       <r>   65.7722    0.0000 </r>
       <r>   67.5890    0.0000 </r>
       <r>   69.1113    0.0000 </r>
       <r>   69.1113    0.0000 </r>
       <r>   69.3868    0.0000 </r>
       <r>   70.2257    0.0000 </r>
       <r>   70.3879    0.0000 </r>
       <r>   72.5827    0.0000 </r>
       <r>   72.5827    0.0000 </r>
       <r>   72.7124    0.0000 </r>
       <r>   72.7124    0.0000 </r>
       <r>   75.9632    0.0000 </r>
       <r>   76.8565    0.0000 </r>
       <r>   76.8565    0.0000 </r>
       <r>   76.9258    0.0000 </r>
       <r>   76.9386    0.0000 </r>
       <r>   78.0616    0.0000 </r>
       <r>   78.7658    0.0000 </r>
       <r>   78.7658    0.0000 </r>
       <r>   81.8175    0.0000 </r>
       <r>   83.3104    0.0000 </r>
       <r>   83.3104    0.0000 </r>
       <r>   86.1547    0.0000 </r>
       <r>   86.1547    0.0000 </r>
       <r>   86.3193    0.0000 </r>
       <r>   87.0751    0.0000 </r>
       <r>   87.0752    0.0000 </r>
       <r>   87.6049    0.0000 </r>
       <r>   91.5574    0.0000 </r>
       <r>   91.5574    0.0000 </r>
       <r>   93.0536    0.0000 </r>
       <r>   94.2200    0.0000 </r>
       <r>   94.2201    0.0000 </r>
       <r>   94.4434    0.0000 </r>
       <r>   95.6709    0.0000 </r>
       <r>   96.0149    0.0000 </r>
       <r>   96.0149    0.0000 </r>
       <r>   97.7637    0.0000 </r>
       <r>   97.7637    0.0000 </r>
       <r>   98.9252    0.0000 </r>
       <r>  100.0695    0.0000 </r>
       <r>  100.7022    0.0000 </r>
       <r>  100.7022    0.0000 </r>
       <r>  100.7710    0.0000 </r>
       <r>  101.6076    0.0000 </r>
       <r>  102.1040    0.0000 </r>
       <r>  102.1040    0.0000 </r>
       <r>  104.2894    0.0000 </r>
       <r>  104.2894    0.0000 </r>
       <r>  105.3523    0.0000 </r>
       <r>  105.4209    0.0000 </r>
       <r>  106.4126    0.0000 </r>
       <r>  106.4126    0.0000 </r>
       <r>  108.8486    0.0000 </r>
       <r>  108.8486    0.0000 </r>
       <r>  109.5571    0.0000 </r>
       <r>  110.4799    0.0000 </r>
       <r>  111.4944    0.0000 </r>
       <r>  111.4944    0.0000 </r>
       <r>  113.5191    0.0000 </r>
       <r>  113.6003    0.0000 </r>
       <r>  113.6003    0.0000 </r>
       <r>  114.0753    0.0000 </r>
       <r>  114.0754    0.0000 </r>
       <r>  114.0852    0.0000 </r>
       <r>  116.3246    0.0000 </r>
       <r>  116.4238    0.0000 </r>
       <r>  117.1538    0.0000 </r>
       <r>  117.1587    0.0000 </r>
       <r>  118.1035    0.0000 </r>
       <r>  118.1117    0.0000 </r>
       <r>  118.6369    0.0000 </r>
       <r>  118.8197    0.0000 </r>
       <r>  120.4801    0.0000 </r>
      </set>
      <set comment="kpoint 5">
       <r>   -6.4350    1.0000 </r>
       <r>    4.0205    1.0000 </r>
       <r>    4.6504    1.0000 </r>
       <r>    4.6504    1.0000 </r>
       <r>    7.7551    0.0000 </r>
       <r>    9.9057    0.0000 </r>
       <r>    9.9057    0.0000 </r>
       <r>   10.5578    0.0000 </r>
       <r>   12.6043    0.0000 </r>
       <r>   14.2071    0.0000 </r>
       <r>   15.7271    0.0000 </r>
       <r>   18.3241    0.0000 </r>
       <r>   18.3241    0.0000 </r>
       <r>   18.8002    0.0000 </r>
       <r>   24.2620    0.0000 </r>
       <r>   26.9561    0.0000 </r>
       <r>   26.9561    0.0000 </r>
       <r>   28.1982    0.0000 </r>
       <r>   29.3450    0.0000 </r>
       <r>   30.5784    0.0000 </r>
       <r>   33.7947    0.0000 </r>
       <r>   34.1649    0.0000 </r>
       <r>   34.1649    0.0000 </r>
       <r>   39.0481    0.0000 </r>
       <r>   39.0481    0.0000 </r>
       <r>   39.6373    0.0000 </r>
       <r>   39.9509    0.0000 </r>
       <r>   40.1521    0.0000 </r>
       <r>   40.1521    0.0000 </r>
       <r>   42.2173    0.0000 </r>
       <r>   44.3984    0.0000 </r>
       <r>   45.6850    0.0000 </r>
       <r>   47.3107    0.0000 </r>
       <r>   47.7388    0.0000 </r>
       <r>   47.7388    0.0000 </r>
       <r>   48.2063    0.0000 </r>
       <r>   49.5522    0.0000 </r>
       <r>   49.7149    0.0000 </r>
       <r>   49.7150    0.0000 </r>
       <r>   51.6748    0.0000 </r>
       <r>   51.6748    0.0000 </r>
       <r>   52.6714    0.0000 </r>
       <r>   53.8763    0.0000 </r>
       <r>   54.6977    0.0000 </r>
       <r>   55.1498    0.0000 </r>
       <r>   55.1498    0.0000 </r>
       <r>   56.3015    0.0000 </r>
       <r>   56.3260    0.0000 </r>
       <r>   56.3260    0.0000 </r>
       <r>   57.0225    0.0000 </r>
       <r>   57.1017    0.0000 </r>
       <r>   59.2688    0.0000 </r>
       <r>   60.5958    0.0000 </r>
       <r>   60.5958    0.0000 </r>
       <r>   63.5128    0.0000 </r>
       <r>   65.9216    0.0000 </r>
       <r>   65.9216    0.0000 </r>
       <r>   66.9402    0.0000 </r>
       <r>   67.7584    0.0000 </r>
       <r>   68.5609    0.0000 </r>
       <r>   75.2250    0.0000 </r>
       <r>   75.2250    0.0000 </r>
       <r>   75.5381    0.0000 </r>
       <r>   76.3449    0.0000 </r>
       <r>   78.9068    0.0000 </r>
       <r>   79.2036    0.0000 </r>
       <r>   79.2995    0.0000 </r>
       <r>   79.2995    0.0000 </r>
       <r>   80.3669    0.0000 </r>
       <r>   80.3863    0.0000 </r>
       <r>   80.3863    0.0000 </r>
       <r>   81.6316    0.0000 </r>
       <r>   84.6197    0.0000 </r>
       <r>   87.2910    0.0000 </r>
       <r>   87.2911    0.0000 </r>
       <r>   88.4100    0.0000 </r>
       <r>   88.5351    0.0000 </r>
       <r>   89.1296    0.0000 </r>
       <r>   89.5890    0.0000 </r>
       <r>   90.1508    0.0000 </r>
       <r>   90.1508    0.0000 </r>
       <r>   91.1607    0.0000 </r>
       <r>   91.1607    0.0000 </r>
       <r>   92.9507    0.0000 </r>
       <r>   93.0249    0.0000 </r>
       <r>   94.6496    0.0000 </r>
       <r>   94.6496    0.0000 </r>
       <r>   95.2732    0.0000 </r>
       <r>   95.2732    0.0000 </r>
       <r>   95.2905    0.0000 </r>
       <r>   95.7180    0.0000 </r>
       <r>   96.1090    0.0000 </r>
       <r>   98.8716    0.0000 </r>
       <r>   98.8716    0.0000 </r>
       <r>   99.9145    0.0000 </r>
       <r>  100.2128    0.0000 </r>
       <r>  101.0237    0.0000 </r>
       <r>  101.0238    0.0000 </r>
       <r>  101.8178    0.0000 </r>
       <r>  102.2235    0.0000 </r>
       <r>  102.2953    0.0000 </r>
       <r>  102.8743    0.0000 </r>
       <r>  103.4047    0.0000 </r>
       <r>  103.4047    0.0000 </r>
       <r>  103.6370    0.0000 </r>
       <r>  104.9049    0.0000 </r>
       <r>  104.9049    0.0000 </r>
       <r>  105.8859    0.0000 </r>
       <r>  107.5289    0.0000 </r>
       <r>  107.5598    0.0000 </r>
       <r>  108.8889    0.0000 </r>
       <r>  108.8889    0.0000 </r>
       <r>  109.8134    0.0000 </r>
       <r>  110.9725    0.0000 </r>
       <r>  111.6673    0.0000 </r>
       <r>  112.0829    0.0000 </r>
       <r>  112.0829    0.0000 </r>
       <r>  112.1950    0.0000 </r>
       <r>  112.2709    0.0000 </r>
       <r>  112.6011    0.0000 </r>
       <r>  112.6011    0.0000 </r>
       <r>  114.1903    0.0000 </r>
       <r>  114.1904    0.0000 </r>
       <r>  115.6167    0.0000 </r>
       <r>  116.4528    0.0000 </r>
       <r>  118.2090    0.0000 </r>
       <r>  118.7622    0.0000 </r>
       <r>  120.0701    0.0000 </r>
      </set>
      <set comment="kpoint 6">
       <r>   -5.7997    1.0000 </r>
       <r>    1.7893    1.0000 </r>
       <r>    4.0661    1.0000 </r>
       <r>    4.0785    1.0000 </r>
       <r>    7.9746    0.0000 </r>
       <r>    9.9345    0.0000 </r>
       <r>   10.5690    0.0000 </r>
       <r>   10.7371    0.0000 </r>
       <r>   14.4538    0.0000 </r>
       <r>   14.6434    0.0000 </r>
       <r>   16.6081    0.0000 </r>
       <r>   18.5287    0.0000 </r>
       <r>   20.0426    0.0000 </r>
       <r>   21.5157    0.0000 </r>
       <r>   23.3809    0.0000 </r>
       <r>   24.1106    0.0000 </r>
       <r>   26.5059    0.0000 </r>
       <r>   28.0158    0.0000 </r>
       <r>   28.3871    0.0000 </r>
       <r>   30.0001    0.0000 </r>
       <r>   33.2851    0.0000 </r>
       <r>   34.5502    0.0000 </r>
       <r>   34.7054    0.0000 </r>
       <r>   37.0901    0.0000 </r>
       <r>   38.0697    0.0000 </r>
       <r>   38.3067    0.0000 </r>
       <r>   39.6357    0.0000 </r>
       <r>   39.8916    0.0000 </r>
       <r>   40.8780    0.0000 </r>
       <r>   41.5862    0.0000 </r>
       <r>   43.2433    0.0000 </r>
       <r>   43.6502    0.0000 </r>
       <r>   45.6283    0.0000 </r>
       <r>   45.9855    0.0000 </r>
       <r>   47.1093    0.0000 </r>
       <r>   47.9434    0.0000 </r>
       <r>   48.2741    0.0000 </r>
       <r>   49.6971    0.0000 </r>
       <r>   51.5775    0.0000 </r>
       <r>   51.6818    0.0000 </r>
       <r>   52.5297    0.0000 </r>
       <r>   52.5860    0.0000 </r>
       <r>   53.4042    0.0000 </r>
       <r>   54.0514    0.0000 </r>
       <r>   55.1374    0.0000 </r>
       <r>   56.0432    0.0000 </r>
       <r>   57.9540    0.0000 </r>
       <r>   58.2246    0.0000 </r>
       <r>   59.1174    0.0000 </r>
       <r>   59.4124    0.0000 </r>
       <r>   62.0739    0.0000 </r>
       <r>   63.2841    0.0000 </r>
       <r>   63.3416    0.0000 </r>
       <r>   64.8325    0.0000 </r>
       <r>   65.0977    0.0000 </r>
       <r>   66.6288    0.0000 </r>
       <r>   68.6556    0.0000 </r>
       <r>   69.1720    0.0000 </r>
       <r>   70.3577    0.0000 </r>
       <r>   70.5200    0.0000 </r>
       <r>   70.9281    0.0000 </r>
       <r>   72.3635    0.0000 </r>
       <r>   73.2787    0.0000 </r>
       <r>   73.6573    0.0000 </r>
       <r>   74.7349    0.0000 </r>
       <r>   76.0541    0.0000 </r>
       <r>   76.6453    0.0000 </r>
       <r>   77.0770    0.0000 </r>
       <r>   78.9587    0.0000 </r>
       <r>   79.9471    0.0000 </r>
       <r>   81.8343    0.0000 </r>
       <r>   82.9183    0.0000 </r>
       <r>   83.2096    0.0000 </r>
       <r>   84.0375    0.0000 </r>
       <r>   84.5564    0.0000 </r>
       <r>   85.7067    0.0000 </r>
       <r>   86.6552    0.0000 </r>
       <r>   86.9033    0.0000 </r>
       <r>   87.6968    0.0000 </r>
       <r>   88.0215    0.0000 </r>
       <r>   89.6513    0.0000 </r>
       <r>   89.6706    0.0000 </r>
       <r>   90.5486    0.0000 </r>
       <r>   91.6789    0.0000 </r>
       <r>   92.8670    0.0000 </r>
       <r>   93.1689    0.0000 </r>
       <r>   94.6891    0.0000 </r>
       <r>   95.2409    0.0000 </r>
       <r>   95.9882    0.0000 </r>
       <r>   96.2673    0.0000 </r>
       <r>   97.0920    0.0000 </r>
       <r>   97.5649    0.0000 </r>
       <r>   97.8952    0.0000 </r>
       <r>   97.9070    0.0000 </r>
       <r>   99.2476    0.0000 </r>
       <r>  100.3091    0.0000 </r>
       <r>  100.6709    0.0000 </r>
       <r>  101.5116    0.0000 </r>
       <r>  101.7093    0.0000 </r>
       <r>  102.6290    0.0000 </r>
       <r>  102.6316    0.0000 </r>
       <r>  103.8308    0.0000 </r>
       <r>  104.2790    0.0000 </r>
       <r>  105.0421    0.0000 </r>
       <r>  105.6347    0.0000 </r>
       <r>  105.6987    0.0000 </r>
       <r>  107.1868    0.0000 </r>
       <r>  107.5698    0.0000 </r>
       <r>  107.5700    0.0000 </r>
       <r>  107.8840    0.0000 </r>
       <r>  108.8319    0.0000 </r>
       <r>  109.8485    0.0000 </r>
       <r>  110.5105    0.0000 </r>
       <r>  111.3321    0.0000 </r>
       <r>  112.1050    0.0000 </r>
       <r>  112.2776    0.0000 </r>
       <r>  112.7061    0.0000 </r>
       <r>  112.9822    0.0000 </r>
       <r>  113.9167    0.0000 </r>
       <r>  114.5874    0.0000 </r>
       <r>  114.7723    0.0000 </r>
       <r>  116.3922    0.0000 </r>
       <r>  116.6519    0.0000 </r>
       <r>  116.7477    0.0000 </r>
       <r>  117.2510    0.0000 </r>
       <r>  118.0932    0.0000 </r>
       <r>  119.2779    0.0000 </r>
       <r>  119.6349    0.0000 </r>
      </set>
      <set comment="kpoint 7">
       <r>   -4.7441    1.0000 </r>
       <r>   -0.4995    1.0000 </r>
       <r>    3.3529    1.0000 </r>
       <r>    3.8766    1.0000 </r>
       <r>    8.0748    0.0000 </r>
       <r>    9.8285    0.0000 </r>
       <r>   10.5085    0.0000 </r>
       <r>   11.8726    0.0000 </r>
       <r>   15.7817    0.0000 </r>
       <r>   16.4906    0.0000 </r>
       <r>   17.3676    0.0000 </r>
       <r>   18.6500    0.0000 </r>
       <r>   19.5655    0.0000 </r>
       <r>   22.2951    0.0000 </r>
       <r>   24.2992    0.0000 </r>
       <r>   24.3027    0.0000 </r>
       <r>   26.0687    0.0000 </r>
       <r>   28.4308    0.0000 </r>
       <r>   29.1785    0.0000 </r>
       <r>   30.6001    0.0000 </r>
       <r>   31.4501    0.0000 </r>
       <r>   31.8314    0.0000 </r>
       <r>   34.6193    0.0000 </r>
       <r>   35.4400    0.0000 </r>
       <r>   36.0925    0.0000 </r>
       <r>   37.0257    0.0000 </r>
       <r>   37.7555    0.0000 </r>
       <r>   38.3828    0.0000 </r>
       <r>   40.2114    0.0000 </r>
       <r>   40.7986    0.0000 </r>
       <r>   41.9944    0.0000 </r>
       <r>   42.9073    0.0000 </r>
       <r>   44.9423    0.0000 </r>
       <r>   45.1124    0.0000 </r>
       <r>   46.8734    0.0000 </r>
       <r>   47.7555    0.0000 </r>
       <r>   50.0865    0.0000 </r>
       <r>   50.2573    0.0000 </r>
       <r>   52.2609    0.0000 </r>
       <r>   52.7153    0.0000 </r>
       <r>   53.6738    0.0000 </r>
       <r>   54.0253    0.0000 </r>
       <r>   55.0694    0.0000 </r>
       <r>   55.2811    0.0000 </r>
       <r>   56.6846    0.0000 </r>
       <r>   57.8493    0.0000 </r>
       <r>   58.8655    0.0000 </r>
       <r>   59.6429    0.0000 </r>
       <r>   61.1114    0.0000 </r>
       <r>   62.9367    0.0000 </r>
       <r>   64.4988    0.0000 </r>
       <r>   64.6374    0.0000 </r>
       <r>   64.7902    0.0000 </r>
       <r>   66.4578    0.0000 </r>
       <r>   67.5835    0.0000 </r>
       <r>   67.7591    0.0000 </r>
       <r>   68.6196    0.0000 </r>
       <r>   69.3917    0.0000 </r>
       <r>   69.9601    0.0000 </r>
       <r>   70.3759    0.0000 </r>
       <r>   71.4647    0.0000 </r>
       <r>   72.0955    0.0000 </r>
       <r>   72.1352    0.0000 </r>
       <r>   72.6910    0.0000 </r>
       <r>   73.5913    0.0000 </r>
       <r>   75.2742    0.0000 </r>
       <r>   75.8161    0.0000 </r>
       <r>   76.4960    0.0000 </r>
       <r>   76.7091    0.0000 </r>
       <r>   77.2229    0.0000 </r>
       <r>   79.8346    0.0000 </r>
       <r>   80.1738    0.0000 </r>
       <r>   80.9970    0.0000 </r>
       <r>   82.5620    0.0000 </r>
       <r>   83.2889    0.0000 </r>
       <r>   83.8075    0.0000 </r>
       <r>   85.2462    0.0000 </r>
       <r>   85.5092    0.0000 </r>
       <r>   86.8414    0.0000 </r>
       <r>   87.8684    0.0000 </r>
       <r>   87.9542    0.0000 </r>
       <r>   89.1153    0.0000 </r>
       <r>   90.0330    0.0000 </r>
       <r>   90.1478    0.0000 </r>
       <r>   90.7555    0.0000 </r>
       <r>   92.5288    0.0000 </r>
       <r>   93.1728    0.0000 </r>
       <r>   93.2595    0.0000 </r>
       <r>   94.6304    0.0000 </r>
       <r>   94.6879    0.0000 </r>
       <r>   96.2569    0.0000 </r>
       <r>   97.5695    0.0000 </r>
       <r>   98.4071    0.0000 </r>
       <r>   99.0457    0.0000 </r>
       <r>   99.7059    0.0000 </r>
       <r>  100.8559    0.0000 </r>
       <r>  100.9445    0.0000 </r>
       <r>  101.6995    0.0000 </r>
       <r>  102.4350    0.0000 </r>
       <r>  102.9179    0.0000 </r>
       <r>  103.0810    0.0000 </r>
       <r>  103.6635    0.0000 </r>
       <r>  104.3719    0.0000 </r>
       <r>  104.6100    0.0000 </r>
       <r>  105.5587    0.0000 </r>
       <r>  106.9130    0.0000 </r>
       <r>  107.6453    0.0000 </r>
       <r>  107.9782    0.0000 </r>
       <r>  108.5357    0.0000 </r>
       <r>  108.6775    0.0000 </r>
       <r>  109.8396    0.0000 </r>
       <r>  110.2877    0.0000 </r>
       <r>  111.6675    0.0000 </r>
       <r>  111.7352    0.0000 </r>
       <r>  112.1416    0.0000 </r>
       <r>  112.6890    0.0000 </r>
       <r>  113.8791    0.0000 </r>
       <r>  114.6737    0.0000 </r>
       <r>  114.9100    0.0000 </r>
       <r>  115.0435    0.0000 </r>
       <r>  115.7117    0.0000 </r>
       <r>  116.4608    0.0000 </r>
       <r>  117.7042    0.0000 </r>
       <r>  118.4909    0.0000 </r>
       <r>  118.8149    0.0000 </r>
       <r>  119.2015    0.0000 </r>
       <r>  119.8999    0.0000 </r>
       <r>  120.3827    0.0000 </r>
      </set>
      <set comment="kpoint 8">
       <r>   -4.1606    1.0000 </r>
       <r>   -1.4037    1.0000 </r>
       <r>    2.9191    1.0000 </r>
       <r>    4.0817    1.0000 </r>
       <r>    8.1947    0.0000 </r>
       <r>    9.7294    0.0000 </r>
       <r>   10.0930    0.0000 </r>
       <r>   14.4107    0.0000 </r>
       <r>   14.9391    0.0000 </r>
       <r>   15.2547    0.0000 </r>
       <r>   17.3779    0.0000 </r>
       <r>   19.6011    0.0000 </r>
       <r>   20.1854    0.0000 </r>
       <r>   20.9140    0.0000 </r>
       <r>   24.8678    0.0000 </r>
       <r>   26.7892    0.0000 </r>
       <r>   27.3676    0.0000 </r>
       <r>   27.6479    0.0000 </r>
       <r>   28.6894    0.0000 </r>
       <r>   28.9535    0.0000 </r>
       <r>   31.8674    0.0000 </r>
       <r>   32.8101    0.0000 </r>
       <r>   33.3753    0.0000 </r>
       <r>   34.6395    0.0000 </r>
       <r>   34.8259    0.0000 </r>
       <r>   36.1131    0.0000 </r>
       <r>   37.1264    0.0000 </r>
       <r>   37.8864    0.0000 </r>
       <r>   40.2048    0.0000 </r>
       <r>   41.0480    0.0000 </r>
       <r>   41.3312    0.0000 </r>
       <r>   42.6882    0.0000 </r>
       <r>   44.7246    0.0000 </r>
       <r>   44.8056    0.0000 </r>
       <r>   46.5089    0.0000 </r>
       <r>   48.1205    0.0000 </r>
       <r>   49.1239    0.0000 </r>
       <r>   51.6809    0.0000 </r>
       <r>   52.1410    0.0000 </r>
       <r>   53.6987    0.0000 </r>
       <r>   54.8549    0.0000 </r>
       <r>   54.8592    0.0000 </r>
       <r>   56.4295    0.0000 </r>
       <r>   57.0226    0.0000 </r>
       <r>   57.2148    0.0000 </r>
       <r>   57.9419    0.0000 </r>
       <r>   58.7784    0.0000 </r>
       <r>   61.0599    0.0000 </r>
       <r>   62.4320    0.0000 </r>
       <r>   62.6105    0.0000 </r>
       <r>   63.1635    0.0000 </r>
       <r>   64.7772    0.0000 </r>
       <r>   65.5839    0.0000 </r>
       <r>   65.8877    0.0000 </r>
       <r>   65.9248    0.0000 </r>
       <r>   67.0409    0.0000 </r>
       <r>   67.8296    0.0000 </r>
       <r>   69.5661    0.0000 </r>
       <r>   69.5674    0.0000 </r>
       <r>   70.8217    0.0000 </r>
       <r>   71.5893    0.0000 </r>
       <r>   71.6282    0.0000 </r>
       <r>   72.4513    0.0000 </r>
       <r>   73.4166    0.0000 </r>
       <r>   75.3622    0.0000 </r>
       <r>   75.3796    0.0000 </r>
       <r>   76.4505    0.0000 </r>
       <r>   77.0409    0.0000 </r>
       <r>   77.8493    0.0000 </r>
       <r>   77.9723    0.0000 </r>
       <r>   79.2584    0.0000 </r>
       <r>   79.7918    0.0000 </r>
       <r>   80.8482    0.0000 </r>
       <r>   81.1139    0.0000 </r>
       <r>   81.4815    0.0000 </r>
       <r>   82.0732    0.0000 </r>
       <r>   83.6044    0.0000 </r>
       <r>   84.6902    0.0000 </r>
       <r>   85.7117    0.0000 </r>
       <r>   86.7519    0.0000 </r>
       <r>   87.6846    0.0000 </r>
       <r>   88.1090    0.0000 </r>
       <r>   89.1049    0.0000 </r>
       <r>   90.0619    0.0000 </r>
       <r>   91.7612    0.0000 </r>
       <r>   92.6896    0.0000 </r>
       <r>   92.7137    0.0000 </r>
       <r>   94.0020    0.0000 </r>
       <r>   94.3157    0.0000 </r>
       <r>   95.0294    0.0000 </r>
       <r>   96.0649    0.0000 </r>
       <r>   97.1563    0.0000 </r>
       <r>   98.5530    0.0000 </r>
       <r>   99.2374    0.0000 </r>
       <r>   99.3705    0.0000 </r>
       <r>  100.1580    0.0000 </r>
       <r>  100.9375    0.0000 </r>
       <r>  101.2126    0.0000 </r>
       <r>  101.4398    0.0000 </r>
       <r>  102.6745    0.0000 </r>
       <r>  103.7419    0.0000 </r>
       <r>  104.3050    0.0000 </r>
       <r>  104.7535    0.0000 </r>
       <r>  105.9514    0.0000 </r>
       <r>  106.1475    0.0000 </r>
       <r>  106.2450    0.0000 </r>
       <r>  107.2401    0.0000 </r>
       <r>  107.4528    0.0000 </r>
       <r>  109.2931    0.0000 </r>
       <r>  109.5845    0.0000 </r>
       <r>  110.7835    0.0000 </r>
       <r>  110.8902    0.0000 </r>
       <r>  111.3007    0.0000 </r>
       <r>  112.2906    0.0000 </r>
       <r>  112.7614    0.0000 </r>
       <r>  113.0495    0.0000 </r>
       <r>  113.3899    0.0000 </r>
       <r>  113.8373    0.0000 </r>
       <r>  114.2699    0.0000 </r>
       <r>  114.5235    0.0000 </r>
       <r>  115.5505    0.0000 </r>
       <r>  115.9580    0.0000 </r>
       <r>  116.2993    0.0000 </r>
       <r>  119.1387    0.0000 </r>
       <r>  119.5273    0.0000 </r>
       <r>  119.5599    0.0000 </r>
       <r>  120.9742    0.0000 </r>
       <r>  121.9638    0.0000 </r>
      </set>
      <set comment="kpoint 9">
       <r>   -5.1297    1.0000 </r>
       <r>    0.2126    1.0000 </r>
       <r>    2.9208    1.0000 </r>
       <r>    4.6206    1.0000 </r>
       <r>    8.6221    0.0000 </r>
       <r>    9.8420    0.0000 </r>
       <r>    9.9221    0.0000 </r>
       <r>   12.8297    0.0000 </r>
       <r>   12.8363    0.0000 </r>
       <r>   16.1919    0.0000 </r>
       <r>   17.5780    0.0000 </r>
       <r>   18.6479    0.0000 </r>
       <r>   20.6626    0.0000 </r>
       <r>   22.5845    0.0000 </r>
       <r>   22.8609    0.0000 </r>
       <r>   24.3121    0.0000 </r>
       <r>   26.0308    0.0000 </r>
       <r>   28.7095    0.0000 </r>
       <r>   29.2229    0.0000 </r>
       <r>   30.1290    0.0000 </r>
       <r>   31.7674    0.0000 </r>
       <r>   33.1020    0.0000 </r>
       <r>   34.5419    0.0000 </r>
       <r>   35.8009    0.0000 </r>
       <r>   36.3158    0.0000 </r>
       <r>   37.3681    0.0000 </r>
       <r>   37.7068    0.0000 </r>
       <r>   39.5391    0.0000 </r>
       <r>   41.1250    0.0000 </r>
       <r>   41.5022    0.0000 </r>
       <r>   41.5666    0.0000 </r>
       <r>   43.9928    0.0000 </r>
       <r>   45.0166    0.0000 </r>
       <r>   45.6457    0.0000 </r>
       <r>   46.7227    0.0000 </r>
       <r>   47.1354    0.0000 </r>
       <r>   48.3401    0.0000 </r>
       <r>   49.6726    0.0000 </r>
       <r>   49.8407    0.0000 </r>
       <r>   51.9847    0.0000 </r>
       <r>   54.5602    0.0000 </r>
       <r>   54.7192    0.0000 </r>
       <r>   55.0249    0.0000 </r>
       <r>   55.8670    0.0000 </r>
       <r>   56.0294    0.0000 </r>
       <r>   57.4723    0.0000 </r>
       <r>   60.3541    0.0000 </r>
       <r>   60.4042    0.0000 </r>
       <r>   60.7656    0.0000 </r>
       <r>   62.2914    0.0000 </r>
       <r>   63.0109    0.0000 </r>
       <r>   63.1254    0.0000 </r>
       <r>   65.1126    0.0000 </r>
       <r>   65.2604    0.0000 </r>
       <r>   65.7654    0.0000 </r>
       <r>   67.4979    0.0000 </r>
       <r>   68.0864    0.0000 </r>
       <r>   68.7345    0.0000 </r>
       <r>   69.7855    0.0000 </r>
       <r>   70.4662    0.0000 </r>
       <r>   70.7523    0.0000 </r>
       <r>   71.7581    0.0000 </r>
       <r>   71.9251    0.0000 </r>
       <r>   73.6847    0.0000 </r>
       <r>   74.5053    0.0000 </r>
       <r>   75.3553    0.0000 </r>
       <r>   75.5527    0.0000 </r>
       <r>   77.0734    0.0000 </r>
       <r>   78.4372    0.0000 </r>
       <r>   78.6317    0.0000 </r>
       <r>   79.0679    0.0000 </r>
       <r>   81.6458    0.0000 </r>
       <r>   81.9052    0.0000 </r>
       <r>   82.3722    0.0000 </r>
       <r>   83.2753    0.0000 </r>
       <r>   84.4395    0.0000 </r>
       <r>   85.7387    0.0000 </r>
       <r>   86.8748    0.0000 </r>
       <r>   87.3883    0.0000 </r>
       <r>   88.1946    0.0000 </r>
       <r>   88.7249    0.0000 </r>
       <r>   89.0162    0.0000 </r>
       <r>   89.9298    0.0000 </r>
       <r>   90.4578    0.0000 </r>
       <r>   90.6683    0.0000 </r>
       <r>   93.1206    0.0000 </r>
       <r>   93.3080    0.0000 </r>
       <r>   95.2391    0.0000 </r>
       <r>   95.5970    0.0000 </r>
       <r>   96.0599    0.0000 </r>
       <r>   96.5624    0.0000 </r>
       <r>   97.4859    0.0000 </r>
       <r>   97.7851    0.0000 </r>
       <r>   98.2192    0.0000 </r>
       <r>   98.4483    0.0000 </r>
       <r>   99.0872    0.0000 </r>
       <r>   99.9244    0.0000 </r>
       <r>  100.5292    0.0000 </r>
       <r>  102.0121    0.0000 </r>
       <r>  102.2797    0.0000 </r>
       <r>  103.3884    0.0000 </r>
       <r>  103.4935    0.0000 </r>
       <r>  105.0821    0.0000 </r>
       <r>  106.0113    0.0000 </r>
       <r>  106.7932    0.0000 </r>
       <r>  107.2445    0.0000 </r>
       <r>  108.1805    0.0000 </r>
       <r>  108.3391    0.0000 </r>
       <r>  108.9636    0.0000 </r>
       <r>  109.4085    0.0000 </r>
       <r>  110.4791    0.0000 </r>
       <r>  110.8598    0.0000 </r>
       <r>  111.3508    0.0000 </r>
       <r>  111.5902    0.0000 </r>
       <r>  112.5641    0.0000 </r>
       <r>  112.5903    0.0000 </r>
       <r>  113.0257    0.0000 </r>
       <r>  113.3772    0.0000 </r>
       <r>  114.4671    0.0000 </r>
       <r>  114.6324    0.0000 </r>
       <r>  115.0548    0.0000 </r>
       <r>  115.8335    0.0000 </r>
       <r>  116.9183    0.0000 </r>
       <r>  117.4163    0.0000 </r>
       <r>  118.3178    0.0000 </r>
       <r>  119.1724    0.0000 </r>
       <r>  120.4281    0.0000 </r>
       <r>  120.9005    0.0000 </r>
      </set>
      <set comment="kpoint 10">
       <r>   -6.0726    1.0000 </r>
       <r>    2.4373    1.0000 </r>
       <r>    3.6324    1.0000 </r>
       <r>    5.2447    1.0000 </r>
       <r>    9.0342    0.0000 </r>
       <r>    9.1974    0.0000 </r>
       <r>    9.5189    0.0000 </r>
       <r>   11.7683    0.0000 </r>
       <r>   12.2597    0.0000 </r>
       <r>   14.7518    0.0000 </r>
       <r>   16.5088    0.0000 </r>
       <r>   17.6497    0.0000 </r>
       <r>   19.2531    0.0000 </r>
       <r>   21.7458    0.0000 </r>
       <r>   23.4181    0.0000 </r>
       <r>   25.2132    0.0000 </r>
       <r>   27.6394    0.0000 </r>
       <r>   27.6736    0.0000 </r>
       <r>   28.1920    0.0000 </r>
       <r>   29.8305    0.0000 </r>
       <r>   33.7559    0.0000 </r>
       <r>   33.9749    0.0000 </r>
       <r>   36.4890    0.0000 </r>
       <r>   36.6965    0.0000 </r>
       <r>   38.1063    0.0000 </r>
       <r>   38.9863    0.0000 </r>
       <r>   40.0493    0.0000 </r>
       <r>   40.5888    0.0000 </r>
       <r>   41.5708    0.0000 </r>
       <r>   41.8455    0.0000 </r>
       <r>   42.8046    0.0000 </r>
       <r>   43.0577    0.0000 </r>
       <r>   46.3299    0.0000 </r>
       <r>   46.4706    0.0000 </r>
       <r>   46.8493    0.0000 </r>
       <r>   48.2854    0.0000 </r>
       <r>   48.3941    0.0000 </r>
       <r>   49.2327    0.0000 </r>
       <r>   50.5162    0.0000 </r>
       <r>   51.5600    0.0000 </r>
       <r>   52.4669    0.0000 </r>
       <r>   52.8237    0.0000 </r>
       <r>   54.4114    0.0000 </r>
       <r>   54.4545    0.0000 </r>
       <r>   54.6175    0.0000 </r>
       <r>   55.9953    0.0000 </r>
       <r>   56.2581    0.0000 </r>
       <r>   56.6620    0.0000 </r>
       <r>   59.5536    0.0000 </r>
       <r>   60.6341    0.0000 </r>
       <r>   60.6565    0.0000 </r>
       <r>   61.4559    0.0000 </r>
       <r>   62.5928    0.0000 </r>
       <r>   64.2218    0.0000 </r>
       <r>   64.6616    0.0000 </r>
       <r>   65.1234    0.0000 </r>
       <r>   67.0932    0.0000 </r>
       <r>   67.3276    0.0000 </r>
       <r>   68.2776    0.0000 </r>
       <r>   70.6541    0.0000 </r>
       <r>   71.5765    0.0000 </r>
       <r>   71.6245    0.0000 </r>
       <r>   74.0447    0.0000 </r>
       <r>   75.2449    0.0000 </r>
       <r>   75.7238    0.0000 </r>
       <r>   76.2070    0.0000 </r>
       <r>   78.3300    0.0000 </r>
       <r>   79.1935    0.0000 </r>
       <r>   79.7707    0.0000 </r>
       <r>   79.9756    0.0000 </r>
       <r>   81.9968    0.0000 </r>
       <r>   82.6461    0.0000 </r>
       <r>   84.0158    0.0000 </r>
       <r>   84.9967    0.0000 </r>
       <r>   86.3830    0.0000 </r>
       <r>   86.8999    0.0000 </r>
       <r>   88.1120    0.0000 </r>
       <r>   88.4134    0.0000 </r>
       <r>   88.9887    0.0000 </r>
       <r>   89.7460    0.0000 </r>
       <r>   89.9285    0.0000 </r>
       <r>   89.9965    0.0000 </r>
       <r>   90.5478    0.0000 </r>
       <r>   92.6876    0.0000 </r>
       <r>   92.7976    0.0000 </r>
       <r>   94.3234    0.0000 </r>
       <r>   94.6537    0.0000 </r>
       <r>   94.7414    0.0000 </r>
       <r>   94.7602    0.0000 </r>
       <r>   94.9554    0.0000 </r>
       <r>   96.8403    0.0000 </r>
       <r>   96.9481    0.0000 </r>
       <r>   97.1988    0.0000 </r>
       <r>   97.5217    0.0000 </r>
       <r>   98.9785    0.0000 </r>
       <r>  100.0378    0.0000 </r>
       <r>  100.6404    0.0000 </r>
       <r>  100.7842    0.0000 </r>
       <r>  101.0845    0.0000 </r>
       <r>  101.7351    0.0000 </r>
       <r>  103.3106    0.0000 </r>
       <r>  103.8440    0.0000 </r>
       <r>  103.8466    0.0000 </r>
       <r>  104.0348    0.0000 </r>
       <r>  104.8282    0.0000 </r>
       <r>  105.6629    0.0000 </r>
       <r>  106.4252    0.0000 </r>
       <r>  106.7119    0.0000 </r>
       <r>  108.2528    0.0000 </r>
       <r>  108.9867    0.0000 </r>
       <r>  110.4462    0.0000 </r>
       <r>  110.4624    0.0000 </r>
       <r>  110.7363    0.0000 </r>
       <r>  111.0384    0.0000 </r>
       <r>  112.3230    0.0000 </r>
       <r>  112.3754    0.0000 </r>
       <r>  112.7558    0.0000 </r>
       <r>  113.4057    0.0000 </r>
       <r>  114.0578    0.0000 </r>
       <r>  114.2092    0.0000 </r>
       <r>  114.3601    0.0000 </r>
       <r>  115.9801    0.0000 </r>
       <r>  116.7576    0.0000 </r>
       <r>  116.8158    0.0000 </r>
       <r>  117.7954    0.0000 </r>
       <r>  117.9406    0.0000 </r>
       <r>  118.6541    0.0000 </r>
       <r>  119.1425    0.0000 </r>
      </set>
      <set comment="kpoint 11">
       <r>   -5.3343    1.0000 </r>
       <r>    1.3770    1.0000 </r>
       <r>    3.4250    1.0000 </r>
       <r>    3.4250    1.0000 </r>
       <r>    6.8065    0.0000 </r>
       <r>    8.5768    0.0000 </r>
       <r>   12.4785    0.0000 </r>
       <r>   12.4785    0.0000 </r>
       <r>   15.1727    0.0000 </r>
       <r>   15.4576    0.0000 </r>
       <r>   18.6446    0.0000 </r>
       <r>   19.8895    0.0000 </r>
       <r>   19.8895    0.0000 </r>
       <r>   20.6945    0.0000 </r>
       <r>   23.4049    0.0000 </r>
       <r>   23.4049    0.0000 </r>
       <r>   24.0205    0.0000 </r>
       <r>   26.6410    0.0000 </r>
       <r>   28.7844    0.0000 </r>
       <r>   32.7115    0.0000 </r>
       <r>   32.8250    0.0000 </r>
       <r>   33.9864    0.0000 </r>
       <r>   33.9864    0.0000 </r>
       <r>   35.8410    0.0000 </r>
       <r>   36.1422    0.0000 </r>
       <r>   36.1518    0.0000 </r>
       <r>   36.1518    0.0000 </r>
       <r>   42.6282    0.0000 </r>
       <r>   42.7511    0.0000 </r>
       <r>   43.8352    0.0000 </r>
       <r>   43.8352    0.0000 </r>
       <r>   44.4693    0.0000 </r>
       <r>   44.6921    0.0000 </r>
       <r>   44.6921    0.0000 </r>
       <r>   48.1256    0.0000 </r>
       <r>   48.1256    0.0000 </r>
       <r>   48.3208    0.0000 </r>
       <r>   49.0232    0.0000 </r>
       <r>   50.0673    0.0000 </r>
       <r>   50.9908    0.0000 </r>
       <r>   51.4643    0.0000 </r>
       <r>   51.4643    0.0000 </r>
       <r>   54.6713    0.0000 </r>
       <r>   55.6535    0.0000 </r>
       <r>   55.9246    0.0000 </r>
       <r>   55.9246    0.0000 </r>
       <r>   58.3008    0.0000 </r>
       <r>   60.3363    0.0000 </r>
       <r>   60.3363    0.0000 </r>
       <r>   60.4452    0.0000 </r>
       <r>   60.6587    0.0000 </r>
       <r>   60.8693    0.0000 </r>
       <r>   66.3854    0.0000 </r>
       <r>   67.0419    0.0000 </r>
       <r>   67.0420    0.0000 </r>
       <r>   68.9367    0.0000 </r>
       <r>   69.4848    0.0000 </r>
       <r>   69.7449    0.0000 </r>
       <r>   69.7449    0.0000 </r>
       <r>   72.4813    0.0000 </r>
       <r>   72.9400    0.0000 </r>
       <r>   72.9400    0.0000 </r>
       <r>   72.9931    0.0000 </r>
       <r>   74.4984    0.0000 </r>
       <r>   74.6301    0.0000 </r>
       <r>   76.1159    0.0000 </r>
       <r>   76.1159    0.0000 </r>
       <r>   78.2463    0.0000 </r>
       <r>   78.3566    0.0000 </r>
       <r>   79.3847    0.0000 </r>
       <r>   79.8968    0.0000 </r>
       <r>   79.8968    0.0000 </r>
       <r>   81.1911    0.0000 </r>
       <r>   81.1911    0.0000 </r>
       <r>   82.2087    0.0000 </r>
       <r>   82.4730    0.0000 </r>
       <r>   84.8778    0.0000 </r>
       <r>   85.0108    0.0000 </r>
       <r>   86.9825    0.0000 </r>
       <r>   86.9826    0.0000 </r>
       <r>   87.3128    0.0000 </r>
       <r>   89.4817    0.0000 </r>
       <r>   89.4817    0.0000 </r>
       <r>   90.8142    0.0000 </r>
       <r>   92.4796    0.0000 </r>
       <r>   92.4796    0.0000 </r>
       <r>   93.3668    0.0000 </r>
       <r>   95.3856    0.0000 </r>
       <r>   96.6467    0.0000 </r>
       <r>   97.0637    0.0000 </r>
       <r>   97.0637    0.0000 </r>
       <r>   97.7462    0.0000 </r>
       <r>   99.5073    0.0000 </r>
       <r>   99.5073    0.0000 </r>
       <r>  100.6753    0.0000 </r>
       <r>  101.5799    0.0000 </r>
       <r>  101.5799    0.0000 </r>
       <r>  101.8356    0.0000 </r>
       <r>  102.3595    0.0000 </r>
       <r>  102.4610    0.0000 </r>
       <r>  103.0226    0.0000 </r>
       <r>  105.5784    0.0000 </r>
       <r>  105.5785    0.0000 </r>
       <r>  105.6923    0.0000 </r>
       <r>  106.3477    0.0000 </r>
       <r>  106.4050    0.0000 </r>
       <r>  106.6474    0.0000 </r>
       <r>  106.7626    0.0000 </r>
       <r>  106.7627    0.0000 </r>
       <r>  106.9181    0.0000 </r>
       <r>  109.1421    0.0000 </r>
       <r>  109.1421    0.0000 </r>
       <r>  110.2068    0.0000 </r>
       <r>  110.2068    0.0000 </r>
       <r>  110.3515    0.0000 </r>
       <r>  110.9245    0.0000 </r>
       <r>  111.4034    0.0000 </r>
       <r>  111.5837    0.0000 </r>
       <r>  111.5837    0.0000 </r>
       <r>  112.0533    0.0000 </r>
       <r>  114.1203    0.0000 </r>
       <r>  114.1671    0.0000 </r>
       <r>  117.3209    0.0000 </r>
       <r>  117.3209    0.0000 </r>
       <r>  118.0173    0.0000 </r>
       <r>  118.5846    0.0000 </r>
       <r>  119.2717    0.0000 </r>
       <r>  119.2718    0.0000 </r>
[...]
        <r>  0.0161  0.0041  0.0021  0.0081  0.0000  0.0000  0.0000  0.0000  0.0000 </r>
       </set>
       <set comment="band 44">
        <r>  0.0191  0.0059  0.0036  0.0070  0.0000  0.0000  0.0000  0.0000  0.0000 </r>
        <r>  0.0191  0.0059  0.0036  0.0070  0.0000  0.0000  0.0000  0.0000  0.0000 </r>
       </set>
       <set comment="band 45">
        <r>  0.0040  0.0220  0.0009  0.0114  0.0000  0.0000  0.0000  0.0000  0.0000 </r>
        <r>  0.0040  0.0220  0.0009  0.0114  0.0000  0.0000  0.0000  0.0000  0.0000 </r>
       </set>
       <set comment="band 46">
        <r>  0.0045  0.0055  0.0294  0.0108  0.0000  0.0000  0.0000  0.0000  0.0000 </r>
        <r>  0.0045  0.0055  0.0294  0.0108  0.0000  0.0000  0.0000  0.0000  0.0000 </r>
       </set>
       <set comment="band 47">
        <r>  0.0181  0.0028  0.0012  0.0023  0.0000  0.0000  0.0000  0.0000  0.0000 </r>
        <r>  0.0181  0.0028  0.0012  0.0023  0.0000  0.0000  0.0000  0.0000  0.0000 </r>
       </set>
       <set comment="band 48">
        <r>  0.0126  0.0061  0.0154  0.0101  0.0000  0.0000  0.0000  0.0000  0.0000 </r>
        <r>  0.0126  0.0061  0.0154  0.0101  0.0000  0.0000  0.0000  0.0000  0.0000 </r>
       </set>
       <set comment="band 49">
        <r>  0.0175  0.0183  0.0112  0.0180  0.0000  0.0000  0.0000  0.0000  0.0000 </r>
        <r>  0.0175  0.0183  0.0112  0.0180  0.0000  0.0000  0.0000  0.0000  0.0000 </r>
       </set>
       <set comment="band 50">
        <r>  0.0140  0.0045  0.0023  0.0025  0.0000  0.0000  0.0000  0.0000  0.0000 </r>
        <r>  0.0140  0.0045  0.0023  0.0025  0.0000  0.0000  0.0000  0.0000  0.0000 </r>
       </set>
       <set comment="band 51">
        <r>  0.0194  0.0062  0.0122  0.0097  0.0000  0.0000  0.0000  0.0000  0.0000 </r>
        <r>  0.0194  0.0062  0.0122  0.0097  0.0000  0.0000  0.0000  0.0000  0.0000 </r>
       </set>
       <set comment="band 52">
        <r>  0.0007  0.0082  0.0033  0.0153  0.0000  0.0000  0.0000  0.0000  0.0000 </r>
        <r>  0.0007  0.0082  0.0033  0.0153  0.0000  0.0000  0.0000  0.0000  0.0000 </r>
       </set>
       <set comment="band 53">
        <r>  0.0028  0.0010  0.0020  0.0015  0.0000  0.0000  0.0000  0.0000  0.0000 </r>
        <r>  0.0028  0.0010  0.0020  0.0015  0.0000  0.0000  0.0000  0.0000  0.0000 </r>
       </set>
       <set comment="band 54">
        <r>  0.0049  0.0125  0.0014  0.0079  0.0000  0.0000  0.0000  0.0000  0.0000 </r>
        <r>  0.0049  0.0125  0.0014  0.0079  0.0000  0.0000  0.0000  0.0000  0.0000 </r>
       </set>
       <set comment="band 55">
        <r>  0.0006  0.0059  0.0008  0.0105  0.0000  0.0000  0.0000  0.0000  0.0000 </r>
        <r>  0.0006  0.0059  0.0008  0.0105  0.0000  0.0000  0.0000  0.0000  0.0000 </r>
       </set>
       <set comment="band 56">
        <r>  0.0117  0.0022  0.0007  0.0039  0.0000  0.0000  0.0000  0.0000  0.0000 </r>
        <r>  0.0117  0.0022  0.0007  0.0039  0.0000  0.0000  0.0000  0.0000  0.0000 </r>
       </set>
       <set comment="band 57">
        <r>  0.0054  0.0065  0.0016  0.0097  0.0000  0.0000  0.0000  0.0000  0.0000 </r>
        <r>  0.0054  0.0065  0.0016  0.0097  0.0000  0.0000  0.0000  0.0000  0.0000 </r>
       </set>
       <set comment="band 58">
        <r>  0.0013  0.0168  0.0060  0.0087  0.0000  0.0000  0.0000  0.0000  0.0000 </r>
        <r>  0.0013  0.0168  0.0060  0.0087  0.0000  0.0000  0.0000  0.0000  0.0000 </r>
       </set>
       <set comment="band 59">
        <r>  0.0029  0.0040  0.0628  0.0067  0.0000  0.0000  0.0000  0.0000  0.0000 </r>
        <r>  0.0029  0.0040  0.0628  0.0067  0.0000  0.0000  0.0000  0.0000  0.0000 </r>
       </set>
       <set comment="band 60">
        <r>  0.0194  0.0398  0.0120  0.0319  0.0000  0.0000  0.0000  0.0000  0.0000 </r>
        <r>  0.0194  0.0398  0.0120  0.0319  0.0000  0.0000  0.0000  0.0000  0.0000 </r>
       </set>
       <set comment="band 61">
        <r>  0.0801  0.0128  0.0007  0.0250  0.0000  0.0000  0.0000  0.0000  0.0000 </r>
        <r>  0.0801  0.0128  0.0007  0.0250  0.0000  0.0000  0.0000  0.0000  0.0000 </r>
       </set>
       <set comment="band 62">
        <r>  0.0083  0.0161  0.0055  0.0206  0.0000  0.0000  0.0000  0.0000  0.0000 </r>
        <r>  0.0083  0.0161  0.0055  0.0206  0.0000  0.0000  0.0000  0.0000  0.0000 </r>
       </set>
       <set comment="band 63">
        <r>  0.0304  0.0040  0.0091  0.0048  0.0000  0.0000  0.0000  0.0000  0.0000 </r>
        <r>  0.0304  0.0040  0.0091  0.0048  0.0000  0.0000  0.0000  0.0000  0.0000 </r>
       </set>
       <set comment="band 64">
        <r>  0.0182  0.0027  0.0000  0.0029  0.0000  0.0000  0.0000  0.0000  0.0000 </r>
        <r>  0.0182  0.0027  0.0000  0.0029  0.0000  0.0000  0.0000  0.0000  0.0000 </r>
       </set>
       <set comment="band 65">
        <r>  0.0095  0.0112  0.0213  0.0080  0.0000  0.0000  0.0000  0.0000  0.0000 </r>
        <r>  0.0095  0.0112  0.0213  0.0080  0.0000  0.0000  0.0000  0.0000  0.0000 </r>
       </set>
       <set comment="band 66">
        <r>  0.0012  0.0488  0.0036  0.0262  0.0000  0.0000  0.0000  0.0000  0.0000 </r>
        <r>  0.0012  0.0488  0.0036  0.0262  0.0000  0.0000  0.0000  0.0000  0.0000 </r>
       </set>
       <set comment="band 67">
        <r>  0.0006  0.0166  0.0003  0.0236  0.0000  0.0000  0.0000  0.0000  0.0000 </r>
        <r>  0.0006  0.0166  0.0003  0.0236  0.0000  0.0000  0.0000  0.0000  0.0000 </r>
       </set>
       <set comment="band 68">
        <r>  0.0052  0.0054  0.0205  0.0029  0.0000  0.0000  0.0000  0.0000  0.0000 </r>
        <r>  0.0052  0.0054  0.0205  0.0029  0.0000  0.0000  0.0000  0.0000  0.0000 </r>
       </set>
       <set comment="band 69">
        <r>  0.0222  0.0192  0.0166  0.0133  0.0000  0.0000  0.0000  0.0000  0.0000 </r>
        <r>  0.0222  0.0192  0.0166  0.0133  0.0000  0.0000  0.0000  0.0000  0.0000 </r>
       </set>
       <set comment="band 70">
        <r>  0.0004  0.0149  0.0173  0.0097  0.0000  0.0000  0.0000  0.0000  0.0000 </r>
        <r>  0.0004  0.0149  0.0173  0.0097  0.0000  0.0000  0.0000  0.0000  0.0000 </r>
       </set>
       <set comment="band 71">
        <r>  0.0054  0.0211  0.0200  0.0117  0.0000  0.0000  0.0000  0.0000  0.0000 </r>
        <r>  0.0054  0.0211  0.0200  0.0117  0.0000  0.0000  0.0000  0.0000  0.0000 </r>
       </set>
       <set comment="band 72">
        <r>  0.0234  0.0060  0.0095  0.0035  0.0000  0.0000  0.0000  0.0000  0.0000 </r>
        <r>  0.0234  0.0060  0.0095  0.0035  0.0000  0.0000  0.0000  0.0000  0.0000 </r>
       </set>
       <set comment="band 73">
        <r>  0.0012  0.0021  0.0205  0.0041  0.0000  0.0000  0.0000  0.0000  0.0000 </r>
        <r>  0.0012  0.0021  0.0205  0.0041  0.0000  0.0000  0.0000  0.0000  0.0000 </r>
       </set>
       <set comment="band 74">
        <r>  0.0107  0.0015  0.0619  0.0011  0.0000  0.0000  0.0000  0.0000  0.0000 </r>
        <r>  0.0107  0.0015  0.0619  0.0011  0.0000  0.0000  0.0000  0.0000  0.0000 </r>
       </set>
       <set comment="band 75">
        <r>  0.0592  0.0147  0.0072  0.0142  0.0000  0.0000  0.0000  0.0000  0.0000 </r>
        <r>  0.0591  0.0147  0.0072  0.0142  0.0000  0.0000  0.0000  0.0000  0.0000 </r>
       </set>
       <set comment="band 76">
        <r>  0.0449  0.0011  0.0011  0.0008  0.0000  0.0000  0.0000  0.0000  0.0000 </r>
        <r>  0.0449  0.0011  0.0011  0.0008  0.0000  0.0000  0.0000  0.0000  0.0000 </r>
       </set>
       <set comment="band 77">
        <r>  0.0041  0.0206  0.0023  0.0121  0.0000  0.0000  0.0000  0.0000  0.0000 </r>
        <r>  0.0041  0.0206  0.0023  0.0121  0.0000  0.0000  0.0000  0.0000  0.0000 </r>
       </set>
       <set comment="band 78">
        <r>  0.0006  0.0234  0.0085  0.0460  0.0000  0.0000  0.0000  0.0000  0.0000 </r>
        <r>  0.0006  0.0234  0.0085  0.0460  0.0000  0.0000  0.0000  0.0000  0.0000 </r>
       </set>
       <set comment="band 79">
        <r>  0.0051  0.0096  0.0018  0.0184  0.0000  0.0000  0.0000  0.0000  0.0000 </r>
        <r>  0.0051  0.0096  0.0018  0.0184  0.0000  0.0000  0.0000  0.0000  0.0000 </r>
       </set>
       <set comment="band 80">
        <r>  0.0077  0.0023  0.0114  0.0012  0.0000  0.0000  0.0000  0.0000  0.0000 </r>
        <r>  0.0077  0.0023  0.0114  0.0012  0.0000  0.0000  0.0000  0.0000  0.0000 </r>
       </set>
       <set comment="band 81">
        <r>  0.0003  0.0130  0.0008  0.0242  0.0000  0.0000  0.0000  0.0000  0.0000 </r>
        <r>  0.0003  0.0130  0.0008  0.0242  0.0000  0.0000  0.0000  0.0000  0.0000 </r>
       </set>
       <set comment="band 82">
        <r>  0.0098  0.0098  0.0103  0.0154  0.0000  0.0000  0.0000  0.0000  0.0000 </r>
        <r>  0.0098  0.0098  0.0103  0.0154  0.0000  0.0000  0.0000  0.0000  0.0000 </r>
       </set>
       <set comment="band 83">
        <r>  0.1344  0.0038  0.0055  0.0023  0.0000  0.0000  0.0000  0.0000  0.0000 </r>
        <r>  0.1344  0.0038  0.0055  0.0023  0.0000  0.0000  0.0000  0.0000  0.0000 </r>
       </set>
       <set comment="band 84">
        <r>  0.0021  0.0011  0.0463  0.0008  0.0000  0.0000  0.0000  0.0000  0.0000 </r>
        <r>  0.0021  0.0011  0.0463  0.0008  0.0000  0.0000  0.0000  0.0000  0.0000 </r>
       </set>
       <set comment="band 85">
        <r>  0.0129  0.0289  0.0002  0.0441  0.0000  0.0000  0.0000  0.0000  0.0000 </r>
        <r>  0.0129  0.0289  0.0002  0.0441  0.0000  0.0000  0.0000  0.0000  0.0000 </r>
       </set>
       <set comment="band 86">
        <r>  0.0108  0.0301  0.0016  0.0205  0.0000  0.0000  0.0000  0.0000  0.0000 </r>
        <r>  0.0108  0.0301  0.0016  0.0205  0.0000  0.0000  0.0000  0.0000  0.0000 </r>
       </set>
       <set comment="band 87">
        <r>  0.0935  0.0167  0.0165  0.0316  0.0000  0.0000  0.0000  0.0000  0.0000 </r>
        <r>  0.0935  0.0167  0.0165  0.0316  0.0000  0.0000  0.0000  0.0000  0.0000 </r>
       </set>
       <set comment="band 88">
        <r>  0.0076  0.0254  0.0160  0.0127  0.0000  0.0000  0.0000  0.0000  0.0000 </r>
        <r>  0.0076  0.0254  0.0160  0.0127  0.0000  0.0000  0.0000  0.0000  0.0000 </r>
       </set>
       <set comment="band 89">
        <r>  0.0505  0.0017  0.0333  0.0021  0.0000  0.0000  0.0000  0.0000  0.0000 </r>
        <r>  0.0505  0.0017  0.0333  0.0021  0.0000  0.0000  0.0000  0.0000  0.0000 </r>
       </set>
       <set comment="band 90">
        <r>  0.0003  0.0357  0.0022  0.0192  0.0000  0.0000  0.0000  0.0000  0.0000 </r>
        <r>  0.0003  0.0357  0.0022  0.0192  0.0000  0.0000  0.0000  0.0000  0.0000 </r>
       </set>
       <set comment="band 91">
        <r>  0.0295  0.0266  0.0024  0.0297  0.0000  0.0000  0.0000  0.0000  0.0000 </r>
        <r>  0.0295  0.0266  0.0024  0.0297  0.0000  0.0000  0.0000  0.0000  0.0000 </r>
       </set>
       <set comment="band 92">
        <r>  0.1053  0.0171  0.0601  0.0261  0.0000  0.0000  0.0000  0.0000  0.0000 </r>
        <r>  0.1053  0.0171  0.0601  0.0261  0.0000  0.0000  0.0000  0.0000  0.0000 </r>
       </set>
       <set comment="band 93">
        <r>  0.1010  0.0069  0.0425  0.0112  0.0000  0.0000  0.0000  0.0000  0.0000 </r>
        <r>  0.1010  0.0069  0.0425  0.0112  0.0000  0.0000  0.0000  0.0000  0.0000 </r>
       </set>
       <set comment="band 94">
        <r>  0.2003  0.0054  0.0092  0.0044  0.0000  0.0000  0.0000  0.0000  0.0000 </r>
        <r>  0.2003  0.0054  0.0092  0.0044  0.0000  0.0000  0.0000  0.0000  0.0000 </r>
       </set>
       <set comment="band 95">
        <r>  0.1013  0.0225  0.0304  0.0351  0.0000  0.0000  0.0000  0.0000  0.0000 </r>
        <r>  0.1013  0.0225  0.0304  0.0351  0.0000  0.0000  0.0000  0.0000  0.0000 </r>
       </set>
       <set comment="band 96">
        <r>  0.0169  0.0200  0.0009  0.0254  0.0000  0.0000  0.0000  0.0000  0.0000 </r>
        <r>  0.0169  0.0200  0.0009  0.0254  0.0000  0.0000  0.0000  0.0000  0.0000 </r>
       </set>
       <set comment="band 97">
        <r>  0.1367  0.0025  0.0324  0.0045  0.0000  0.0000  0.0000  0.0000  0.0000 </r>
        <r>  0.1367  0.0025  0.0324  0.0045  0.0000  0.0000  0.0000  0.0000  0.0000 </r>
       </set>
       <set comment="band 98">
        <r>  0.0525  0.0539  0.0001  0.0421  0.0000  0.0000  0.0000  0.0000  0.0000 </r>
        <r>  0.0525  0.0539  0.0001  0.0421  0.0000  0.0000  0.0000  0.0000  0.0000 </r>
       </set>
       <set comment="band 99">
        <r>  0.1868  0.0021  0.0021  0.0033  0.0000  0.0000  0.0000  0.0000  0.0000 </r>
        <r>  0.1868  0.0021  0.0021  0.0033  0.0000  0.0000  0.0000  0.0000  0.0000 </r>
       </set>
       <set comment="band 100">
        <r>  0.1938  0.0134  0.0306  0.0250  0.0000  0.0000  0.0000  0.0000  0.0000 </r>
        <r>  0.1938  0.0134  0.0306  0.0250  0.0000  0.0000  0.0000  0.0000  0.0000 </r>
       </set>
       <set comment="band 101">
        <r>  0.0808  0.0147  0.0007  0.0087  0.0000  0.0000  0.0000  0.0000  0.0000 </r>
        <r>  0.0808  0.0147  0.0007  0.0087  0.0000  0.0000  0.0000  0.0000  0.0000 </r>
       </set>
       <set comment="band 102">
        <r>  0.0059  0.0667  0.0003  0.0412  0.0000  0.0000  0.0000  0.0000  0.0000 </r>
        <r>  0.0059  0.0667  0.0003  0.0412  0.0000  0.0000  0.0000  0.0000  0.0000 </r>
       </set>
       <set comment="band 103">
        <r>  0.1975  0.0823  0.0346  0.0523  0.0000  0.0000  0.0000  0.0000  0.0000 </r>
        <r>  0.1975  0.0823  0.0346  0.0523  0.0000  0.0000  0.0000  0.0000  0.0000 </r>
       </set>
       <set comment="band 104">
        <r>  0.0128  0.0214  0.2413  0.0257  0.0000  0.0000  0.0000  0.0000  0.0000 </r>
        <r>  0.0128  0.0214  0.2413  0.0257  0.0000  0.0000  0.0000  0.0000  0.0000 </r>
       </set>
       <set comment="band 105">
        <r>  0.0117  0.0281  0.0102  0.0403  0.0000  0.0000  0.0000  0.0000  0.0000 </r>
        <r>  0.0117  0.0281  0.0102  0.0403  0.0000  0.0000  0.0000  0.0000  0.0000 </r>
       </set>
       <set comment="band 106">
        <r>  0.0966  0.0000  0.0722  0.0000  0.0000  0.0000  0.0000  0.0000  0.0000 </r>
        <r>  0.0966  0.0000  0.0722  0.0000  0.0000  0.0000  0.0000  0.0000  0.0000 </r>
       </set>
       <set comment="band 107">
        <r>  0.0680  0.0729  0.1560  0.0465  0.0000  0.0000  0.0000  0.0000  0.0000 </r>
        <r>  0.0680  0.0729  0.1560  0.0465  0.0000  0.0000  0.0000  0.0000  0.0000 </r>
       </set>
       <set comment="band 108">
        <r>  0.3136  0.0371  0.0129  0.0660  0.0000  0.0000  0.0000  0.0000  0.0000 </r>
        <r>  0.3119  0.0372  0.0129  0.0661  0.0000  0.0000  0.0000  0.0000  0.0000 </r>
       </set>
       <set comment="band 109">
        <r>  1.0835  0.0250  0.0002  0.0343  0.0000  0.0000  0.0000  0.0000  0.0000 </r>
        <r>  1.0853  0.0249  0.0002  0.0341  0.0000  0.0000  0.0000  0.0000  0.0000 </r>
       </set>
       <set comment="band 110">
        <r>  0.0012  0.0014  0.0869  0.0010  0.0000  0.0000  0.0000  0.0000  0.0000 </r>
        <r>  0.0012  0.0014  0.0869  0.0010  0.0000  0.0000  0.0000  0.0000  0.0000 </r>
       </set>
       <set comment="band 111">
        <r>  0.1368  0.0356  0.0002  0.0690  0.0000  0.0000  0.0000  0.0000  0.0000 </r>
        <r>  0.1368  0.0356  0.0002  0.0690  0.0000  0.0000  0.0000  0.0000  0.0000 </r>
       </set>
       <set comment="band 112">
        <r>  0.2752  0.0651  0.0774  0.0331  0.0000  0.0000  0.0000  0.0000  0.0000 </r>
        <r>  0.2752  0.0651  0.0774  0.0331  0.0000  0.0000  0.0000  0.0000  0.0000 </r>
       </set>
       <set comment="band 113">
        <r>  0.0012  0.1318  0.0149  0.0700  0.0000  0.0000  0.0000  0.0000  0.0000 </r>
        <r>  0.0012  0.1317  0.0149  0.0700  0.0000  0.0000  0.0000  0.0000  0.0000 </r>
       </set>
       <set comment="band 114">
        <r>  0.3512  0.0717  0.1845  0.0438  0.0000  0.0000  0.0000  0.0000  0.0000 </r>
        <r>  0.3512  0.0717  0.1845  0.0438  0.0000  0.0000  0.0000  0.0000  0.0000 </r>
       </set>
       <set comment="band 115">
        <r>  1.4601  0.0222  0.0003  0.0220  0.0000  0.0000  0.0000  0.0000  0.0000 </r>
        <r>  1.4600  0.0222  0.0003  0.0220  0.0000  0.0000  0.0000  0.0000  0.0000 </r>
       </set>
       <set comment="band 116">
        <r>  0.1167  0.1157  0.0024  0.1167  0.0000  0.0000  0.0000  0.0000  0.0000 </r>
        <r>  0.1168  0.1157  0.0024  0.1167  0.0000  0.0000  0.0000  0.0000  0.0000 </r>
       </set>
       <set comment="band 117">
        <r>  0.1709  0.0421  0.0012  0.0215  0.0000  0.0000  0.0000  0.0000  0.0000 </r>
        <r>  0.1709  0.0421  0.0012  0.0215  0.0000  0.0000  0.0000  0.0000  0.0000 </r>
       </set>
       <set comment="band 118">
        <r>  0.0003  0.0598  0.0529  0.1071  0.0000  0.0000  0.0000  0.0000  0.0000 </r>
        <r>  0.0003  0.0598  0.0529  0.1071  0.0000  0.0000  0.0000  0.0000  0.0000 </r>
       </set>
       <set comment="band 119">
        <r>  0.0187  0.0077  0.1246  0.0153  0.0000  0.0000  0.0000  0.0000  0.0000 </r>
        <r>  0.0187  0.0077  0.1246  0.0153  0.0000  0.0000  0.0000  0.0000  0.0000 </r>
       </set>
       <set comment="band 120">
        <r>  0.3191  0.0812  0.0499  0.1103  0.0000  0.0000  0.0000  0.0000  0.0000 </r>
        <r>  0.3191  0.0812  0.0499  0.1103  0.0000  0.0000  0.0000  0.0000  0.0000 </r>
       </set>
       <set comment="band 121">
        <r>  0.1984  0.0268  0.0361  0.0139  0.0000  0.0000  0.0000  0.0000  0.0000 </r>
        <r>  0.1983  0.0268  0.0360  0.0139  0.0000  0.0000  0.0000  0.0000  0.0000 </r>
       </set>
       <set comment="band 122">
        <r>  0.5482  0.0301  0.0827  0.0549  0.0000  0.0000  0.0000  0.0000  0.0000 </r>
        <r>  0.5482  0.0300  0.0827  0.0550  0.0000  0.0000  0.0000  0.0000  0.0000 </r>
       </set>
       <set comment="band 123">
        <r>  0.0116  0.1753  0.0285  0.0885  0.0000  0.0000  0.0000  0.0000  0.0000 </r>
        <r>  0.0116  0.1753  0.0285  0.0885  0.0000  0.0000  0.0000  0.0000  0.0000 </r>
       </set>
       <set comment="band 124">
        <r>  0.1993  0.0926  0.0284  0.0979  0.0000  0.0000  0.0000  0.0000  0.0000 </r>
        <r>  0.1994  0.0926  0.0284  0.0979  0.0000  0.0000  0.0000  0.0000  0.0000 </r>
       </set>
       <set comment="band 125">
        <r>  0.0769  0.0190  0.1677  0.0415  0.0000  0.0000  0.0000  0.0000  0.0000 </r>
        <r>  0.0767  0.0190  0.1677  0.0415  0.0000  0.0000  0.0000  0.0000  0.0000 </r>
       </set>
       <set comment="band 126">
        <r>  0.0765  0.0158  0.0289  0.0080  0.0000  0.0000  0.0000  0.0000  0.0000 </r>
        <r>  0.0766  0.0158  0.0288  0.0080  0.0000  0.0000  0.0000  0.0000  0.0000 </r>
       </set>
       <set comment="band 127">
        <r>  0.0183  0.0305  0.0075  0.0654  0.0000  0.0000  0.0000  0.0000  0.0000 </r>
        <r>  0.0184  0.0305  0.0076  0.0655  0.0000  0.0000  0.0000  0.0000  0.0000 </r>
       </set>
       <set comment="band 128">
        <r>  0.3568  0.0457  0.0892  0.0271  0.0000  0.0000  0.0000  0.0000  0.0000 </r>
        <r>  0.3568  0.0457  0.0893  0.0272  0.0000  0.0000  0.0000  0.0000  0.0000 </r>
       </set>
      </set>
     </set>
    </set>
   </array>
  </projected>
 </calculation>
 <structure name="finalpos" >
  <crystal>
   <varray name="basis" >
    <v>       3.33357300       0.00000000       1.92463900 </v>
    <v>       1.11119100       3.14292400       1.92463900 </v>
    <v>       0.00000000       0.00000000       3.84927800 </v>
   </varray>
   <i name="volume">     40.32952685 </i>
   <varray name="rec_basis" >
    <v>       0.29997843      -0.10605835       0.00000000 </v>
    <v>       0.00000000       0.31817505       0.00000000 </v>
    <v>      -0.14998922      -0.10605835       0.25978898 </v>
   </varray>
  </crystal>
  <varray name="positions" >
   <v>       0.87500000       0.87500000       0.87500000 </v>
   <v>       0.12500000       0.12500000       0.12500000 </v>
  </varray>
 </structure>
</modeling>
