 vasp.6.2.1 16May21 (build Oct 27 2021 18:14:32) complex                        
  
 executed on             LinuxIFC date 2021.11.23  17:32:31
 running on    4 total cores
 distrk:  each k-point on    4 cores,    1 groups
 distr:  one band on NCORE=   1 cores,    4 groups


--------------------------------------------------------------------------------------------------------


 INCAR:
   ALGO = Normal
   EDIFF = 1e-07
   EDIFFG = -0.02
   ENAUG = 1360.0
   ENCUT = 700
   IBRION = 6
   ISIF = 2
   ISMEAR = 0
   ISPIN = 1
   KSPACING = 0.26650686440333105
   LAECHG = False
   LASPH = True
   LCHARG = False
   LELF = True
   LMIXTAU = True
   LORBIT = 11
   LREAL = False
   LVTOT = True
   LWAVE = False
   MAGMOM = 2*-0.0
   NELM = 200
   NSW = 1
   PHON_LMC = True
   PHON_NSTRUCT = 0
   PHON_NTLIST = 2
   PHON_TLIST = 0 100
   PREC = Accurate
   SIGMA = 0.05

 POTCAR:    PAW_PBE Si 05Jan2001                  
 WARNING: For LVTOT=.TRUE., VASP.5.x writes the TOTAL local potential to the
     file LOCPOT. If you want only the Hartree contributions, use LVHAR=.TRUE.
     instead. 

 POTCAR:    PAW_PBE Si 05Jan2001                  
   VRHFIN =Si: s2p2                                                                                 
   LEXCH  = PE                                                                                      
   EATOM  =   103.0669 eV,    7.5752 Ry                                                             
                                                                                                    
   TITEL  = PAW_PBE Si 05Jan2001                                                                    
   LULTRA =        F    use ultrasoft PP ?                                                          
   IUNSCR =        1    unscreen: 0-lin 1-nonlin 2-no                                               
   RPACOR =    1.500    partial core radius                                                         
   POMASS =   28.085; ZVAL   =    4.000    mass and valenz                                          
   RCORE  =    1.900    outmost cutoff radius                                                       
   RWIGS  =    2.480; RWIGS  =    1.312    wigner-seitz radius (au A)                               
   ENMAX  =  245.345; ENMIN  =  184.009 eV                                                          
   ICORE  =        2    local potential                                                             
   LCOR   =        T    correct aug charges                                                         
   LPAW   =        T    paw PP                                                                      
   EAUG   =  322.069                                                                                
   DEXC   =    0.000                                                                                
   RMAX   =    1.950    core radius for proj-oper                                                   
   RAUG   =    1.300    factor for augmentation sphere                                              
   RDEP   =    1.993    radius for radial grids                                                     
   RDEPT  =    1.837    core radius for aug-charge                                                  
                                                                                                    
   Atomic configuration                                                                             
    6 entries                                                                                       
     n  l   j            E        occ.                                                              
     1  0  0.50     -1785.8828   2.0000                                                             
     2  0  0.50      -139.4969   2.0000                                                             
     2  1  1.50       -95.5546   6.0000                                                             
     3  0  0.50       -10.8127   2.0000                                                             
     3  1  0.50        -4.0811   2.0000                                                             
     3  2  1.50        -4.0817   0.0000                                                             
   Description                                                                                      
     l       E           TYP  RCUT    TYP  RCUT                                                     
     0    -10.8127223     23  1.900                                                                 
     0     -7.6451159     23  1.900                                                                 
     1     -4.0811372     23  1.900                                                                 
     1      2.4879257     23  1.900                                                                 
     2     -4.0817478      7  1.900                                                                 
  local pseudopotential read in
  partial core-charges read in
  partial kinetic energy density read in
  atomic valenz-charges read in
  non local Contribution for L=           0  read in
    real space projection operators read in
  non local Contribution for L=           0  read in
    real space projection operators read in
  non local Contribution for L=           1  read in
    real space projection operators read in
  non local Contribution for L=           1  read in
    real space projection operators read in
    PAW grid and wavefunctions read in
 
   number of l-projection  operators is LMAX  =           4
   number of lm-projection operators is LMMAX =           8
 
  PAW_PBE Si 05Jan2001                  :
 energy of atom  1       EATOM= -103.0669
 kinetic energy error for atom=    0.0003 (will be added to EATOM!!)
 
 
 POSCAR: Si2
  positions in direct lattice
  No initial velocities read in
 exchange correlation table for  LEXCH =        8
   RHO(1)=    0.500       N(1)  =     2000
   RHO(2)=  100.500       N(2)  =     4000
 


--------------------------------------------------------------------------------------------------------


 ion  position               nearest neighbor table
   1  0.250  0.250  0.250-   2 2.37   2 2.37   2 2.37   2 2.37
   2  0.000  0.000  0.000-   1 2.37   1 2.37   1 2.37   1 2.37
 
  LATTYP: Found a face centered cubic cell.
 ALAT       =     5.4687280757
  
  Lattice vectors:
  
 A1 = (   3.3488980000,   0.0000000000,   1.9334870000)
 A2 = (   1.1162990000,   3.1573720000,   1.9334870000)
 A3 = (   0.0000000000,   0.0000000000,   3.8669750000)


Analysis of symmetry for initial positions (statically):
=====================================================================
 Subroutine PRICEL returns:
 Original cell was already a primitive cell.
 

 Routine SETGRP: Setting up the symmetry group for a 
 face centered cubic supercell.


 Subroutine GETGRP returns: Found 48 space group operations
 (whereof 24 operations were pure point group operations)
 out of a pool of 48 trial point group operations.


The static configuration has the point symmetry T_d .
 The point group associated with its full space group is O_h .


Analysis of symmetry for dynamics (positions and initial velocities):
=====================================================================
 Subroutine PRICEL returns:
 Original cell was already a primitive cell.
 

 Routine SETGRP: Setting up the symmetry group for a 
 face centered cubic supercell.


 Subroutine GETGRP returns: Found 48 space group operations
 (whereof 24 operations were pure point group operations)
 out of a pool of 48 trial point group operations.


The dynamic configuration has the point symmetry T_d .
 The point group associated with its full space group is O_h .


 Subroutine INISYM returns: Found 48 space group operations
 (whereof 24 operations are pure point group operations),
 and found     1 'primitive' translations


----------------------------------------------------------------------------------------

                                     Primitive cell                                     

  volume of cell :      40.8883

  direct lattice vectors                    reciprocal lattice vectors
     3.348898000  0.000000000  1.933487000     0.298605691 -0.105573000  0.000000000
     1.116299000  3.157372000  1.933487000     0.000000000  0.316719094  0.000000000
     0.000000000  0.000000000  3.866975000    -0.149302807 -0.105573020  0.258600069

  length of vectors
     3.866974243  3.866974707  3.866975000     0.316719145  0.316719094  0.316719096

  position of ions in fractional coordinates (direct lattice)
     0.250000000  0.250000000  0.250000000
     0.000000000  0.000000000  0.000000000

  ion indices of the primitive-cell ions
   primitive index   ion index
                 1           1
                 2           2

----------------------------------------------------------------------------------------

 
 
 KPOINTS: pymatgen with grid density = 607 / numbe

Automatic generation of k-mesh.
 Grid dimensions read from file:
 generate k-points for:    6    6    6

 Generating k-lattice:

  Cartesian coordinates                     Fractional coordinates (reciprocal lattice)
     0.049767615 -0.017595500  0.000000000     0.166666667 -0.000000000  0.000000000
     0.000000000  0.052786516  0.000000000     0.000000000  0.166666667  0.000000000
    -0.024883801 -0.017595503  0.043100011     0.000000000  0.000000000  0.166666667

  Length of vectors
     0.052786524  0.052786516  0.052786516

  Shift w.r.t. Gamma in fractional coordinates (k-lattice)
     0.000000000  0.000000000  0.000000000

 
 Subroutine IBZKPT returns following result:
 ===========================================
 
 Found     16 irreducible k-points:
 
 Following reciprocal coordinates:
            Coordinates               Weight
  0.000000  0.000000  0.000000      1.000000
  0.166667  0.000000  0.000000      8.000000
  0.333333  0.000000  0.000000      8.000000
  0.500000  0.000000  0.000000      4.000000
  0.166667  0.166667  0.000000      6.000000
  0.333333  0.166667  0.000000     24.000000
  0.500000  0.166667  0.000000     24.000000
 -0.333333  0.166667  0.000000     24.000000
 -0.166667  0.166667  0.000000     12.000000
  0.333333  0.333333  0.000000      6.000000
  0.500000  0.333333  0.000000     24.000000
 -0.333333  0.333333  0.000000     12.000000
  0.500000  0.500000  0.000000      3.000000
  0.500000  0.333333  0.166667     24.000000
 -0.333333  0.333333  0.166667     24.000000
 -0.333333  0.500000  0.166667     12.000000
 
 Following cartesian coordinates:
            Coordinates               Weight
  0.000000  0.000000  0.000000      1.000000
  0.049768 -0.017595  0.000000      8.000000
  0.099535 -0.035191  0.000000      8.000000
  0.149303 -0.052786  0.000000      4.000000
  0.049768  0.035191  0.000000      6.000000
  0.099535  0.017596  0.000000     24.000000
  0.149303  0.000000  0.000000     24.000000
 -0.099535  0.087978  0.000000     24.000000
 -0.049768  0.070382  0.000000     12.000000
  0.099535  0.070382  0.000000      6.000000
  0.149303  0.052787  0.000000     24.000000
 -0.099535  0.140764  0.000000     12.000000
  0.149303  0.105573  0.000000      3.000000
  0.124419  0.035191  0.043100     24.000000
 -0.124419  0.123169  0.043100     24.000000
 -0.124419  0.175955  0.043100     12.000000
 
 
 Subroutine IBZKPT_HF returns following result:
 ==============================================
 
 Found    216 k-points in 1st BZ
 the following    216 k-points will be used (e.g. in the exchange kernel)
 Following reciprocal coordinates:   # in IRBZ
  0.000000  0.000000  0.000000    0.00462963   1 t-inv F
  0.166667  0.000000  0.000000    0.00462963   2 t-inv F
  0.333333  0.000000  0.000000    0.00462963   3 t-inv F
  0.500000  0.000000  0.000000    0.00462963   4 t-inv F
  0.166667  0.166667  0.000000    0.00462963   5 t-inv F
  0.333333  0.166667  0.000000    0.00462963   6 t-inv F
  0.500000  0.166667  0.000000    0.00462963   7 t-inv F
 -0.333333  0.166667  0.000000    0.00462963   8 t-inv F
 -0.166667  0.166667  0.000000    0.00462963   9 t-inv F
  0.333333  0.333333  0.000000    0.00462963  10 t-inv F
  0.500000  0.333333  0.000000    0.00462963  11 t-inv F
 -0.333333  0.333333  0.000000    0.00462963  12 t-inv F
  0.500000  0.500000  0.000000    0.00462963  13 t-inv F
  0.500000  0.333333  0.166667    0.00462963  14 t-inv F
 -0.333333  0.333333  0.166667    0.00462963  15 t-inv F
 -0.333333  0.500000  0.166667    0.00462963  16 t-inv F
  0.000000  0.166667  0.000000    0.00462963   2 t-inv F
  0.000000  0.000000  0.166667    0.00462963   2 t-inv F
 -0.166667 -0.166667 -0.166667    0.00462963   2 t-inv F
 -0.166667 -0.000000  0.000000    0.00462963   2 t-inv F
  0.000000 -0.166667 -0.000000    0.00462963   2 t-inv F
 -0.000000  0.000000 -0.166667    0.00462963   2 t-inv F
  0.166667  0.166667  0.166667    0.00462963   2 t-inv F
  0.000000  0.333333  0.000000    0.00462963   3 t-inv F
  0.000000  0.000000  0.333333    0.00462963   3 t-inv F
 -0.333333 -0.333333 -0.333333    0.00462963   3 t-inv F
 -0.333333 -0.000000  0.000000    0.00462963   3 t-inv F
  0.000000 -0.333333 -0.000000    0.00462963   3 t-inv F
 -0.000000  0.000000 -0.333333    0.00462963   3 t-inv F
  0.333333  0.333333  0.333333    0.00462963   3 t-inv F
  0.000000  0.500000  0.000000    0.00462963   4 t-inv F
  0.000000  0.000000  0.500000    0.00462963   4 t-inv F
 -0.500000 -0.500000 -0.500000    0.00462963   4 t-inv F
  0.000000  0.166667  0.166667    0.00462963   5 t-inv F
  0.166667  0.000000  0.166667    0.00462963   5 t-inv F
 -0.166667 -0.166667  0.000000    0.00462963   5 t-inv F
 -0.166667 -0.000000 -0.166667    0.00462963   5 t-inv F
  0.000000 -0.166667 -0.166667    0.00462963   5 t-inv F
  0.000000  0.333333  0.166667    0.00462963   6 t-inv F
  0.166667  0.000000  0.333333    0.00462963   6 t-inv F
 -0.166667 -0.166667  0.166667    0.00462963   6 t-inv F
 -0.333333 -0.166667 -0.333333    0.00462963   6 t-inv F
  0.166667  0.333333  0.000000    0.00462963   6 t-inv F
  0.166667 -0.166667 -0.166667    0.00462963   6 t-inv F
 -0.333333 -0.333333 -0.166667    0.00462963   6 t-inv F
  0.000000  0.166667  0.333333    0.00462963   6 t-inv F
 -0.166667  0.166667 -0.166667    0.00462963   6 t-inv F
 -0.166667 -0.333333 -0.333333    0.00462963   6 t-inv F
  0.333333  0.000000  0.166667    0.00462963   6 t-inv F
 -0.333333 -0.166667  0.000000    0.00462963   6 t-inv F
  0.000000 -0.333333 -0.166667    0.00462963   6 t-inv F
 -0.166667  0.000000 -0.333333    0.00462963   6 t-inv F
  0.166667  0.166667 -0.166667    0.00462963   6 t-inv F
  0.333333  0.166667  0.333333    0.00462963   6 t-inv F
 -0.166667 -0.333333  0.000000    0.00462963   6 t-inv F
 -0.166667  0.166667  0.166667    0.00462963   6 t-inv F
  0.333333  0.333333  0.166667    0.00462963   6 t-inv F
  0.000000 -0.166667 -0.333333    0.00462963   6 t-inv F
  0.166667 -0.166667  0.166667    0.00462963   6 t-inv F
  0.166667  0.333333  0.333333    0.00462963   6 t-inv F
 -0.333333  0.000000 -0.166667    0.00462963   6 t-inv F
  0.000000  0.500000  0.166667    0.00462963   7 t-inv F
  0.166667  0.000000  0.500000    0.00462963   7 t-inv F
 -0.166667 -0.166667  0.333333    0.00462963   7 t-inv F
 -0.500000 -0.333333 -0.500000    0.00462963   7 t-inv F
  0.166667  0.500000  0.000000    0.00462963   7 t-inv F
  0.333333 -0.166667 -0.166667    0.00462963   7 t-inv F
 -0.500000 -0.500000 -0.333333    0.00462963   7 t-inv F
  0.000000  0.166667  0.500000    0.00462963   7 t-inv F
 -0.166667  0.333333 -0.166667    0.00462963   7 t-inv F
 -0.333333 -0.500000 -0.500000    0.00462963   7 t-inv F
  0.500000  0.000000  0.166667    0.00462963   7 t-inv F
 -0.500000 -0.166667  0.000000    0.00462963   7 t-inv F
  0.000000 -0.500000 -0.166667    0.00462963   7 t-inv F
 -0.166667  0.000000 -0.500000    0.00462963   7 t-inv F
  0.166667  0.166667 -0.333333    0.00462963   7 t-inv F
  0.500000  0.333333  0.500000    0.00462963   7 t-inv F
 -0.166667 -0.500000  0.000000    0.00462963   7 t-inv F
 -0.333333  0.166667  0.166667    0.00462963   7 t-inv F
  0.500000  0.500000  0.333333    0.00462963   7 t-inv F
  0.000000 -0.166667 -0.500000    0.00462963   7 t-inv F
  0.166667 -0.333333  0.166667    0.00462963   7 t-inv F
  0.333333  0.500000  0.500000    0.00462963   7 t-inv F
 -0.500000  0.000000 -0.166667    0.00462963   7 t-inv F
  0.000000 -0.333333  0.166667    0.00462963   8 t-inv F
  0.166667  0.000000 -0.333333    0.00462963   8 t-inv F
 -0.166667 -0.166667 -0.500000    0.00462963   8 t-inv F
  0.333333  0.500000  0.333333    0.00462963   8 t-inv F
  0.166667 -0.333333  0.000000    0.00462963   8 t-inv F
 -0.500000 -0.166667 -0.166667    0.00462963   8 t-inv F
  0.333333  0.333333  0.500000    0.00462963   8 t-inv F
  0.000000  0.166667 -0.333333    0.00462963   8 t-inv F
 -0.166667 -0.500000 -0.166667    0.00462963   8 t-inv F
  0.500000  0.333333  0.333333    0.00462963   8 t-inv F
 -0.333333  0.000000  0.166667    0.00462963   8 t-inv F
  0.333333 -0.166667  0.000000    0.00462963   8 t-inv F
  0.000000  0.333333 -0.166667    0.00462963   8 t-inv F
 -0.166667  0.000000  0.333333    0.00462963   8 t-inv F
  0.166667  0.166667  0.500000    0.00462963   8 t-inv F
 -0.333333 -0.500000 -0.333333    0.00462963   8 t-inv F
 -0.166667  0.333333  0.000000    0.00462963   8 t-inv F
  0.500000  0.166667  0.166667    0.00462963   8 t-inv F
 -0.333333 -0.333333 -0.500000    0.00462963   8 t-inv F
  0.000000 -0.166667  0.333333    0.00462963   8 t-inv F
  0.166667  0.500000  0.166667    0.00462963   8 t-inv F
 -0.500000 -0.333333 -0.333333    0.00462963   8 t-inv F
  0.333333  0.000000 -0.166667    0.00462963   8 t-inv F
  0.000000 -0.166667  0.166667    0.00462963   9 t-inv F
  0.166667  0.000000 -0.166667    0.00462963   9 t-inv F
 -0.166667 -0.166667 -0.333333    0.00462963   9 t-inv F
  0.166667  0.333333  0.166667    0.00462963   9 t-inv F
  0.166667 -0.166667  0.000000    0.00462963   9 t-inv F
 -0.333333 -0.166667 -0.166667    0.00462963   9 t-inv F
  0.166667  0.166667  0.333333    0.00462963   9 t-inv F
  0.000000  0.166667 -0.166667    0.00462963   9 t-inv F
 -0.166667 -0.333333 -0.166667    0.00462963   9 t-inv F
  0.333333  0.166667  0.166667    0.00462963   9 t-inv F
 -0.166667  0.000000  0.166667    0.00462963   9 t-inv F
  0.000000  0.333333  0.333333    0.00462963  10 t-inv F
  0.333333  0.000000  0.333333    0.00462963  10 t-inv F
 -0.333333 -0.333333  0.000000    0.00462963  10 t-inv F
 -0.333333  0.000000 -0.333333    0.00462963  10 t-inv F
  0.000000 -0.333333 -0.333333    0.00462963  10 t-inv F
  0.000000  0.500000  0.333333    0.00462963  11 t-inv F
  0.333333  0.000000  0.500000    0.00462963  11 t-inv F
 -0.333333 -0.333333  0.166667    0.00462963  11 t-inv F
 -0.500000 -0.166667 -0.500000    0.00462963  11 t-inv F
  0.333333  0.500000  0.000000    0.00462963  11 t-inv F
  0.166667 -0.333333 -0.333333    0.00462963  11 t-inv F
 -0.500000 -0.500000 -0.166667    0.00462963  11 t-inv F
  0.000000  0.333333  0.500000    0.00462963  11 t-inv F
 -0.333333  0.166667 -0.333333    0.00462963  11 t-inv F
 -0.166667 -0.500000 -0.500000    0.00462963  11 t-inv F
  0.500000  0.000000  0.333333    0.00462963  11 t-inv F
 -0.500000 -0.333333  0.000000    0.00462963  11 t-inv F
  0.000000 -0.500000 -0.333333    0.00462963  11 t-inv F
 -0.333333  0.000000 -0.500000    0.00462963  11 t-inv F
  0.333333  0.333333 -0.166667    0.00462963  11 t-inv F
  0.500000  0.166667  0.500000    0.00462963  11 t-inv F
 -0.333333 -0.500000  0.000000    0.00462963  11 t-inv F
 -0.166667  0.333333  0.333333    0.00462963  11 t-inv F
  0.500000  0.500000  0.166667    0.00462963  11 t-inv F
  0.000000 -0.333333 -0.500000    0.00462963  11 t-inv F
  0.333333 -0.166667  0.333333    0.00462963  11 t-inv F
  0.166667  0.500000  0.500000    0.00462963  11 t-inv F
 -0.500000  0.000000 -0.333333    0.00462963  11 t-inv F
  0.000000 -0.333333  0.333333    0.00462963  12 t-inv F
  0.333333  0.000000 -0.333333    0.00462963  12 t-inv F
 -0.333333 -0.333333 -0.666667    0.00462963  12 t-inv F
  0.333333  0.666667  0.333333    0.00462963  12 t-inv F
  0.333333 -0.333333  0.000000    0.00462963  12 t-inv F
 -0.666667 -0.333333 -0.333333    0.00462963  12 t-inv F
  0.333333  0.333333  0.666667    0.00462963  12 t-inv F
  0.000000  0.333333 -0.333333    0.00462963  12 t-inv F
 -0.333333 -0.666667 -0.333333    0.00462963  12 t-inv F
  0.666667  0.333333  0.333333    0.00462963  12 t-inv F
 -0.333333  0.000000  0.333333    0.00462963  12 t-inv F
  0.000000  0.500000  0.500000    0.00462963  13 t-inv F
  0.500000  0.000000  0.500000    0.00462963  13 t-inv F
  0.166667  0.500000  0.333333    0.00462963  14 t-inv F
  0.333333  0.166667  0.500000    0.00462963  14 t-inv F
 -0.333333 -0.166667  0.166667    0.00462963  14 t-inv F
 -0.500000 -0.166667 -0.333333    0.00462963  14 t-inv F
 -0.166667  0.333333  0.166667    0.00462963  14 t-inv F
  0.166667  0.333333 -0.166667    0.00462963  14 t-inv F
  0.166667 -0.166667 -0.333333    0.00462963  14 t-inv F
 -0.333333 -0.166667 -0.500000    0.00462963  14 t-inv F
 -0.333333 -0.500000 -0.166667    0.00462963  14 t-inv F
  0.166667 -0.166667  0.333333    0.00462963  14 t-inv F
  0.166667 -0.333333 -0.166667    0.00462963  14 t-inv F
 -0.166667  0.166667  0.333333    0.00462963  14 t-inv F
 -0.333333  0.166667 -0.166667    0.00462963  14 t-inv F
 -0.500000 -0.333333 -0.166667    0.00462963  14 t-inv F
 -0.166667 -0.333333 -0.500000    0.00462963  14 t-inv F
  0.333333  0.166667 -0.166667    0.00462963  14 t-inv F
 -0.166667  0.166667 -0.333333    0.00462963  14 t-inv F
  0.333333 -0.166667  0.166667    0.00462963  14 t-inv F
 -0.166667 -0.333333  0.166667    0.00462963  14 t-inv F
 -0.166667 -0.500000 -0.333333    0.00462963  14 t-inv F
  0.500000  0.166667  0.333333    0.00462963  14 t-inv F
  0.333333  0.500000  0.166667    0.00462963  14 t-inv F
  0.166667  0.333333  0.500000    0.00462963  14 t-inv F
  0.166667 -0.333333  0.333333    0.00462963  15 t-inv F
  0.333333  0.166667 -0.333333    0.00462963  15 t-inv F
 -0.333333 -0.166667 -0.666667    0.00462963  15 t-inv F
  0.333333  0.666667  0.500000    0.00462963  15 t-inv F
 -0.166667 -0.500000  0.166667    0.00462963  15 t-inv F
  0.166667 -0.500000 -0.166667    0.00462963  15 t-inv F
 -0.666667 -0.166667 -0.333333    0.00462963  15 t-inv F
  0.500000  0.666667  0.333333    0.00462963  15 t-inv F
  0.500000  0.333333  0.666667    0.00462963  15 t-inv F
  0.166667 -0.166667 -0.500000    0.00462963  15 t-inv F
 -0.666667 -0.333333 -0.166667    0.00462963  15 t-inv F
 -0.166667  0.166667 -0.500000    0.00462963  15 t-inv F
 -0.333333 -0.666667 -0.166667    0.00462963  15 t-inv F
  0.333333  0.500000  0.666667    0.00462963  15 t-inv F
  0.666667  0.500000  0.333333    0.00462963  15 t-inv F
 -0.500000  0.166667 -0.166667    0.00462963  15 t-inv F
 -0.166667 -0.666667 -0.333333    0.00462963  15 t-inv F
 -0.500000 -0.166667  0.166667    0.00462963  15 t-inv F
 -0.166667 -0.333333 -0.666667    0.00462963  15 t-inv F
  0.666667  0.333333  0.500000    0.00462963  15 t-inv F
 -0.333333  0.166667  0.333333    0.00462963  15 t-inv F
  0.333333 -0.333333  0.166667    0.00462963  15 t-inv F
  0.166667  0.333333 -0.333333    0.00462963  15 t-inv F
  0.166667 -0.333333  0.500000    0.00462963  16 t-inv F
  0.500000  0.166667 -0.333333    0.00462963  16 t-inv F
 -0.500000 -0.333333 -0.833333    0.00462963  16 t-inv F
  0.333333  0.833333  0.500000    0.00462963  16 t-inv F
 -0.166667 -0.500000  0.333333    0.00462963  16 t-inv F
  0.333333 -0.500000 -0.166667    0.00462963  16 t-inv F
  0.500000  0.833333  0.333333    0.00462963  16 t-inv F
  0.500000  0.333333  0.833333    0.00462963  16 t-inv F
 -0.833333 -0.500000 -0.333333    0.00462963  16 t-inv F
 -0.166667  0.333333 -0.500000    0.00462963  16 t-inv F
 -0.333333 -0.833333 -0.500000    0.00462963  16 t-inv F


--------------------------------------------------------------------------------------------------------




 Dimension of arrays:
   k-points           NKPTS =     16   k-points in BZ     NKDIM =     16   number of bands    NBANDS=      8
   number of dos      NEDOS =    301   number of ions     NIONS =      2
   non local maximal  LDIM  =      4   non local SUM 2l+1 LMDIM =      8
   total plane-waves  NPLWV =  46656
   max r-space proj   IRMAX =      1   max aug-charges    IRDMAX=  38346
   dimension x,y,z NGX =    36 NGY =   36 NGZ =   36
   dimension x,y,z NGXF=    72 NGYF=   72 NGZF=   72
   support grid    NGXF=    72 NGYF=   72 NGZF=   72
   ions per type =               2
   NGX,Y,Z   is equivalent  to a cutoff of  15.48, 15.48, 15.48 a.u.
   NGXF,Y,Z  is equivalent  to a cutoff of  30.95, 30.95, 30.95 a.u.

 SYSTEM =  unknown system                          
 POSCAR =  Si2                                     

 Startparameter for this run:
   NWRITE =      2    write-flag & timer
   PREC   = accura    normal or accurate (medium, high low for compatibility)
   ISTART =      0    job   : 0-new  1-cont  2-samecut
   ICHARG =      2    charge: 1-file 2-atom 10-const
   ISPIN  =      1    spin polarized calculation?
   LNONCOLLINEAR =      F non collinear calculations
   LSORBIT =      F    spin-orbit coupling
   INIWAV =      1    electr: 0-lowe 1-rand  2-diag
   LASPH  =      T    aspherical Exc in radial PAW
 Electronic Relaxation 1
   ENCUT  =  700.0 eV  51.45 Ry    7.17 a.u.   8.34  8.34  8.34*2*pi/ulx,y,z
   ENINI  =  700.0     initial cutoff
   ENAUG  = 1360.0 eV  augmentation charge cutoff
   NELM   =    200;   NELMIN=  2; NELMDL=  0     # of ELM steps 
   EDIFF  = 0.1E-06   stopping-criterion for ELM
   LREAL  =      F    real-space projection
   NLSPLINE    = F    spline interpolate recip. space projectors
   LCOMPAT=      F    compatible to vasp.4.4
   GGA_COMPAT  = T    GGA compatible to vasp.4.4-vasp.4.6
   LMAXPAW     = -100 max onsite density
   LMAXMIX     =    2 max onsite mixed and CHGCAR
   VOSKOWN=      0    Vosko Wilk Nusair interpolation
   ROPT   =    0.00000
 Ionic relaxation
   EDIFFG = -.2E-01   stopping-criterion for IOM
   NSW    =     61    number of steps for IOM
   NBLOCK =      1;   KBLOCK =     61    inner block; outer block 
   IBRION =      6    ionic relax: 0-MD 1-quasi-New 2-CG
   NFREE  =      2    steps in history (QN), initial steepest desc. (CG)
   ISIF   =      2    stress and relaxation
   IWAVPR =     11    prediction:  0-non 1-charg 2-wave 3-comb
   ISYM   =      2    0-nonsym 1-usesym 2-fastsym
   LCORR  =      T    Harris-Foulkes like correction to forces

   POTIM  = 0.5000    time-step for ionic-motion
   TEIN   =    0.0    initial temperature
   TEBEG  =    0.0;   TEEND  =   0.0 temperature during run
   SMASS  =  -3.00    Nose mass-parameter (am)
   estimated Nose-frequenzy (Omega)   =  0.10E-29 period in steps = 0.13E+47 mass=  -0.342E-27a.u.
   SCALEE = 1.0000    scale energy and forces
   NPACO  =    256;   APACO  = 16.0  distance and # of slots for P.C.
   PSTRESS=    0.0 pullay stress

  Mass of Ions in am
   POMASS =  28.09
  Ionic Valenz
   ZVAL   =   4.00
  Atomic Wigner-Seitz radii
   RWIGS  =  -1.00
  virtual crystal weights 
   VCA    =   1.00
   NELECT =       8.0000    total number of electrons
   NUPDOWN=      -1.0000    fix difference up-down

 DOS related values:
   EMIN   =  10.00;   EMAX   =-10.00  energy-range for DOS
   EFERMI =   0.00
   ISMEAR =     0;   SIGMA  =   0.05  broadening in eV -4-tet -1-fermi 0-gaus

 Electronic relaxation 2 (details)
   IALGO  =     38    algorithm
   LDIAG  =      T    sub-space diagonalisation (order eigenvalues)
   LSUBROT=      F    optimize rotation matrix (better conditioning)
   TURBO    =      0    0=normal 1=particle mesh
   IRESTART =      0    0=no restart 2=restart with 2 vectors
   NREBOOT  =      0    no. of reboots
   NMIN     =      0    reboot dimension
   EREF     =   0.00    reference energy to select bands
   IMIX   =      4    mixing-type and parameters
     AMIX     =   0.40;   BMIX     =  1.00
     AMIX_MAG =   1.60;   BMIX_MAG =  1.00
     AMIN     =   0.10
     WC   =   100.;   INIMIX=   1;  MIXPRE=   1;  MAXMIX= -45

 Intra band minimization:
   WEIMIN = 0.0010     energy-eigenvalue tresh-hold
   EBREAK =  0.31E-08  absolut break condition
   DEPER  =   0.30     relativ break condition  

   TIME   =   0.40     timestep for ELM

  volume/ion in A,a.u.               =      20.44       137.96
  Fermi-wavevector in a.u.,A,eV,Ry     =   0.950397  1.795990 12.289528  0.903255
  Thomas-Fermi vector in A             =   2.078770
 
 Write flags
   LWAVE        =      F    write WAVECAR
   LDOWNSAMPLE  =      F    k-point downsampling of WAVECAR
   LCHARG       =      F    write CHGCAR
   LVTOT        =      T    write LOCPOT, total local potential
   LVHAR        =      F    write LOCPOT, Hartree potential only
   LELF         =      T    write electronic localiz. function (ELF)
   LORBIT       =     11    0 simple, 1 ext, 2 COOP (PROOUT), +10 PAW based schemes


 Dipole corrections
   LMONO  =      F    monopole corrections only (constant potential shift)
   LDIPOL =      F    correct potential (dipole corrections)
   IDIPOL =      0    1-x, 2-y, 3-z, 4-all directions 
   EPSILON=  1.0000000 bulk dielectric constant

 Exchange correlation treatment:
   GGA     =    --    GGA type
   LEXCH   =     8    internal setting for exchange type
   VOSKOWN=      0    Vosko Wilk Nusair interpolation
   LHFCALC =     F    Hartree Fock is set to
   LHFONE  =     F    Hartree Fock one center treatment
   AEXX    =    0.0000 exact exchange contribution

 Linear response parameters
   LEPSILON=     F    determine dielectric tensor
   LRPA    =     F    only Hartree local field effects (RPA)
   LNABLA  =     F    use nabla operator in PAW spheres
   LVEL    =     F    velocity operator in full k-point grid
   LINTERFAST=   F  fast interpolation
   KINTER  =     0    interpolate to denser k-point grid
   CSHIFT  =0.1000    complex shift for real part using Kramers Kronig
   OMEGAMAX=  -1.0    maximum frequency
   DEG_THRESHOLD= 0.2000000E-02 threshold for treating states as degnerate
   RTIME   =   -0.100 relaxation time in fs
  (WPLASMAI=    0.000 imaginary part of plasma frequency in eV, 0.658/RTIME)
   DFIELD  = 0.0000000 0.0000000 0.0000000 field for delta impulse in time
 
 Orbital magnetization related:
   ORBITALMAG=     F  switch on orbital magnetization
   LCHIMAG   =     F  perturbation theory with respect to B field
   DQ        =  0.001000  dq finite difference perturbation B field
   LLRAUG    =     F  two centre corrections for induced B field



--------------------------------------------------------------------------------------------------------


 finite differences with symmetry
 charge density and potential will be updated during run
 non-spin polarized calculation
 Variant of blocked Davidson
 Davidson routine will perform the subspace rotation
 perform sub-space diagonalisation
    after iterative eigenvector-optimisation
 modified Broyden-mixing scheme, WC =      100.0
 initial mixing is a Kerker type mixing with AMIX =  0.4000 and BMIX =      1.0000
 Hartree-type preconditioning will be used
 using additional bands            4
 reciprocal scheme for non local part
 use partial core corrections
 calculate Harris-corrections to forces 
   (improved forces if not selfconsistent)
 use gradient corrections 
 use of overlap-Matrix (Vanderbilt PP)
 Gauss-broadening in eV      SIGMA  =   0.05


--------------------------------------------------------------------------------------------------------


  energy-cutoff  :      700.00
  volume of cell :       40.89
      direct lattice vectors                 reciprocal lattice vectors
     3.348898000  0.000000000  1.933487000     0.298605691 -0.105573000  0.000000000
     1.116299000  3.157372000  1.933487000     0.000000000  0.316719094  0.000000000
     0.000000000  0.000000000  3.866975000    -0.149302807 -0.105573020  0.258600069

  length of vectors
     3.866974243  3.866974707  3.866975000     0.316719145  0.316719094  0.316719096


 
 k-points in units of 2pi/SCALE and weight: pymatgen with grid density = 607 / numbe
   0.00000000  0.00000000  0.00000000       0.005
   0.04976762 -0.01759550  0.00000000       0.037
   0.09953523 -0.03519100  0.00000000       0.037
   0.14930285 -0.05278650  0.00000000       0.019
   0.04976762  0.03519102  0.00000000       0.028
   0.09953523  0.01759552  0.00000000       0.111
   0.14930285  0.00000002  0.00000000       0.111
  -0.09953523  0.08797752  0.00000000       0.111
  -0.04976762  0.07038202  0.00000000       0.056
   0.09953523  0.07038203  0.00000000       0.028
   0.14930285  0.05278653  0.00000000       0.111
  -0.09953523  0.14076403  0.00000000       0.056
   0.14930285  0.10557305  0.00000000       0.014
   0.12441904  0.03519103  0.04310001       0.111
  -0.12441903  0.12316853  0.04310001       0.111
  -0.12441903  0.17595504  0.04310001       0.056
 
 k-points in reciprocal lattice and weights: pymatgen with grid density = 607 / numbe
   0.00000000  0.00000000  0.00000000       0.005
   0.16666667  0.00000000  0.00000000       0.037
   0.33333333  0.00000000  0.00000000       0.037
   0.50000000  0.00000000  0.00000000       0.019
   0.16666667  0.16666667  0.00000000       0.028
   0.33333333  0.16666667  0.00000000       0.111
   0.50000000  0.16666667  0.00000000       0.111
  -0.33333333  0.16666667  0.00000000       0.111
  -0.16666667  0.16666667  0.00000000       0.056
   0.33333333  0.33333333  0.00000000       0.028
   0.50000000  0.33333333  0.00000000       0.111
  -0.33333333  0.33333333  0.00000000       0.056
   0.50000000  0.50000000  0.00000000       0.014
   0.50000000  0.33333333  0.16666667       0.111
  -0.33333333  0.33333333  0.16666667       0.111
  -0.33333333  0.50000000  0.16666667       0.056
 
 position of ions in fractional coordinates (direct lattice) 
   0.25000000  0.25000000  0.25000000
   0.00000000  0.00000000  0.00000000
 
 position of ions in cartesian coordinates  (Angst):
   1.11629925  0.78934300  1.93348725
   0.00000000  0.00000000  0.00000000
 


--------------------------------------------------------------------------------------------------------


 k-point   1 :   0.0000 0.0000 0.0000  plane waves:    1759
 k-point   2 :   0.1667 0.0000 0.0000  plane waves:    1735
 k-point   3 :   0.3333 0.0000 0.0000  plane waves:    1730
 k-point   4 :   0.5000 0.0000 0.0000  plane waves:    1718
 k-point   5 :   0.1667 0.1667 0.0000  plane waves:    1736
 k-point   6 :   0.3333 0.1667 0.0000  plane waves:    1723
 k-point   7 :   0.5000 0.1667 0.0000  plane waves:    1717
 k-point   8 :  -0.3333 0.1667 0.0000  plane waves:    1711
 k-point   9 :  -0.1667 0.1667 0.0000  plane waves:    1723
 k-point  10 :   0.3333 0.3333 0.0000  plane waves:    1728
 k-point  11 :   0.5000 0.3333 0.0000  plane waves:    1707
 k-point  12 :  -0.3333 0.3333 0.0000  plane waves:    1700
 k-point  13 :   0.5000 0.5000 0.0000  plane waves:    1724
 k-point  14 :   0.5000 0.3333 0.1667  plane waves:    1714
 k-point  15 :  -0.3333 0.3333 0.1667  plane waves:    1718
 k-point  16 :  -0.3333 0.5000 0.1667  plane waves:    1722

 maximum and minimum number of plane-waves per node :      1759     1700

 maximum number of plane-waves:      1759
 maximum index in each direction: 
   IXMAX=    8   IYMAX=    8   IZMAX=    8
   IXMIN=   -8   IYMIN=   -8   IZMIN=   -8


 serial   3D FFT for wavefunctions
 parallel 3D FFT for charge:
    minimum data exchange during FFTs selected (reduces bandwidth)


 total amount of memory used by VASP MPI-rank0    42629. kBytes
=======================================================================

   base      :      30000. kBytes
   nonl-proj :       1858. kBytes
   fftplans  :       3408. kBytes
   grid      :       6448. kBytes
   one-center:          6. kBytes
   wavefun   :        909. kBytes
 
     INWAV:  cpu time    0.0000: real time    0.0000
 Broyden mixing: mesh for mixing (old mesh)
   NGX = 17   NGY = 17   NGZ = 17
  (NGX  = 72   NGY  = 72   NGZ  = 72)
  gives a total of   4913 points

 initial charge density was supplied:
 charge density of overlapping atoms calculated
 number of electron       8.0000000 magnetization 
 keeping initial charge density in first step


--------------------------------------------------------------------------------------------------------


 Maximum index for augmentation-charges         9303 (set IRDMAX)


--------------------------------------------------------------------------------------------------------


 First call to EWALD:  gamma=   0.514
 Maximum number of real-space cells 3x 3x 3
 Maximum number of reciprocal cells 3x 3x 3

    FEWALD:  cpu time    0.0009: real time    0.0009


--------------------------------------- Iteration      1(   1)  ---------------------------------------


    POTLOK:  cpu time    0.0400: real time    0.0416
    SETDIJ:  cpu time    0.0408: real time    0.0409
     EDDAV:  cpu time    0.2030: real time    0.2042
       DOS:  cpu time    0.0003: real time    0.0003
    --------------------------------------------
      LOOP:  cpu time    0.2841: real time    0.2870

 eigenvalue-minimisations  :   256
 total energy-change (2. order) : 0.1063955E+02  (-0.3964543E+03)
 number of electron       8.0000000 magnetization 
 augmentation part        8.0000000 magnetization 

 Free energy of the ion-electron system (eV)
  ---------------------------------------------------
  alpha Z        PSCENC =         3.29317992
  Ewald energy   TEWEN  =      -226.94489173
  -Hartree energ DENC   =       -11.32339116
  -exchange      EXHF   =         0.00000000
  -V(xc)+E(xc)   XCENC  =       -18.68518031
  PAW double counting   =       176.24759923     -141.06103558
  entropy T*S    EENTRO =        -0.00142836
  eigenvalues    EBANDS =        22.98145355
  atomic energy  EATOM  =       206.13324734
  Solvation  Ediel_sol  =         0.00000000
  ---------------------------------------------------
  free energy    TOTEN  =        10.63955289 eV

  energy without entropy =       10.64098126  energy(sigma->0) =       10.64026708


--------------------------------------------------------------------------------------------------------




--------------------------------------- Iteration      1(   2)  ---------------------------------------


     EDDAV:  cpu time    0.2850: real time    0.2868
       DOS:  cpu time    0.0001: real time    0.0001
    --------------------------------------------
      LOOP:  cpu time    0.2851: real time    0.2869

 eigenvalue-minimisations  :   392
 total energy-change (2. order) :-0.2136270E+02  (-0.2013172E+02)
 number of electron       8.0000000 magnetization 
 augmentation part        8.0000000 magnetization 

 Free energy of the ion-electron system (eV)
  ---------------------------------------------------
  alpha Z        PSCENC =         3.29317992
  Ewald energy   TEWEN  =      -226.94489173
  -Hartree energ DENC   =       -11.32339116
  -exchange      EXHF   =         0.00000000
  -V(xc)+E(xc)   XCENC  =       -18.68518031
  PAW double counting   =       176.24759923     -141.06103558
  entropy T*S    EENTRO =        -0.00000000
  eigenvalues    EBANDS =         1.61732748
  atomic energy  EATOM  =       206.13324734
  Solvation  Ediel_sol  =         0.00000000
  ---------------------------------------------------
  free energy    TOTEN  =       -10.72314482 eV

  energy without entropy =      -10.72314482  energy(sigma->0) =      -10.72314482


--------------------------------------------------------------------------------------------------------




--------------------------------------- Iteration      1(   3)  ---------------------------------------


     EDDAV:  cpu time    0.2377: real time    0.2384
       DOS:  cpu time    0.0002: real time    0.0002
    --------------------------------------------
      LOOP:  cpu time    0.2379: real time    0.2386

 eigenvalue-minimisations  :   328
 total energy-change (2. order) :-0.2741215E+00  (-0.2741215E+00)
 number of electron       8.0000000 magnetization 
 augmentation part        8.0000000 magnetization 

 Free energy of the ion-electron system (eV)
  ---------------------------------------------------
  alpha Z        PSCENC =         3.29317992
  Ewald energy   TEWEN  =      -226.94489173
  -Hartree energ DENC   =       -11.32339116
  -exchange      EXHF   =         0.00000000
  -V(xc)+E(xc)   XCENC  =       -18.68518031
  PAW double counting   =       176.24759923     -141.06103558
  entropy T*S    EENTRO =        -0.00000000
  eigenvalues    EBANDS =         1.34320597
  atomic energy  EATOM  =       206.13324734
  Solvation  Ediel_sol  =         0.00000000
  ---------------------------------------------------
  free energy    TOTEN  =       -10.99726633 eV

  energy without entropy =      -10.99726633  energy(sigma->0) =      -10.99726633


--------------------------------------------------------------------------------------------------------




--------------------------------------- Iteration      1(   4)  ---------------------------------------


     EDDAV:  cpu time    0.3131: real time    0.3152
       DOS:  cpu time    0.0002: real time    0.0002
    --------------------------------------------
      LOOP:  cpu time    0.3133: real time    0.3154

 eigenvalue-minimisations  :   408
 total energy-change (2. order) :-0.1252071E-02  (-0.1252071E-02)
 number of electron       8.0000000 magnetization 
 augmentation part        8.0000000 magnetization 

 Free energy of the ion-electron system (eV)
  ---------------------------------------------------
  alpha Z        PSCENC =         3.29317992
  Ewald energy   TEWEN  =      -226.94489173
  -Hartree energ DENC   =       -11.32339116
  -exchange      EXHF   =         0.00000000
  -V(xc)+E(xc)   XCENC  =       -18.68518031
  PAW double counting   =       176.24759923     -141.06103558
  entropy T*S    EENTRO =        -0.00000000
  eigenvalues    EBANDS =         1.34195389
  atomic energy  EATOM  =       206.13324734
  Solvation  Ediel_sol  =         0.00000000
  ---------------------------------------------------
  free energy    TOTEN  =       -10.99851840 eV

  energy without entropy =      -10.99851840  energy(sigma->0) =      -10.99851840


--------------------------------------------------------------------------------------------------------




--------------------------------------- Iteration      1(   5)  ---------------------------------------


     EDDAV:  cpu time    0.2554: real time    0.2583
       DOS:  cpu time    0.0002: real time    0.0002
    CHARGE:  cpu time    0.0185: real time    0.0185
    MIXING:  cpu time    0.0019: real time    0.0019
    --------------------------------------------
      LOOP:  cpu time    0.2761: real time    0.2790

 eigenvalue-minimisations  :   328
 total energy-change (2. order) :-0.4746465E-06  (-0.4744687E-06)
 number of electron       8.0000000 magnetization 
 augmentation part       -0.4688056 magnetization 

 Broyden mixing:
  rms(total) = 0.47609E+00    rms(broyden)= 0.47609E+00
  rms(prec ) = 0.93776E+00
  weight for this iteration     100.00

 Free energy of the ion-electron system (eV)
  ---------------------------------------------------
  alpha Z        PSCENC =         3.29317992
  Ewald energy   TEWEN  =      -226.94489173
  -Hartree energ DENC   =       -11.32339116
  -exchange      EXHF   =         0.00000000
  -V(xc)+E(xc)   XCENC  =       -18.68518031
  PAW double counting   =       176.24759923     -141.06103558
  entropy T*S    EENTRO =        -0.00000000
  eigenvalues    EBANDS =         1.34195342
  atomic energy  EATOM  =       206.13324734
  Solvation  Ediel_sol  =         0.00000000
  ---------------------------------------------------
  free energy    TOTEN  =       -10.99851888 eV

  energy without entropy =      -10.99851888  energy(sigma->0) =      -10.99851888


--------------------------------------------------------------------------------------------------------




--------------------------------------- Iteration      1(   6)  ---------------------------------------


    POTLOK:  cpu time    0.0414: real time    0.0416
    SETDIJ:  cpu time    0.0395: real time    0.0395
     EDDAV:  cpu time    0.2437: real time    0.2450
       DOS:  cpu time    0.0001: real time    0.0001
    CHARGE:  cpu time    0.0172: real time    0.0172
    MIXING:  cpu time    0.0017: real time    0.0017
    --------------------------------------------
      LOOP:  cpu time    0.3437: real time    0.3452

 eigenvalue-minimisations  :   320
 total energy-change (2. order) : 0.1185489E+00  (-0.7689239E-02)
 number of electron       8.0000000 magnetization 
 augmentation part       -0.4631054 magnetization 

 Broyden mixing:
  rms(total) = 0.29089E+00    rms(broyden)= 0.29089E+00
  rms(prec ) = 0.55893E+00
  weight for this iteration     100.00

 eigenvalues of (default mixing * dielectric matrix)
  average eigenvalue GAMMA=   2.5616
  2.5616

 Free energy of the ion-electron system (eV)
  ---------------------------------------------------
  alpha Z        PSCENC =         3.29317992
  Ewald energy   TEWEN  =      -226.94489173
  -Hartree energ DENC   =       -12.80520064
  -exchange      EXHF   =         0.00000000
  -V(xc)+E(xc)   XCENC  =       -18.45344075
  PAW double counting   =       370.97332503     -335.88990325
  entropy T*S    EENTRO =        -0.00000000
  eigenvalues    EBANDS =         2.81371414
  atomic energy  EATOM  =       206.13324734
  Solvation  Ediel_sol  =         0.00000000
  ---------------------------------------------------
  free energy    TOTEN  =       -10.87996995 eV

  energy without entropy =      -10.87996995  energy(sigma->0) =      -10.87996995


--------------------------------------------------------------------------------------------------------




--------------------------------------- Iteration      1(   7)  ---------------------------------------


    POTLOK:  cpu time    0.0450: real time    0.0454
    SETDIJ:  cpu time    0.0417: real time    0.0417
     EDDAV:  cpu time    0.2407: real time    0.2427
       DOS:  cpu time    0.0002: real time    0.0002
    CHARGE:  cpu time    0.0179: real time    0.0179
    MIXING:  cpu time    0.0023: real time    0.0023
    --------------------------------------------
      LOOP:  cpu time    0.3479: real time    0.3503

 eigenvalue-minimisations  :   320
 total energy-change (2. order) : 0.5484854E-01  (-0.1484649E-01)
 number of electron       8.0000000 magnetization 
 augmentation part       -0.4561424 magnetization 

 Broyden mixing:
  rms(total) = 0.17666E-01    rms(broyden)= 0.17666E-01
  rms(prec ) = 0.40509E-01
  weight for this iteration     100.00

 eigenvalues of (default mixing * dielectric matrix)
  average eigenvalue GAMMA=   2.0656
  1.7424  2.3888

 Free energy of the ion-electron system (eV)
  ---------------------------------------------------
  alpha Z        PSCENC =         3.29317992
  Ewald energy   TEWEN  =      -226.94489173
  -Hartree energ DENC   =       -15.24690816
  -exchange      EXHF   =         0.00000000
  -V(xc)+E(xc)   XCENC  =       -18.06273504
  PAW double counting   =       833.08312782     -798.13284757
  entropy T*S    EENTRO =        -0.00000000
  eigenvalues    EBANDS =         5.05270602
  atomic energy  EATOM  =       206.13324734
  Solvation  Ediel_sol  =         0.00000000
  ---------------------------------------------------
  free energy    TOTEN  =       -10.82512141 eV

  energy without entropy =      -10.82512141  energy(sigma->0) =      -10.82512141


--------------------------------------------------------------------------------------------------------




--------------------------------------- Iteration      1(   8)  ---------------------------------------


    POTLOK:  cpu time    0.0447: real time    0.0457
    SETDIJ:  cpu time    0.0406: real time    0.0406
     EDDAV:  cpu time    0.2370: real time    0.2395
       DOS:  cpu time    0.0002: real time    0.0002
    CHARGE:  cpu time    0.0195: real time    0.0197
    MIXING:  cpu time    0.0017: real time    0.0017
    --------------------------------------------
      LOOP:  cpu time    0.3437: real time    0.3474

 eigenvalue-minimisations  :   296
 total energy-change (2. order) :-0.1186255E-02  (-0.3938234E-03)
 number of electron       8.0000000 magnetization 
 augmentation part       -0.4571061 magnetization 

 Broyden mixing:
  rms(total) = 0.74057E-02    rms(broyden)= 0.74057E-02
  rms(prec ) = 0.13125E-01
  weight for this iteration     100.00

 eigenvalues of (default mixing * dielectric matrix)
  average eigenvalue GAMMA=   2.2240
  2.7470  1.9625  1.9625

 Free energy of the ion-electron system (eV)
  ---------------------------------------------------
  alpha Z        PSCENC =         3.29317992
  Ewald energy   TEWEN  =      -226.94489173
  -Hartree energ DENC   =       -15.18039261
  -exchange      EXHF   =         0.00000000
  -V(xc)+E(xc)   XCENC  =       -18.06257935
  PAW double counting   =       839.78199286     -804.80501225
  entropy T*S    EENTRO =        -0.00000000
  eigenvalues    EBANDS =         4.95814817
  atomic energy  EATOM  =       206.13324734
  Solvation  Ediel_sol  =         0.00000000
  ---------------------------------------------------
  free energy    TOTEN  =       -10.82630766 eV

  energy without entropy =      -10.82630766  energy(sigma->0) =      -10.82630766


--------------------------------------------------------------------------------------------------------




--------------------------------------- Iteration      1(   9)  ---------------------------------------


    POTLOK:  cpu time    0.0403: real time    0.0404
    SETDIJ:  cpu time    0.0409: real time    0.0411
     EDDAV:  cpu time    0.2536: real time    0.2548
       DOS:  cpu time    0.0001: real time    0.0001
    CHARGE:  cpu time    0.0194: real time    0.0194
    MIXING:  cpu time    0.0017: real time    0.0017
    --------------------------------------------
      LOOP:  cpu time    0.3560: real time    0.3576

 eigenvalue-minimisations  :   368
 total energy-change (2. order) :-0.2064938E-03  (-0.2031720E-04)
 number of electron       8.0000000 magnetization 
 augmentation part       -0.4572184 magnetization 

 Broyden mixing:
  rms(total) = 0.55387E-02    rms(broyden)= 0.55387E-02
  rms(prec ) = 0.64677E-02
  weight for this iteration     100.00

 eigenvalues of (default mixing * dielectric matrix)
  average eigenvalue GAMMA=   2.1571
  0.9798  2.6930  2.6930  2.2625

 Free energy of the ion-electron system (eV)
  ---------------------------------------------------
  alpha Z        PSCENC =         3.29317992
  Ewald energy   TEWEN  =      -226.94489173
  -Hartree energ DENC   =       -15.22280849
  -exchange      EXHF   =         0.00000000
  -V(xc)+E(xc)   XCENC  =       -18.05456403
  PAW double counting   =       840.48160939     -805.50223598
  entropy T*S    EENTRO =        -0.00000000
  eigenvalues    EBANDS =         4.98994944
  atomic energy  EATOM  =       206.13324734
  Solvation  Ediel_sol  =         0.00000000
  ---------------------------------------------------
  free energy    TOTEN  =       -10.82651416 eV

  energy without entropy =      -10.82651416  energy(sigma->0) =      -10.82651416


--------------------------------------------------------------------------------------------------------




--------------------------------------- Iteration      1(  10)  ---------------------------------------


    POTLOK:  cpu time    0.0452: real time    0.0453
    SETDIJ:  cpu time    0.0429: real time    0.0430
     EDDAV:  cpu time    0.2323: real time    0.2335
       DOS:  cpu time    0.0002: real time    0.0002
    CHARGE:  cpu time    0.0167: real time    0.0167
    MIXING:  cpu time    0.0016: real time    0.0016
    --------------------------------------------
      LOOP:  cpu time    0.3390: real time    0.3404

 eigenvalue-minimisations  :   288
 total energy-change (2. order) :-0.2926925E-04  (-0.3668684E-05)
 number of electron       8.0000000 magnetization 
 augmentation part       -0.4571966 magnetization 

 Broyden mixing:
  rms(total) = 0.98699E-03    rms(broyden)= 0.98699E-03
  rms(prec ) = 0.10499E-02
  weight for this iteration     100.00

 eigenvalues of (default mixing * dielectric matrix)
  average eigenvalue GAMMA=   1.9134
  2.9091  2.4569  2.0747  1.0632  1.0632

 Free energy of the ion-electron system (eV)
  ---------------------------------------------------
  alpha Z        PSCENC =         3.29317992
  Ewald energy   TEWEN  =      -226.94489173
  -Hartree energ DENC   =       -15.23204847
  -exchange      EXHF   =         0.00000000
  -V(xc)+E(xc)   XCENC  =       -18.05403708
  PAW double counting   =       829.30057765     -794.32109329
  entropy T*S    EENTRO =        -0.00000000
  eigenvalues    EBANDS =         4.99852224
  atomic energy  EATOM  =       206.13324734
  Solvation  Ediel_sol  =         0.00000000
  ---------------------------------------------------
  free energy    TOTEN  =       -10.82654343 eV

  energy without entropy =      -10.82654343  energy(sigma->0) =      -10.82654343


--------------------------------------------------------------------------------------------------------




--------------------------------------- Iteration      1(  11)  ---------------------------------------


    POTLOK:  cpu time    0.0469: real time    0.0473
    SETDIJ:  cpu time    0.0409: real time    0.0410
     EDDAV:  cpu time    0.2484: real time    0.2489
       DOS:  cpu time    0.0002: real time    0.0002
    CHARGE:  cpu time    0.0183: real time    0.0184
    MIXING:  cpu time    0.0019: real time    0.0019
    --------------------------------------------
      LOOP:  cpu time    0.3566: real time    0.3577

 eigenvalue-minimisations  :   384
 total energy-change (2. order) : 0.3573351E-06  (-0.4885114E-07)
 number of electron       8.0000000 magnetization 
 augmentation part       -0.4572127 magnetization 

 Broyden mixing:
  rms(total) = 0.19736E-03    rms(broyden)= 0.19736E-03
  rms(prec ) = 0.42114E-03
  weight for this iteration     100.00

 eigenvalues of (default mixing * dielectric matrix)
  average eigenvalue GAMMA=   2.1364
  3.2436  2.9463  2.4436  2.2650  0.9732  0.9469

 Free energy of the ion-electron system (eV)
  ---------------------------------------------------
  alpha Z        PSCENC =         3.29317992
  Ewald energy   TEWEN  =      -226.94489173
  -Hartree energ DENC   =       -15.23078260
  -exchange      EXHF   =         0.00000000
  -V(xc)+E(xc)   XCENC  =       -18.05409245
  PAW double counting   =       830.70677112     -795.72689218
  entropy T*S    EENTRO =        -0.00000000
  eigenvalues    EBANDS =         4.99691752
  atomic energy  EATOM  =       206.13324734
  Solvation  Ediel_sol  =         0.00000000
  ---------------------------------------------------
  free energy    TOTEN  =       -10.82654307 eV

  energy without entropy =      -10.82654307  energy(sigma->0) =      -10.82654307


--------------------------------------------------------------------------------------------------------




--------------------------------------- Iteration      1(  12)  ---------------------------------------


    POTLOK:  cpu time    0.0403: real time    0.0404
    SETDIJ:  cpu time    0.0396: real time    0.0396
     EDDAV:  cpu time    0.2025: real time    0.2038
       DOS:  cpu time    0.0002: real time    0.0002
    CHARGE:  cpu time    0.0183: real time    0.0183
    MIXING:  cpu time    0.0017: real time    0.0017
    --------------------------------------------
      LOOP:  cpu time    0.3025: real time    0.3040

 eigenvalue-minimisations  :   272
 total energy-change (2. order) :-0.3367382E-06  (-0.5926944E-07)
 number of electron       8.0000000 magnetization 
 augmentation part       -0.4572020 magnetization 

 Broyden mixing:
  rms(total) = 0.58751E-04    rms(broyden)= 0.58751E-04
  rms(prec ) = 0.66041E-04
  weight for this iteration     100.00

 eigenvalues of (default mixing * dielectric matrix)
  average eigenvalue GAMMA=   1.9082
  3.2507  2.7072  2.4534  2.2531  0.9834  0.9834  0.7260

 Free energy of the ion-electron system (eV)
  ---------------------------------------------------
  alpha Z        PSCENC =         3.29317992
  Ewald energy   TEWEN  =      -226.94489173
  -Hartree energ DENC   =       -15.23236123
  -exchange      EXHF   =         0.00000000
  -V(xc)+E(xc)   XCENC  =       -18.05408737
  PAW double counting   =       830.66306553     -795.68319171
  entropy T*S    EENTRO =        -0.00000000
  eigenvalues    EBANDS =         4.99849585
  atomic energy  EATOM  =       206.13324734
  Solvation  Ediel_sol  =         0.00000000
  ---------------------------------------------------
  free energy    TOTEN  =       -10.82654341 eV

  energy without entropy =      -10.82654341  energy(sigma->0) =      -10.82654341


--------------------------------------------------------------------------------------------------------




--------------------------------------- Iteration      1(  13)  ---------------------------------------


    POTLOK:  cpu time    0.0469: real time    0.0471
    SETDIJ:  cpu time    0.0506: real time    0.0507
     EDDAV:  cpu time    0.1973: real time    0.1989
       DOS:  cpu time    0.0002: real time    0.0002
    --------------------------------------------
      LOOP:  cpu time    0.2950: real time    0.2970

 eigenvalue-minimisations  :   192
 total energy-change (2. order) : 0.2303580E-09  (-0.2268223E-09)
 number of electron       8.0000000 magnetization 
 augmentation part       -0.4572020 magnetization 

 Free energy of the ion-electron system (eV)
  ---------------------------------------------------
  alpha Z        PSCENC =         3.29317992
  Ewald energy   TEWEN  =      -226.94489173
  -Hartree energ DENC   =       -15.23230719
  -exchange      EXHF   =         0.00000000
  -V(xc)+E(xc)   XCENC  =       -18.05408591
  PAW double counting   =       830.56934260     -795.58946814
  entropy T*S    EENTRO =        -0.00000000
  eigenvalues    EBANDS =         4.99843971
  atomic energy  EATOM  =       206.13324734
  Solvation  Ediel_sol  =         0.00000000
  ---------------------------------------------------
  free energy    TOTEN  =       -10.82654341 eV

  energy without entropy =      -10.82654341  energy(sigma->0) =      -10.82654341


--------------------------------------------------------------------------------------------------------




 average (electrostatic) potential at core
  the test charge radii are     0.9892
  (the norm of the test charge is              1.0000)
       1 -83.4715       2 -83.4715
 
 
 
 E-fermi :   5.8824     XC(G=0):  -9.3224     alpha+bet :-11.7317

 Fermi energy:         5.8823775091

 k-point     1 :       0.0000    0.0000    0.0000
  band No.  band energies     occupation 
      1      -6.1921      2.00000
      2       5.6240      2.00000
      3       5.6240      2.00000
      4       5.6240      2.00000
      5       8.1777      0.00000
      6       8.1777      0.00000
      7       8.1777      0.00000
      8       8.7586      0.00000

 k-point     2 :       0.1667    0.0000    0.0000
  band No.  band energies     occupation 
      1      -5.8374      2.00000
      2       3.2601      2.00000
      3       5.1828      2.00000
      4       5.1828      2.00000
      5       7.9082      0.00000
      6       8.8134      0.00000
      7       8.8134      0.00000
      8      10.9028      0.00000

 k-point     3 :       0.3333    0.0000    0.0000
  band No.  band energies     occupation 
      1      -4.8418      2.00000
      2       0.3533      2.00000
      3       4.6409      2.00000
      4       4.6409      2.00000
      5       7.3154      0.00000
      6       9.1241      0.00000
      7       9.1241      0.00000
      8      13.4064      0.00000

 k-point     4 :       0.5000    0.0000    0.0000
  band No.  band energies     occupation 
      1      -3.9128      2.00000
      2      -1.2463      2.00000
      3       4.4449      2.00000
      4       4.4449      2.00000
      5       7.0896      0.00000
      6       8.9698      0.00000
      7       8.9698      0.00000
      8      13.3238      0.00000

 k-point     5 :       0.1667    0.1667    0.0000
  band No.  band energies     occupation 
      1      -5.7165      2.00000
      2       3.5700      2.00000
      3       4.4582      2.00000
      4       4.4582      2.00000
      5       7.3356      0.00000
      6       9.8336      0.00000
      7       9.9235      0.00000
      8       9.9235      0.00000

 k-point     6 :       0.3333    0.1667    0.0000
  band No.  band energies     occupation 
      1      -4.9165      2.00000
      2       1.2204      2.00000
      3       3.6625      2.00000
      4       3.9142      2.00000
      5       7.5902      0.00000
      6       9.6290      0.00000
      7      10.1231      0.00000
      8      10.6551      0.00000

 k-point     7 :       0.5000    0.1667    0.0000
  band No.  band energies     occupation 
      1      -3.7532      2.00000
      2      -0.9011      2.00000
      3       2.8913      2.00000
      4       3.8823      2.00000
      5       7.6611      0.00000
      6       9.6840      0.00000
      7      10.2254      0.00000
      8      11.9867      0.00000

 k-point     8 :      -0.3333    0.1667    0.0000
  band No.  band energies     occupation 
      1      -4.1280      2.00000
      2      -0.3163      2.00000
      3       2.6308      2.00000
      4       4.3503      2.00000
      5       8.0476      0.00000
      6       9.7049      0.00000
      7       9.8350      0.00000
      8      12.8178      0.00000

 k-point     9 :      -0.1667    0.1667    0.0000
  band No.  band energies     occupation 
      1      -5.2600      2.00000
      2       1.9265      2.00000
      3       3.2653      2.00000
      4       5.0670      2.00000
      5       8.6005      0.00000
      6       9.1580      0.00000
      7       9.4342      0.00000
      8      11.2050      0.00000

 k-point    10 :       0.3333    0.3333    0.0000
  band No.  band energies     occupation 
      1      -4.3220      2.00000
      2       0.6336      2.00000
      3       3.2556      2.00000
      4       3.2556      2.00000
      5       6.3796      0.00000
      6       7.6423      0.00000
      7      12.7955      0.00000
      8      12.7955      0.00000

 k-point    11 :       0.5000    0.3333    0.0000
  band No.  band energies     occupation 
      1      -3.1816      2.00000
      2      -0.8939      2.00000
      3       2.0726      2.00000
      4       3.1208      2.00000
      5       6.7171      0.00000
      6       8.3439      0.00000
      7      12.9901      0.00000
      8      13.0000      0.00000

 k-point    12 :      -0.3333    0.3333    0.0000
  band No.  band energies     occupation 
      1      -2.9947      2.00000
      2      -1.0901      2.00000
      3       1.3111      2.00000
      4       3.5538      2.00000
      5       7.2089      0.00000
      6      11.3996      0.00000
      7      12.0290      0.00000
      8      12.5938      0.00000

 k-point    13 :       0.5000    0.5000    0.0000
  band No.  band energies     occupation 
      1      -2.1230      2.00000
      2      -2.1230      2.00000
      3       2.8283      2.00000
      4       2.8283      2.00000
      5       6.3725      0.00000
      6       6.3725      0.00000
      7      15.5592      0.00000
      8      15.5592      0.00000

 k-point    14 :       0.5000    0.3333    0.1667
  band No.  band energies     occupation 
      1      -3.9460      2.00000
      2       0.0158      2.00000
      3       2.1319      2.00000
      4       3.3793      2.00000
      5       8.4669      0.00000
      6       9.3411      0.00000
      7       9.7997      0.00000
      8      12.6060      0.00000

 k-point    15 :      -0.3333    0.3333    0.1667
  band No.  band energies     occupation 
      1      -2.9855      2.00000
      2      -1.1565      2.00000
      3       1.6974      2.00000
      4       2.9252      2.00000
      5       8.9866      0.00000
      6       9.1400      0.00000
      7      11.6793      0.00000
      8      12.0612      0.00000

 k-point    16 :      -0.3333    0.5000    0.1667
  band No.  band energies     occupation 
      1      -2.0096      2.00000
      2      -2.0096      2.00000
      3       2.0619      2.00000
      4       2.0619      2.00000
      5       8.3732      0.00000
      6       8.3732      0.00000
      7      12.3100      0.00000
      8      12.3100      0.00000


--------------------------------------------------------------------------------------------------------


 soft charge-density along one line, spin component           1
         0         1         2         3         4         5         6         7         8         9
 total charge-density along one line
 
 pseudopotential strength for first ion, spin component:           1
 18.436  25.722  -0.000  -0.000   0.000  -0.000  -0.000   0.000
 25.722  35.891  -0.000  -0.000   0.000  -0.000  -0.000   0.000
 -0.000  -0.000   4.181   0.000  -0.000   7.790   0.000  -0.000
 -0.000  -0.000   0.000   4.181   0.000   0.000   7.790   0.000
  0.000   0.000  -0.000   0.000   4.181  -0.000   0.000   7.790
 -0.000  -0.000   7.790   0.000  -0.000  14.528   0.000  -0.000
 -0.000  -0.000   0.000   7.790   0.000   0.000  14.528   0.000
  0.000   0.000  -0.000   0.000   7.790  -0.000   0.000  14.528
 total augmentation occupancy for first ion, spin component:           1
  5.527  -2.061   0.000  -0.000   0.000  -0.000   0.000  -0.000
 -2.061   0.881  -0.000  -0.000  -0.000   0.000   0.000   0.000
  0.000  -0.000   2.906  -0.000  -0.000  -0.649   0.000   0.000
  0.000  -0.000  -0.000   2.906  -0.000   0.000  -0.649   0.000
 -0.000  -0.000  -0.000  -0.000   2.906   0.000   0.000  -0.649
  0.000  -0.000  -0.649   0.000   0.000   0.153  -0.000  -0.000
 -0.000  -0.000   0.000  -0.649   0.000  -0.000   0.153  -0.000
 -0.000   0.000   0.000   0.000  -0.649  -0.000  -0.000   0.153


------------------------ aborting loop because EDIFF is reached ----------------------------------------





 total charge

# of ion       s       p       d       tot
------------------------------------------
    1        0.748   0.931   0.000   1.679
    2        0.748   0.931   0.000   1.679
--------------------------------------------------
tot          1.496   1.862   0.000   3.359
 
    CHARGE:  cpu time    0.0245: real time    0.0245
    FORLOC:  cpu time    0.0022: real time    0.0022
    FORNL :  cpu time    0.0129: real time    0.0130
    STRESS:  cpu time    0.0967: real time    0.0975
    FORCOR:  cpu time    0.0442: real time    0.0444
    FORHAR:  cpu time    0.0090: real time    0.0090
    MIXING:  cpu time    0.0018: real time    0.0018
    OFIELD:  cpu time    0.0000: real time    0.0000

  FORCE on cell =-STRESS in cart. coord.  units (eV):
  Direction    XX          YY          ZZ          XY          YZ          ZX
  --------------------------------------------------------------------------------------
  Alpha Z     3.29318     3.29318     3.29318
  Ewald     -75.64832   -75.64835   -75.64832    -0.00001     0.00001     0.00001
  Hartree     5.07742     5.07742     5.07742    -0.00000     0.00000     0.00000
  E(xc)     -25.25575   -25.25575   -25.25575    -0.00000    -0.00000    -0.00000
  Local     -29.53001   -29.53001   -29.53002     0.00001    -0.00000    -0.00000
  n-local    73.66188    76.97599    81.49450    -0.96405    -0.48883     0.02390
  augment   -11.62065   -11.62065   -11.62066    -0.00000    -0.00000    -0.00000
  Kinetic    52.89144    55.24317    60.83661     0.73990     0.75756    -0.55621
  Fock        0.00000     0.00000     0.00000     0.00000     0.00000     0.00000
  -------------------------------------------------------------------------------------
  Total       0.01704     0.01704     0.01704    -0.00000    -0.00000    -0.00000
  in kB       0.66759     0.66759     0.66759    -0.00000    -0.00000    -0.00000
  external pressure =        0.67 kB  Pullay stress =        0.00 kB


 VOLUME and BASIS-vectors are now :
 -----------------------------------------------------------------------------
  energy-cutoff  :      700.00
  volume of cell :       40.89
      direct lattice vectors                 reciprocal lattice vectors
     3.348898000  0.000000000  1.933487000     0.298605691 -0.105573000  0.000000000
     1.116299000  3.157372000  1.933487000     0.000000000  0.316719094  0.000000000
     0.000000000  0.000000000  3.866975000    -0.149302807 -0.105573020  0.258600069

  length of vectors
     3.866974243  3.866974707  3.866975000     0.316719145  0.316719094  0.316719096


 FORCES acting on ions
    electron-ion (+dipol)            ewald-force                    non-local-force                 convergence-correction
 -----------------------------------------------------------------------------------------------
   0.372E-05 -.683E-05 -.833E-05   -.634E-05 0.116E-04 0.142E-04   0.247E-16 -.907E-17 -.468E-16   -.621E-10 0.822E-10 0.895E-10
   -.372E-05 0.683E-05 0.833E-05   0.634E-05 -.116E-04 -.142E-04   -.238E-16 0.186E-16 0.318E-16   0.621E-10 -.822E-10 -.895E-10
 -----------------------------------------------------------------------------------------------
   -.339E-13 0.252E-13 0.125E-12   0.718E-18 -.107E-15 0.148E-15   0.879E-18 0.948E-17 -.151E-16   -.132E-14 0.143E-14 -.485E-14
 
 
 POSITION                                       TOTAL-FORCE (eV/Angst)
 -----------------------------------------------------------------------------------
      1.11630      0.78934      1.93349        -0.000000     -0.000000     -0.000000
      0.00000      0.00000      0.00000         0.000000      0.000000      0.000000
 -----------------------------------------------------------------------------------
    total drift:                               -0.000000      0.000000      0.000000


--------------------------------------------------------------------------------------------------------



  FREE ENERGIE OF THE ION-ELECTRON SYSTEM (eV)
  ---------------------------------------------------
  free  energy   TOTEN  =       -10.82654341 eV

  energy  without entropy=      -10.82654341  energy(sigma->0) =      -10.82654341
 


--------------------------------------------------------------------------------------------------------


    POTLOK:  cpu time    0.0945: real time    0.0949


--------------------------------------------------------------------------------------------------------


 -----------------------------------------------------------------------------
|                                                                             |
|           W    W    AA    RRRRR   N    N  II  N    N   GGGG   !!!           |
|           W    W   A  A   R    R  NN   N  II  NN   N  G    G  !!!           |
|           W    W  A    A  R    R  N N  N  II  N N  N  G       !!!           |
|           W WW W  AAAAAA  RRRRR   N  N N  II  N  N N  G  GGG   !            |
|           WW  WW  A    A  R   R   N   NN  II  N   NN  G    G                |
|           W    W  A    A  R    R  N    N  II  N    N   GGGG   !!!           |
|                                                                             |
|     Your timestep is larger than 0.1 Angst.                                 |
|     For finite differences, this really does not make sense. I will         |
|     reset POTIM to 0.015. I recommend to use 0.01 to 0.02 for finite        |
|     differences.                                                            |
|                                                                             |
 -----------------------------------------------------------------------------

 
 
Found     1 degrees of freedom:
 
 
        Directions for atom     1:
        --------------------------
 
              1.0000000000000000      0.0000000000000000      0.0000000000000000
 Finite differences:
   Step               POTIM =   1.500000000000000E-002
   Degrees of freedom DOF   =            1
  LATTYP: Found a face centered cubic cell.
 ALAT       =     5.4687280757
  
  Lattice vectors:
  
 A1 = (   3.3488980000,   0.0000000000,   1.9334870000)
 A2 = (   1.1162990000,   3.1573720000,   1.9334870000)
 A3 = (   0.0000000000,   0.0000000000,   3.8669750000)


Analysis of symmetry for initial positions (statically):
=====================================================================
 Subroutine PRICEL returns:
 Original cell was already a primitive cell.
 

 Routine SETGRP: Setting up the symmetry group for a 
 face centered cubic supercell.


 Subroutine GETGRP returns: Found  4 space group operations
 (whereof  2 operations were pure point group operations)
 out of a pool of 48 trial point group operations.


The static configuration has the point symmetry C_1h.
 The point group associated with its full space group is C_2h.


Analysis of symmetry for dynamics (positions and initial velocities):
=====================================================================
 Subroutine PRICEL returns:
 Original cell was already a primitive cell.
 

 Routine SETGRP: Setting up the symmetry group for a 
 face centered cubic supercell.


 Subroutine GETGRP returns: Found  4 space group operations
 (whereof  2 operations were pure point group operations)
 out of a pool of 48 trial point group operations.


The dynamic configuration has the point symmetry C_1h.
 The point group associated with its full space group is C_2h.


 Subroutine INISYM returns: Found  4 space group operations
 (whereof  2 operations are pure point group operations),
 and found     1 'primitive' translations

 
 KPOINTS: pymatgen with grid density = 607 / numbe

Automatic generation of k-mesh.
 Grid dimensions read from file:
 generate k-points for:    6    6    6

 Generating k-lattice:

  Cartesian coordinates                     Fractional coordinates (reciprocal lattice)
     0.049767615 -0.017595500  0.000000000     0.166666667 -0.000000000  0.000000000
     0.000000000  0.052786516  0.000000000     0.000000000  0.166666667  0.000000000
    -0.024883801 -0.017595503  0.043100011     0.000000000  0.000000000  0.166666667

  Length of vectors
     0.052786524  0.052786516  0.052786516

  Shift w.r.t. Gamma in fractional coordinates (k-lattice)
     0.000000000  0.000000000  0.000000000

 
 Subroutine IBZKPT returns following result:
 ===========================================
 
 Found     68 irreducible k-points:
 
 Following reciprocal coordinates:
            Coordinates               Weight
  0.000000  0.000000  0.000000      1.000000
  0.166667  0.000000  0.000000      2.000000
 -0.000000  0.166667  0.000000      2.000000
  0.000000  0.000000  0.166667      4.000000
  0.333333  0.000000  0.000000      2.000000
  0.000000  0.333333  0.000000      2.000000
  0.000000  0.000000  0.333333      4.000000
  0.500000  0.000000  0.000000      1.000000
  0.000000  0.500000  0.000000      1.000000
 -0.000000  0.000000  0.500000      2.000000
  0.166667  0.166667  0.000000      2.000000
  0.000000  0.166667  0.166667      4.000000
  0.333333  0.166667  0.000000      2.000000
  0.000000  0.333333  0.166667      4.000000
  0.166667  0.000000  0.333333      4.000000
  0.166667  0.166667 -0.166667      4.000000
  0.333333  0.166667  0.333333      4.000000
  0.166667  0.333333  0.000000      2.000000
  0.166667 -0.166667 -0.166667      4.000000
  0.500000  0.166667  0.000000      2.000000
  0.000000  0.500000  0.166667      4.000000
  0.166667  0.000000  0.500000      4.000000
  0.166667  0.166667 -0.333333      4.000000
  0.500000  0.333333  0.500000      4.000000
  0.166667  0.500000  0.000000      2.000000
  0.333333 -0.166667 -0.166667      4.000000
 -0.333333  0.166667  0.000000      2.000000
  0.000000 -0.333333  0.166667      4.000000
  0.166667 -0.000000 -0.333333      4.000000
  0.166667  0.166667  0.500000      4.000000
 -0.333333  0.500000 -0.333333      4.000000
  0.166667 -0.333333  0.000000      2.000000
  0.500000 -0.166667 -0.166667      4.000000
 -0.166667  0.166667  0.000000      2.000000
  0.000000 -0.166667  0.166667      4.000000
  0.166667  0.000000 -0.166667      4.000000
  0.166667  0.166667  0.333333      2.000000
  0.333333  0.333333  0.000000      2.000000
  0.000000  0.333333  0.333333      4.000000
  0.500000  0.333333  0.000000      2.000000
  0.000000  0.500000  0.333333      4.000000
  0.333333  0.000000  0.500000      4.000000
  0.333333  0.333333 -0.166667      4.000000
  0.500000  0.166667  0.500000      4.000000
  0.333333  0.500000  0.000000      2.000000
  0.166667 -0.333333 -0.333333      4.000000
 -0.333333  0.333333  0.000000      2.000000
  0.000000 -0.333333  0.333333      4.000000
  0.333333 -0.000000 -0.333333      4.000000
  0.333333  0.333333 -0.333333      2.000000
  0.500000  0.500000  0.000000      1.000000
 -0.000000  0.500000  0.500000      2.000000
  0.500000  0.333333  0.166667      4.000000
  0.166667  0.500000  0.333333      4.000000
  0.333333  0.166667  0.500000      4.000000
  0.500000  0.166667  0.333333      4.000000
  0.166667 -0.333333 -0.166667      4.000000
  0.166667  0.333333 -0.166667      4.000000
 -0.333333  0.333333  0.166667      4.000000
  0.166667 -0.333333  0.333333      2.000000
  0.333333  0.166667 -0.333333      4.000000
 -0.333333  0.333333  0.500000      4.000000
  0.166667  0.500000 -0.166667      4.000000
  0.333333 -0.166667 -0.333333      2.000000
  0.500000 -0.333333  0.333333      4.000000
 -0.333333  0.500000  0.166667      4.000000
  0.166667 -0.333333  0.500000      4.000000
  0.500000  0.166667 -0.333333      4.000000
 
 Following cartesian coordinates:
            Coordinates               Weight
  0.000000  0.000000  0.000000      1.000000
  0.049768 -0.017595  0.000000      2.000000
 -0.000000  0.052787  0.000000      2.000000
 -0.024884 -0.017596  0.043100      4.000000
  0.099535 -0.035191  0.000000      2.000000
 -0.000000  0.105573  0.000000      2.000000
 -0.049768 -0.035191  0.086200      4.000000
  0.149303 -0.052786  0.000000      1.000000
 -0.000000  0.158360  0.000000      1.000000
 -0.074651 -0.052787  0.129300      2.000000
  0.049768  0.035191  0.000000      2.000000
 -0.024884  0.035191  0.043100      4.000000
  0.099535  0.017596  0.000000      2.000000
 -0.024884  0.087978  0.043100      4.000000
  0.000000 -0.052787  0.086200      4.000000
  0.074651  0.052787 -0.043100      4.000000
  0.049768 -0.017595  0.086200      4.000000
  0.049768  0.087978  0.000000      2.000000
  0.074651 -0.052787 -0.043100      4.000000
  0.149303  0.000000  0.000000      2.000000
 -0.024884  0.140764  0.043100      4.000000
 -0.024884 -0.070382  0.129300      4.000000
  0.099535  0.070382 -0.086200      4.000000
  0.074651  0.000000  0.129300      4.000000
  0.049768  0.140764  0.000000      2.000000
  0.124419 -0.070382 -0.043100      4.000000
 -0.099535  0.087978  0.000000      2.000000
 -0.024884 -0.123169  0.043100      4.000000
  0.099535  0.017596 -0.086200      4.000000
 -0.024884 -0.017595  0.129300      4.000000
 -0.049768  0.228742 -0.086200      4.000000
  0.049768 -0.123169  0.000000      2.000000
  0.174187 -0.087978 -0.043100      4.000000
 -0.049768  0.070382  0.000000      2.000000
 -0.024884 -0.070382  0.043100      4.000000
  0.074651  0.000000 -0.043100      4.000000
  0.000000  0.000000  0.086200      2.000000
  0.099535  0.070382  0.000000      2.000000
 -0.049768  0.070382  0.086200      4.000000
  0.149303  0.052787  0.000000      2.000000
 -0.049768  0.123169  0.086200      4.000000
  0.024884 -0.087978  0.129300      4.000000
  0.124419  0.087978 -0.043100      4.000000
  0.074651 -0.052786  0.129300      4.000000
  0.099535  0.123169  0.000000      2.000000
  0.099535 -0.087978 -0.086200      4.000000
 -0.099535  0.140764  0.000000      2.000000
[...]
      3       2.1339      2.00000
      4       3.4101      2.00000
      5       8.4549      0.00000
      6       9.3463      0.00000
      7       9.8261      0.00000
      8      12.6023      0.00000

 k-point    58 :       0.5000    0.1667    0.3333
  band No.  band energies     occupation 
      1      -3.9507      2.00000
      2       0.0328      2.00000
      3       2.1311      2.00000
      4       3.3641      2.00000
      5       8.4716      0.00000
      6       9.3374      0.00000
      7       9.7877      0.00000
      8      12.6070      0.00000

 k-point    59 :       0.1667   -0.3333   -0.1667
  band No.  band energies     occupation 
      1      -3.9549      2.00000
      2       0.0508      2.00000
      3       2.1297      2.00000
      4       3.3486      2.00000
      5       8.4774      0.00000
      6       9.3336      0.00000
      7       9.7753      0.00000
      8      12.6096      0.00000

 k-point    60 :       0.1667    0.3333   -0.1667
  band No.  band energies     occupation 
      1      -3.9422      2.00000
      2      -0.0017      2.00000
      3       2.1320      2.00000
      4       3.3954      2.00000
      5       8.4594      0.00000
      6       9.3449      0.00000
      7       9.8128      0.00000
      8      12.6043      0.00000

 k-point    61 :       0.1667   -0.3333    0.3333
  band No.  band energies     occupation 
      1      -2.9797      2.00000
      2      -1.1641      2.00000
      3       1.6699      2.00000
      4       2.9569      2.00000
      5       9.0320      0.00000
      6       9.1114      0.00000
      7      11.6901      0.00000
      8      12.0342      0.00000

 k-point    62 :       0.3333    0.1667   -0.3333
  band No.  band energies     occupation 
      1      -2.9731      2.00000
      2      -1.1826      2.00000
      3       1.7074      2.00000
      4       2.9283      2.00000
      5       8.9833      0.00000
      6       9.1590      0.00000
      7      11.6502      0.00000
      8      12.0699      0.00000

 k-point    63 :       0.6667    0.3333    0.5000
  band No.  band energies     occupation 
      1      -2.9762      2.00000
      2      -1.1790      2.00000
      3       1.7214      2.00000
      4       2.9126      2.00000
      5       8.9633      0.00000
      6       9.1700      0.00000
      7      11.6452      0.00000
      8      12.0841      0.00000

 k-point    64 :       0.1667   -0.5000   -0.1667
  band No.  band energies     occupation 
      1      -2.9895      2.00000
      2      -1.1524      2.00000
      3       1.7108      2.00000
      4       2.9100      2.00000
      5       8.9596      0.00000
      6       9.1573      0.00000
      7      11.6732      0.00000
      8      12.0738      0.00000

 k-point    65 :      -0.6667   -0.1667   -0.3333
  band No.  band energies     occupation 
      1      -3.0115      2.00000
      2      -1.1049      2.00000
      3       1.6767      2.00000
      4       2.9197      2.00000
      5       8.9838      0.00000
      6       9.1101      0.00000
      7      11.7356      0.00000
      8      12.0411      0.00000

 k-point    66 :       0.5000    0.6667    0.3333
  band No.  band energies     occupation 
      1      -2.9666      2.00000
      2      -1.1903      2.00000
      3       1.6802      2.00000
      4       2.9594      2.00000
      5       9.0324      0.00000
      6       9.1274      0.00000
      7      11.6615      0.00000
      8      12.0438      0.00000

 k-point    67 :       0.1667   -0.3333    0.5000
  band No.  band energies     occupation 
      1      -2.0302      2.00000
      2      -1.9899      2.00000
      3       2.0498      2.00000
      4       2.0744      2.00000
      5       8.3577      0.00000
      6       8.3876      0.00000
      7      12.2979      0.00000
      8      12.3222      0.00000

 k-point    68 :       0.5000    0.1667   -0.3333
  band No.  band energies     occupation 
      1      -2.0365      2.00000
      2      -1.9835      2.00000
      3       2.0467      2.00000
      4       2.0773      2.00000
      5       8.3561      0.00000
      6       8.3894      0.00000
      7      12.2858      0.00000
      8      12.3339      0.00000


--------------------------------------------------------------------------------------------------------


 soft charge-density along one line, spin component           1
         0         1         2         3         4         5         6         7         8         9
 total charge-density along one line
 
 pseudopotential strength for first ion, spin component:           1
 18.436  25.722  -0.000  -0.000  -0.001  -0.000  -0.000  -0.001
 25.722  35.891  -0.000  -0.000  -0.001  -0.000  -0.000  -0.001
 -0.000  -0.000   4.181   0.000   0.000   7.790   0.000   0.000
 -0.000  -0.000   0.000   4.181   0.000   0.000   7.791   0.000
 -0.001  -0.001   0.000   0.000   4.181   0.000   0.000   7.790
 -0.000  -0.000   7.790   0.000   0.000  14.528   0.000   0.000
 -0.000  -0.000   0.000   7.791   0.000   0.000  14.528   0.000
 -0.001  -0.001   0.000   0.000   7.790   0.000   0.000  14.528
 total augmentation occupancy for first ion, spin component:           1
  5.528  -2.062  -0.000   0.000  -0.030   0.000  -0.000   0.009
 -2.062   0.881   0.000  -0.000   0.015  -0.000   0.000  -0.005
 -0.000   0.000   2.906  -0.000   0.018  -0.648   0.000  -0.006
  0.000  -0.000  -0.000   2.933  -0.000   0.000  -0.657   0.000
 -0.030   0.015   0.018  -0.000   2.881  -0.006   0.000  -0.640
  0.000  -0.000  -0.648   0.000  -0.006   0.153  -0.000   0.002
 -0.000   0.000   0.000  -0.657   0.000  -0.000   0.156  -0.000
  0.009  -0.005  -0.006   0.000  -0.640   0.002  -0.000   0.151


------------------------ aborting loop because EDIFF is reached ----------------------------------------





 total charge

# of ion       s       p       d       tot
------------------------------------------
    1        0.748   0.931   0.000   1.679
    2        0.748   0.931   0.000   1.679
--------------------------------------------------
tot          1.496   1.862   0.000   3.359
 
    CHARGE:  cpu time    0.0409: real time    0.0412
    FORLOC:  cpu time    0.0020: real time    0.0020
    FORNL :  cpu time    0.0235: real time    0.0235
    STRESS:  cpu time    0.3346: real time    0.3384
    FORCOR:  cpu time    0.0472: real time    0.0481
    FORHAR:  cpu time    0.0099: real time    0.0109
    MIXING:  cpu time    0.0023: real time    0.0025
    OFIELD:  cpu time    0.0001: real time    0.0001

  FORCE on cell =-STRESS in cart. coord.  units (eV):
  Direction    XX          YY          ZZ          XY          YZ          ZX
  --------------------------------------------------------------------------------------
  Alpha Z     3.29318     3.29318     3.29318
  Ewald     -76.59537   -75.64997   -74.69703     0.66533     0.00001     0.00001
  Hartree     4.96908     5.07725     5.18616     0.07640     0.00000     0.00000
  E(xc)     -25.24775   -25.25580   -25.26398    -0.00566    -0.00000    -0.00000
  Local     -28.52941   -29.52916   -30.53551    -0.70314    -0.00000    -0.00000
  n-local    77.18525    77.37834    77.57427     0.13573     0.03317     0.58820
  augment   -11.61230   -11.62080   -11.62945    -0.00598    -0.00000    -0.00000
  Kinetic    56.44919    56.32442    56.19997    -0.08761     0.13062     0.54675
  Fock        0.00000     0.00000     0.00000     0.00000     0.00000     0.00000
  -------------------------------------------------------------------------------------
  Total      -0.08812     0.01747     0.12761     0.07507    -0.00000     0.00000
  in kB      -3.45298     0.68469     5.00030     2.94175    -0.00000     0.00000
  external pressure =        0.74 kB  Pullay stress =        0.00 kB


 VOLUME and BASIS-vectors are now :
 -----------------------------------------------------------------------------
  energy-cutoff  :      700.00
  volume of cell :       40.89
      direct lattice vectors                 reciprocal lattice vectors
     3.348898000  0.000000000  1.933487000     0.298605691 -0.105573000  0.000000000
     1.116299000  3.157372000  1.933487000     0.000000000  0.316719094  0.000000000
     0.000000000  0.000000000  3.866975000    -0.149302807 -0.105573020  0.258600069

  length of vectors
     3.866974243  3.866974707  3.866975000     0.316719145  0.316719094  0.316719096


 FORCES acting on ions
    electron-ion (+dipol)            ewald-force                    non-local-force                 convergence-correction
 -----------------------------------------------------------------------------------------------
   -.344E+00 -.614E-02 -.824E-05   0.347E+00 0.511E-02 0.143E-04   0.190E+00 0.318E-02 -.288E-07   0.450E-03 0.171E-04 -.673E-09
   0.344E+00 0.614E-02 0.835E-05   -.347E+00 -.511E-02 -.143E-04   -.190E+00 -.318E-02 0.288E-07   -.145E-03 -.191E-04 0.142E-10
 -----------------------------------------------------------------------------------------------
   0.123E-06 0.456E-07 0.114E-06   0.000E+00 -.108E-15 0.148E-15   -.278E-16 0.000E+00 0.161E-16   0.305E-03 -.201E-05 -.659E-09
 
 
 POSITION                                       TOTAL-FORCE (eV/Angst)
 -----------------------------------------------------------------------------------
      1.10130      0.78934      1.93349         0.193723      0.002179     -0.000000
      0.00000      0.00000      0.00000        -0.193723     -0.002179      0.000000
 -----------------------------------------------------------------------------------
    total drift:                                0.000305     -0.000002      0.000000


--------------------------------------------------------------------------------------------------------



  FREE ENERGIE OF THE ION-ELECTRON SYSTEM (eV)
  ---------------------------------------------------
  free  energy   TOTEN  =       -10.82508260 eV

  energy  without entropy=      -10.82508260  energy(sigma->0) =      -10.82508260
 
 d Force = 0.9355470E-04[-0.581E-02, 0.600E-02]  d Energy = 0.3106334E-04 0.625E-04
 d Force = 0.2182852E-03[-0.104E-01, 0.108E-01]  d Ewald  = 0.7288859E-04 0.145E-03


--------------------------------------------------------------------------------------------------------


    POTLOK:  cpu time    0.0874: real time    0.0884


--------------------------------------------------------------------------------------------------------


 Finite differences progress:
  Degree of freedom:   1/  1
  Displacement:        2/  2
  Total:               2/  2


--------------------------------------------------------------------------------------------------------


 INTERNAL STRAIN TENSORS FROM DISPLACED ATOMS
 ============================================

 INTERNAL STRAIN TENSOR FOR ION    1 for displacements in x,y,z  (eV/Angst):
          X           Y           Z          XY          YZ          ZX
  --------------------------------------------------------------------------------
  x     7.27143    -0.00000    -7.27143    -5.14168     0.00000    -0.00000
  y    -5.14168    10.28336    -5.14168    -0.00000    -0.00000     0.00000
  z    -0.00000    -0.00000     0.00000     0.00000    -5.14168    -7.27143

 INTERNAL STRAIN TENSOR FOR ION    2 for displacements in x,y,z  (eV/Angst):
          X           Y           Z          XY          YZ          ZX
  --------------------------------------------------------------------------------
  x    -7.27143     0.00000     7.27143     5.14168    -0.00000     0.00000
  y     5.14168   -10.28336     5.14168     0.00000     0.00000    -0.00000
  z     0.00000     0.00000    -0.00000    -0.00000     5.14168     7.27143


--------------------------------------------------------------------------------------------------------


 
 Eigenvectors and eigenvalues of the dynamical matrix
 ----------------------------------------------------
 
 
   1 f  =   15.112582 THz    94.955154 2PiTHz  504.101480 cm-1    62.500590 meV
             X         Y         Z           dx          dy          dz
      1.116299  0.789343  1.933487     0.007612   -0.589224    0.390841  
      0.000000  0.000000  0.000000    -0.007612    0.589224   -0.390841  
 
   2 f  =   15.112581 THz    94.955148 2PiTHz  504.101445 cm-1    62.500585 meV
             X         Y         Z           dx          dy          dz
      1.116299  0.789343  1.933487    -0.313791    0.347449    0.529919  
      0.000000  0.000000  0.000000     0.313791   -0.347449   -0.529919  
 
   3 f  =   15.112578 THz    94.955126 2PiTHz  504.101329 cm-1    62.500571 meV
             X         Y         Z           dx          dy          dz
      1.116299  0.789343  1.933487    -0.633622   -0.179147   -0.257738  
      0.000000  0.000000  0.000000     0.633622    0.179147    0.257738  
 
   4 f  =    0.000000 THz     0.000001 2PiTHz    0.000006 cm-1     0.000001 meV
             X         Y         Z           dx          dy          dz
      1.116299  0.789343  1.933487     0.692793    0.128710   -0.058924  
      0.000000  0.000000  0.000000     0.692793    0.128710   -0.058924  
 
   5 f/i=    0.000000 THz     0.000000 2PiTHz    0.000001 cm-1     0.000000 meV
             X         Y         Z           dx          dy          dz
      1.116299  0.789343  1.933487    -0.101466    0.246276   -0.655021  
      0.000000  0.000000  0.000000    -0.101466    0.246276   -0.655021  
 
   6 f/i=    0.000000 THz     0.000001 2PiTHz    0.000007 cm-1     0.000001 meV
             X         Y         Z           dx          dy          dz
      1.116299  0.789343  1.933487    -0.098707    0.650217    0.259760  
      0.000000  0.000000  0.000000    -0.098707    0.650217    0.259760  
 

 ELASTIC MODULI CONTR FROM IONIC RELAXATION (kBar)
 Direction    XX          YY          ZZ          XY          YZ          ZX
 --------------------------------------------------------------------------------
 XX        -236.8220    157.8814     78.9407    111.6390     -0.0000      0.0000
 YY         157.8814   -315.7629    157.8814      0.0000      0.0000     -0.0000
 ZZ          78.9407    157.8814   -236.8221   -111.6390      0.0001      0.0001
 XY         111.6390      0.0000   -111.6390    -78.9407      0.0000     -0.0000
 YZ          -0.0000      0.0000      0.0001      0.0000    -78.9407   -111.6390
 ZX           0.0000     -0.0000      0.0001     -0.0000   -111.6390   -157.8813
 --------------------------------------------------------------------------------



--------------------------------------------------------------------------------------------------------


  LATTYP: Found a face centered cubic cell.
 ALAT       =     5.4687280757
  
  Lattice vectors:
  
 A1 = (   3.3488980000,   0.0000000000,   1.9334870000)
 A2 = (   1.1162990000,   3.1573720000,   1.9334870000)
 A3 = (   0.0000000000,   0.0000000000,   3.8669750000)


Analysis of symmetry for initial positions (statically):
=====================================================================
 Subroutine PRICEL returns:
 Original cell was already a primitive cell.
 

 Routine SETGRP: Setting up the symmetry group for a 
 face centered cubic supercell.


 Subroutine GETGRP returns: Found 48 space group operations
 (whereof 24 operations were pure point group operations)
 out of a pool of 48 trial point group operations.


The static configuration has the point symmetry T_d .
 The point group associated with its full space group is O_h .


Analysis of symmetry for dynamics (positions and initial velocities):
=====================================================================
 Subroutine PRICEL returns:
 Original cell was already a primitive cell.
 

 Routine SETGRP: Setting up the symmetry group for a 
 face centered cubic supercell.


 Subroutine GETGRP returns: Found 48 space group operations
 (whereof 24 operations were pure point group operations)
 out of a pool of 48 trial point group operations.


The dynamic configuration has the point symmetry T_d .
 The point group associated with its full space group is O_h .


 Subroutine INISYM returns: Found 48 space group operations
 (whereof 24 operations are pure point group operations),
 and found     1 'primitive' translations

 
 KPOINTS: pymatgen with grid density = 607 / numbe

Automatic generation of k-mesh.
 Grid dimensions read from file:
 generate k-points for:    6    6    6

 Generating k-lattice:

  Cartesian coordinates                     Fractional coordinates (reciprocal lattice)
     0.049767615 -0.017595500  0.000000000     0.166666667 -0.000000000  0.000000000
     0.000000000  0.052786516  0.000000000     0.000000000  0.166666667  0.000000000
    -0.024883801 -0.017595503  0.043100011     0.000000000  0.000000000  0.166666667

  Length of vectors
     0.052786524  0.052786516  0.052786516

  Shift w.r.t. Gamma in fractional coordinates (k-lattice)
     0.000000000  0.000000000  0.000000000

 
 Subroutine IBZKPT returns following result:
 ===========================================
 
 Found     16 irreducible k-points:
 
 Following reciprocal coordinates:
            Coordinates               Weight
  0.000000  0.000000  0.000000      1.000000
  0.166667  0.000000  0.000000      8.000000
  0.333333  0.000000  0.000000      8.000000
  0.500000  0.000000  0.000000      4.000000
  0.166667  0.166667  0.000000      6.000000
  0.333333  0.166667  0.000000     24.000000
  0.500000  0.166667  0.000000     24.000000
 -0.333333  0.166667  0.000000     24.000000
 -0.166667  0.166667  0.000000     12.000000
  0.333333  0.333333  0.000000      6.000000
  0.500000  0.333333  0.000000     24.000000
 -0.333333  0.333333  0.000000     12.000000
  0.500000  0.500000  0.000000      3.000000
  0.500000  0.333333  0.166667     24.000000
 -0.333333  0.333333  0.166667     24.000000
 -0.333333  0.500000  0.166667     12.000000
 
 Following cartesian coordinates:
            Coordinates               Weight
  0.000000  0.000000  0.000000      1.000000
  0.049768 -0.017595  0.000000      8.000000
  0.099535 -0.035191  0.000000      8.000000
  0.149303 -0.052786  0.000000      4.000000
  0.049768  0.035191  0.000000      6.000000
  0.099535  0.017596  0.000000     24.000000
  0.149303  0.000000  0.000000     24.000000
 -0.099535  0.087978  0.000000     24.000000
 -0.049768  0.070382  0.000000     12.000000
  0.099535  0.070382  0.000000      6.000000
  0.149303  0.052787  0.000000     24.000000
 -0.099535  0.140764  0.000000     12.000000
  0.149303  0.105573  0.000000      3.000000
  0.124419  0.035191  0.043100     24.000000
 -0.124419  0.123169  0.043100     24.000000
 -0.124419  0.175955  0.043100     12.000000
 
     LOOP+:  cpu time    8.8849: real time    9.1906
    4ORBIT:  cpu time    0.0000: real time    0.0000



 total charge

# of ion       s       p       d       tot
------------------------------------------
    1        0.747   0.932   0.000   1.679
    2        0.747   0.932   0.000   1.679
--------------------------------------------------
tot          1.495   1.863   0.000   3.358
 

 total amount of memory used by VASP MPI-rank0    42629. kBytes
=======================================================================

   base      :      30000. kBytes
   nonl-proj :       1858. kBytes
   fftplans  :       3408. kBytes
   grid      :       6448. kBytes
   one-center:          6. kBytes
   wavefun   :        909. kBytes
 
  
  
 General timing and accounting informations for this job:
 ========================================================
  
                  Total CPU time used (sec):       23.434
                            User time (sec):       22.809
                          System time (sec):        0.625
                         Elapsed time (sec):       24.381
  
                   Maximum memory used (kb):    63422464.
                   Average memory used (kb):          N/A
  
                          Minor page faults:        25887
                          Major page faults:           49
                 Voluntary context switches:           25
