<?xml version="1.0" encoding="ISO-8859-1"?>
<modeling>
 <generator>
  <i name="program" type="string">vasp </i>
  <i name="version" type="string">6.2.1  </i>
  <i name="subversion" type="string">16May21 (build Oct 27 2021 18:14:32) complex                          parallel </i>
  <i name="platform" type="string">LinuxIFC </i>
  <i name="date" type="string">2021 11 23 </i>
  <i name="time" type="string">17:32:31 </i>
 </generator>
 <incar>
  <i type="string" name="PREC">Accurate</i>
  <i type="string" name="ALGO">Normal</i>
  <i type="int" name="ISPIN">     1</i>
  <i type="int" name="NELM">   200</i>
  <i type="int" name="IBRION">     6</i>
  <i name="EDIFF">      0.00000010</i>
  <i name="EDIFFG">     -0.02000000</i>
  <i type="int" name="NSW">     1</i>
  <i type="int" name="ISIF">     2</i>
  <i name="ENCUT">    700.00000000</i>
  <i name="ENAUG">   1360.00000000</i>
  <v name="MAGMOM">      0.00000000      0.00000000</v>
  <i type="logical" name="LREAL"> F  </i>
  <i type="int" name="ISMEAR">     0</i>
  <i name="SIGMA">      0.05000000</i>
  <i name="KSPACING">      0.26650686</i>
  <i type="logical" name="LWAVE"> F  </i>
  <i type="logical" name="LCHARG"> F  </i>
  <i type="logical" name="LVTOT"> T  </i>
  <i type="int" name="LORBIT">    11</i>
  <i type="logical" name="LELF"> T  </i>
  <i type="logical" name="LASPH"> T  </i>
  <i type="logical" name="LAECHG"> F  </i>
  <i type="logical" name="PHON_LMC"> T  </i>
  <i type="int" name="PHON_NSTRUCT">     0</i>
  <v name="PHON_TLIST">      0.00000000</v>
  <i type="logical" name="LMIXTAU"> T  </i>
 </incar>
 <primitive_cell>
  <structure name="primitive_cell" >
   <crystal>
    <varray name="basis" >
     <v>       3.34889800       0.00000000       1.93348700 </v>
     <v>       1.11629900       3.15737200       1.93348700 </v>
     <v>       0.00000000       0.00000000       3.86697500 </v>
    </varray>
    <i name="volume">     40.88829843 </i>
    <varray name="rec_basis" >
     <v>       0.29860569      -0.10557300       0.00000000 </v>
     <v>       0.00000000       0.31671909       0.00000000 </v>
     <v>      -0.14930281      -0.10557302       0.25860007 </v>
    </varray>
   </crystal>
   <varray name="positions" >
    <v>       0.25000000       0.25000000       0.25000000 </v>
    <v>       0.00000000       0.00000000       0.00000000 </v>
   </varray>
  </structure>
  <varray name="primitive_index" >
   <v type="int" >        1 </v>
   <v type="int" >        2 </v>
  </varray>
 </primitive_cell>
 <kpoints>
  <generation param="Gamma">
   <v type="int" name="divisions">       6        6        6 </v>
   <v name="usershift">      0.00000000       0.00000000       0.00000000 </v>
   <v name="genvec1">      0.16666667      -0.00000000       0.00000000 </v>
   <v name="genvec2">      0.00000000       0.16666667       0.00000000 </v>
   <v name="genvec3">      0.00000000       0.00000000       0.16666667 </v>
   <v name="shift">      0.00000000       0.00000000       0.00000000 </v>
  </generation>
  <varray name="kpointlist" >
   <v>       0.00000000       0.00000000       0.00000000 </v>
   <v>       0.16666667       0.00000000       0.00000000 </v>
   <v>       0.33333333       0.00000000       0.00000000 </v>
   <v>       0.50000000       0.00000000       0.00000000 </v>
   <v>       0.16666667       0.16666667       0.00000000 </v>
   <v>       0.33333333       0.16666667       0.00000000 </v>
   <v>       0.50000000       0.16666667       0.00000000 </v>
   <v>      -0.33333333       0.16666667       0.00000000 </v>
   <v>      -0.16666667       0.16666667       0.00000000 </v>
   <v>       0.33333333       0.33333333       0.00000000 </v>
   <v>       0.50000000       0.33333333       0.00000000 </v>
   <v>      -0.33333333       0.33333333       0.00000000 </v>
   <v>       0.50000000       0.50000000       0.00000000 </v>
   <v>       0.50000000       0.33333333       0.16666667 </v>
   <v>      -0.33333333       0.33333333       0.16666667 </v>
   <v>      -0.33333333       0.50000000       0.16666667 </v>
  </varray>
  <varray name="weights" >
   <v>       0.00462963 </v>
   <v>       0.03703704 </v>
   <v>       0.03703704 </v>
   <v>       0.01851852 </v>
   <v>       0.02777778 </v>
   <v>       0.11111111 </v>
   <v>       0.11111111 </v>
   <v>       0.11111111 </v>
   <v>       0.05555556 </v>
   <v>       0.02777778 </v>
   <v>       0.11111111 </v>
   <v>       0.05555556 </v>
   <v>       0.01388889 </v>
   <v>       0.11111111 </v>
   <v>       0.11111111 </v>
   <v>       0.05555556 </v>
  </varray>
 </kpoints>
 <parameters>
  <separator name="general" >
   <i type="string" name="SYSTEM">unknown system</i>
   <i type="logical" name="LCOMPAT"> F  </i>
  </separator>
  <separator name="electronic" >
   <i type="string" name="PREC">accura</i>
   <i name="ENMAX">    700.00000000</i>
   <i name="ENAUG">   1360.00000000</i>
   <i name="EDIFF">      0.00000010</i>
   <i type="int" name="IALGO">    38</i>
   <i type="int" name="IWAVPR">    11</i>
   <i type="int" name="NBANDS">     8</i>
   <i type="int" name="NBANDSLOW">    -1</i>
   <i type="int" name="NBANDSHIGH">    -1</i>
   <i name="NELECT">      8.00000000</i>
   <i type="int" name="TURBO">     0</i>
   <i type="int" name="IRESTART">     0</i>
   <i type="int" name="NREBOOT">     0</i>
   <i type="int" name="NMIN">     0</i>
   <i name="EREF">      0.00000000</i>
   <separator name="electronic smearing" >
    <i type="int" name="ISMEAR">     0</i>
    <i name="SIGMA">      0.05000000</i>
    <i name="KSPACING">      0.26650686</i>
    <i type="logical" name="KGAMMA"> T  </i>
    <i type="logical" name="KBLOWUP"> T  </i>
   </separator>
   <separator name="electronic projectors" >
    <i type="logical" name="LREAL"> F  </i>
    <v name="ROPT">      0.00000000</v>
    <i type="int" name="LMAXPAW">  -100</i>
    <i type="int" name="LMAXMIX">     2</i>
    <i type="logical" name="NLSPLINE"> F  </i>
   </separator>
   <separator name="electronic startup" >
    <i type="int" name="ISTART">     0</i>
    <i type="int" name="ICHARG">     2</i>
    <i type="int" name="INIWAV">     1</i>
   </separator>
   <separator name="electronic spin" >
    <i type="int" name="ISPIN">     1</i>
    <i type="logical" name="LNONCOLLINEAR"> F  </i>
    <v name="MAGMOM">      0.00000000      0.00000000</v>
    <i name="NUPDOWN">     -1.00000000</i>
    <i type="logical" name="LSORBIT"> F  </i>
    <v name="SAXIS">      0.00000000      0.00000000      1.00000000</v>
    <i type="logical" name="LSPIRAL"> F  </i>
    <v name="QSPIRAL">      0.00000000      0.00000000      0.00000000</v>
    <i type="logical" name="LZEROZ"> F  </i>
   </separator>
   <separator name="electronic exchange-correlation" >
    <i type="logical" name="LASPH"> T  </i>
    <i type="logical" name="LMETAGGA"> F  </i>
   </separator>
   <separator name="electronic convergence" >
    <i type="int" name="NELM">   200</i>
    <i type="int" name="NELMDL">     0</i>
    <i type="int" name="NELMIN">     2</i>
    <i name="ENINI">    700.00000000</i>
    <separator name="electronic convergence detail" >
     <i type="logical" name="LDIAG"> T  </i>
     <i type="logical" name="LSUBROT"> F  </i>
     <i name="WEIMIN">      0.00100000</i>
     <i name="EBREAK">      0.00000000</i>
     <i name="DEPER">      0.30000000</i>
     <i type="int" name="NRMM">     4</i>
     <i name="TIME">      0.40000000</i>
    </separator>
   </separator>
   <separator name="electronic mixer" >
    <i name="AMIX">      0.40000000</i>
    <i name="BMIX">      1.00000000</i>
    <i name="AMIN">      0.10000000</i>
    <i name="AMIX_MAG">      1.60000000</i>
    <i name="BMIX_MAG">      1.00000000</i>
    <separator name="electronic mixer details" >
     <i type="int" name="IMIX">     4</i>
     <i type="logical" name="MIXFIRST"> F  </i>
     <i type="int" name="MAXMIX">   -45</i>
     <i name="WC">    100.00000000</i>
     <i type="int" name="INIMIX">     1</i>
     <i type="int" name="MIXPRE">     1</i>
     <i type="int" name="MREMOVE">     5</i>
    </separator>
   </separator>
   <separator name="electronic dipolcorrection" >
    <i type="logical" name="LDIPOL"> F  </i>
    <i type="logical" name="LMONO"> F  </i>
    <i type="int" name="IDIPOL">     0</i>
    <i name="EPSILON">      1.00000000</i>
    <v name="DIPOL">   -100.00000000   -100.00000000   -100.00000000</v>
    <i name="EFIELD">      0.00000000</i>
   </separator>
  </separator>
  <separator name="grids" >
   <i type="int" name="NGX">    36</i>
   <i type="int" name="NGY">    36</i>
   <i type="int" name="NGZ">    36</i>
   <i type="int" name="NGXF">    72</i>
   <i type="int" name="NGYF">    72</i>
   <i type="int" name="NGZF">    72</i>
   <i type="logical" name="ADDGRID"> F  </i>
  </separator>
  <separator name="ionic" >
   <i type="int" name="NSW">    61</i>
   <i type="int" name="IBRION">     6</i>
   <i type="int" name="MDALGO">     0</i>
   <i type="int" name="ISIF">     2</i>
   <i name="PSTRESS">      0.00000000</i>
   <i name="EDIFFG">     -0.02000000</i>
   <i type="int" name="NFREE">     2</i>
   <i name="POTIM">      0.50000000</i>
   <i name="SMASS">     -3.00000000</i>
   <i name="SCALEE">      1.00000000</i>
  </separator>
  <separator name="ionic md" >
   <i name="TEBEG">      0.00010000</i>
   <i name="TEEND">      0.00010000</i>
   <i type="int" name="NBLOCK">     1</i>
   <i type="int" name="KBLOCK">    61</i>
   <i type="int" name="NPACO">   256</i>
   <i name="APACO">     16.00000000</i>
  </separator>
  <separator name="symmetry" >
   <i type="int" name="ISYM">     2</i>
   <i name="SYMPREC">      0.00001000</i>
  </separator>
  <separator name="dos" >
   <i type="int" name="LORBIT">    11</i>
   <v name="RWIGS">     -1.00000000</v>
   <i type="int" name="NEDOS">   301</i>
   <i name="EMIN">     10.00000000</i>
   <i name="EMAX">    -10.00000000</i>
   <i name="EFERMI">      0.00000000</i>
  </separator>
  <separator name="writing" >
   <i type="int" name="NWRITE">     2</i>
   <i type="logical" name="LWAVE"> F  </i>
   <i type="logical" name="LDOWNSAMPLE"> F  </i>
   <i type="logical" name="LCHARG"> F  </i>
   <i type="logical" name="LPARD"> F  </i>
   <i type="logical" name="LVTOT"> T  </i>
   <i type="logical" name="LVHAR"> F  </i>
   <i type="logical" name="LELF"> T  </i>
   <i type="logical" name="LOPTICS"> F  </i>
   <v name="STM">      0.00000000      0.00000000      0.00000000      0.00000000      0.00000000      0.00000000      0.00000000</v>
  </separator>
  <separator name="performance" >
   <i type="int" name="NPAR">     4</i>
   <i type="int" name="NSIM">     4</i>
   <i type="int" name="NBLK">    -1</i>
   <i type="logical" name="LPLANE"> T  </i>
   <i type="logical" name="LSCALAPACK"> F  </i>
   <i type="logical" name="LSCAAWARE"> F  </i>
   <i type="logical" name="LSCALU"> F  </i>
   <i type="logical" name="LASYNC"> F  </i>
   <i type="logical" name="LORBITALREAL"> F  </i>
  </separator>
  <separator name="miscellaneous" >
   <i type="int" name="IDIOT">     3</i>
   <i type="int" name="PHON_NSTRUCT">     0</i>
   <i type="logical" name="LMUSIC"> F  </i>
   <v name="POMASS">     28.08500000</v>
   <v name="DARWINR">      0.00000000</v>
   <v name="DARWINV">      1.00000000</v>
   <i type="logical" name="LCORR"> T  </i>
  </separator>
  <i type="logical" name="GGA_COMPAT"> T  </i>
  <i type="logical" name="LBERRY"> F  </i>
  <i type="int" name="ICORELEVEL">     0</i>
  <i type="logical" name="LDAU"> F  </i>
  <i type="int" name="I_CONSTRAINED_M">     0</i>
  <separator name="electronic exchange-correlation" >
   <i type="string" name="GGA">--</i>
   <i type="int" name="VOSKOWN">     0</i>
   <i type="logical" name="LHFCALC"> F  </i>
   <i type="string" name="PRECFOCK"></i>
   <i type="logical" name="LSYMGRAD"> F  </i>
   <i type="logical" name="LHFONE"> F  </i>
   <i type="logical" name="LRHFCALC"> F  </i>
   <i type="logical" name="LTHOMAS"> F  </i>
   <i type="logical" name="LMODELHF"> F  </i>
   <i type="logical" name="LFOCKACE"> F  </i>
   <i name="ENCUT4O">     -1.00000000</i>
   <i type="int" name="EXXOEP">     0</i>
   <i type="int" name="FOURORBIT">     0</i>
   <i name="AEXX">      0.00000000</i>
   <i name="HFALPHA">      0.00000000</i>
   <i name="MCALPHA">      0.00000000</i>
   <i name="ALDAX">      1.00000000</i>
   <i name="AGGAX">      1.00000000</i>
   <i name="ALDAC">      1.00000000</i>
   <i name="AGGAC">      1.00000000</i>
   <i type="int" name="NKREDX">     1</i>
   <i type="int" name="NKREDY">     1</i>
   <i type="int" name="NKREDZ">     1</i>
   <i type="logical" name="SHIFTRED"> F  </i>
   <i type="logical" name="ODDONLY"> F  </i>
   <i type="logical" name="EVENONLY"> F  </i>
   <i type="int" name="LMAXFOCK">     0</i>
   <i type="int" name="NMAXFOCKAE">     0</i>
   <i type="logical" name="LFOCKAEDFT"> F  </i>
   <i name="HFSCREEN">      0.00000000</i>
   <i name="HFSCREENC">      0.00000000</i>
   <i type="int" name="NBANDSGWLOW">     0</i>
  </separator>
  <separator name="vdW DFT" >
   <i type="logical" name="LUSE_VDW"> F  </i>
   <i name="Zab_VDW">     -0.84910000</i>
   <i name="PARAM1">      0.12340000</i>
   <i name="PARAM2">      1.00000000</i>
   <i name="PARAM3">      0.00000000</i>
  </separator>
  <separator name="model GW" >
   <i type="int" name="MODEL_GW">     0</i>
   <i name="MODEL_EPS0">     12.26648953</i>
   <i name="MODEL_ALPHA">      1.00000000</i>
  </separator>
  <separator name="linear response parameters" >
   <i type="logical" name="LEPSILON"> F  </i>
   <i type="logical" name="LRPA"> F  </i>
   <i type="logical" name="LNABLA"> F  </i>
   <i type="logical" name="LVEL"> F  </i>
   <i type="int" name="KINTER">     0</i>
   <i name="CSHIFT">      0.10000000</i>
   <i name="OMEGAMAX">     -1.00000000</i>
   <i name="DEG_THRESHOLD">      0.00200000</i>
   <i name="RTIME">     -0.10000000</i>
   <i name="WPLASMAI">      0.00000000</i>
   <v name="DFIELD">      0.00000000      0.00000000      0.00000000</v>
   <v name="WPLASMA">      0.00000000      0.00000000      0.00000000      0.00000000      0.00000000      0.00000000      0.00000000      0.00000000      0.00000000</v>
  </separator>
  <separator name="orbital magnetization" >
   <i type="logical" name="NUCIND"> F  </i>
   <v name="MAGPOS">      0.00000000      0.00000000      0.00000000</v>
   <i type="logical" name="LNICSALL"> T  </i>
   <i type="logical" name="ORBITALMAG"> F  </i>
   <i type="logical" name="LMAGBLOCH"> F  </i>
   <i type="logical" name="LCHIMAG"> F  </i>
   <i type="logical" name="LGAUGE"> T  </i>
   <i type="int" name="MAGATOM">     0</i>
   <v name="MAGDIPOL">      0.00000000      0.00000000      0.00000000</v>
   <v name="AVECCONST">      0.00000000      0.00000000      0.00000000</v>
  </separator>
  <separator name="response functions" >
   <i type="logical" name="LFINITE_TEMPERATURE"> F  </i>
   <i type="logical" name="LADDER"> F  </i>
   <i type="logical" name="LRPAFORCE"> F  </i>
   <i type="logical" name="LFXC"> F  </i>
   <i type="logical" name="LHARTREE"> T  </i>
   <i type="int" name="IBSE">     0</i>
   <v type="int" name="KPOINT">    -1     0     0     0</v>
   <i type="logical" name="LTCTC"> F  </i>
   <i type="logical" name="LTCTE"> F  </i>
   <i type="logical" name="LTETE"> F  </i>
   <i type="logical" name="LTRIPLET"> F  </i>
   <i type="logical" name="LFXCEPS"> F  </i>
   <i type="logical" name="LFXHEG"> F  </i>
   <i type="int" name="NATURALO">     2</i>
   <i type="logical" name="LHOLEGF"> F  </i>
   <i type="logical" name="L2ORDER"> F  </i>
   <i type="logical" name="LDMP1"> F  </i>
   <i type="logical" name="LMP2LT"> F  </i>
   <i type="logical" name="LSMP2LT"> F  </i>
   <i type="logical" name="LGWLF"> F  </i>
   <i name="ENCUTGW">     -2.00000000</i>
   <i name="ENCUTGWSOFT">     -2.00000000</i>
   <i name="ENCUTLF">     -1.00000000</i>
   <i type="logical" name="LESF_SPLINES"> F  </i>
   <i type="int" name="LMAXMP2">    -1</i>
   <i name="SCISSOR">      0.00000000</i>
   <i type="int" name="NOMEGA">     0</i>
   <i type="int" name="NOMEGAR">     0</i>
   <i type="int" name="NBANDSGW">    -1</i>
   <i type="int" name="NBANDSO">    -1</i>
   <i type="int" name="NBANDSV">    -1</i>
   <i type="int" name="NELM">   200</i>
   <i type="int" name="NELMHF">     1</i>
   <i type="int" name="DIM">     3</i>
   <i type="int" name="IESPILON">     4</i>
   <i type="int" name="ANTIRES">     0</i>
   <i name="OMEGAMAX">    -30.00000000</i>
   <i name="OMEGAMIN">    -30.00000000</i>
   <i name="OMEGATL">   -200.00000000</i>
   <i type="int" name="OMEGAGRID">     0</i>
   <i name="CSHIFT">     -0.10000000</i>
   <i type="logical" name="LSELFENERGY"> F  </i>
   <i type="logical" name="LSPECTRAL"> F  </i>
   <i type="logical" name="LSPECTRALGW"> F  </i>
   <i type="logical" name="LSINGLES"> F  </i>
   <i type="logical" name="LFERMIGW"> F  </i>
   <i type="logical" name="ODDONLYGW"> F  </i>
   <i type="logical" name="EVENONLYGW"> F  </i>
   <i type="int" name="NKREDLFX">     1</i>
   <i type="int" name="NKREDLFY">     1</i>
   <i type="int" name="NKREDLFZ">     1</i>
   <i type="int" name="MAXMEM">  2800</i>
   <i type="int" name="TELESCOPE">     0</i>
   <i type="int" name="NTAUPAR">    -1</i>
   <i type="int" name="NOMEGAPAR">    -1</i>
   <i name="DAMP_NEWTON">      0.80000001</i>
   <i name="LAMBDA">      1.00000000</i>
  </separator>
  <separator name="External order field" >
   <i name="OFIELD_KAPPA">      0.00000000</i>
   <v name="OFIELD_K">      0.00000000      0.00000000      0.00000000</v>
   <i name="OFIELD_Q6_NEAR">      0.00000000</i>
   <i name="OFIELD_Q6_FAR">      0.00000000</i>
   <i name="OFIELD_A">      0.00000000</i>
  </separator>
 </parameters>
 <atominfo>
  <atoms>       2 </atoms>
  <types>       1 </types>
  <array name="atoms" >
   <dimension dim="1">ion</dimension>
   <field type="string">element</field>
   <field type="int">atomtype</field>
   <set>
    <rc><c>Si</c><c>   1</c></rc>
    <rc><c>Si</c><c>   1</c></rc>
   </set>
  </array>
  <array name="atomtypes" >
   <dimension dim="1">type</dimension>
   <field type="int">atomspertype</field>
   <field type="string">element</field>
   <field>mass</field>
   <field>valence</field>
   <field type="string">pseudopotential</field>
   <set>
    <rc><c>   2</c><c>Si</c><c>     28.08500000</c><c>      4.00000000</c><c>  PAW_PBE Si 05Jan2001                  </c></rc>
   </set>
  </array>
 </atominfo>
 <structure name="initialpos" >
  <crystal>
   <varray name="basis" >
    <v>       3.34889800       0.00000000       1.93348700 </v>
    <v>       1.11629900       3.15737200       1.93348700 </v>
    <v>       0.00000000       0.00000000       3.86697500 </v>
   </varray>
   <i name="volume">     40.88829843 </i>
   <varray name="rec_basis" >
    <v>       0.29860569      -0.10557300       0.00000000 </v>
    <v>       0.00000000       0.31671909       0.00000000 </v>
    <v>      -0.14930281      -0.10557302       0.25860007 </v>
   </varray>
  </crystal>
  <varray name="positions" >
   <v>       0.25000000       0.25000000       0.25000000 </v>
   <v>       0.00000000       0.00000000       0.00000000 </v>
  </varray>
 </structure>
 <calculation>
  <scstep>
   <time name="dav">    0.20    0.20</time>
   <time name="total">    0.28    0.29</time>
   <energy>
    <i name="alphaZ">      3.29317992 </i>
    <i name="ewald">   -226.94489173 </i>
    <i name="hartreedc">    -11.32339116 </i>
    <i name="XCdc">    -18.68518031 </i>
    <i name="pawpsdc">    176.24759923 </i>
    <i name="pawaedc">   -141.06103558 </i>
    <i name="eentropy">     -0.00142836 </i>
    <i name="bandstr">     22.98145355 </i>
    <i name="atom">    206.13324734 </i>
    <i name="e_fr_energy">     10.63955289 </i>
    <i name="e_wo_entrp">     10.64098126 </i>
    <i name="e_0_energy">     10.64026708 </i>
   </energy>
  </scstep>
  <scstep>
   <time name="dav">    0.28    0.29</time>
   <time name="total">    0.29    0.29</time>
   <energy>
    <i name="e_fr_energy">    -10.72314482 </i>
    <i name="e_wo_entrp">    -10.72314482 </i>
    <i name="e_0_energy">    -10.72314482 </i>
   </energy>
  </scstep>
  <scstep>
   <time name="dav">    0.24    0.24</time>
   <time name="total">    0.24    0.24</time>
   <energy>
    <i name="e_fr_energy">    -10.99726633 </i>
    <i name="e_wo_entrp">    -10.99726633 </i>
    <i name="e_0_energy">    -10.99726633 </i>
   </energy>
  </scstep>
  <scstep>
   <time name="dav">    0.31    0.32</time>
   <time name="total">    0.31    0.32</time>
   <energy>
    <i name="e_fr_energy">    -10.99851840 </i>
    <i name="e_wo_entrp">    -10.99851840 </i>
    <i name="e_0_energy">    -10.99851840 </i>
   </energy>
  </scstep>
  <scstep>
   <time name="dav">    0.26    0.26</time>
   <time name="total">    0.28    0.28</time>
   <energy>
    <i name="e_fr_energy">    -10.99851888 </i>
    <i name="e_wo_entrp">    -10.99851888 </i>
    <i name="e_0_energy">    -10.99851888 </i>
   </energy>
  </scstep>
  <scstep>
   <time name="dav">    0.24    0.25</time>
   <time name="total">    0.34    0.35</time>
   <energy>
    <i name="e_fr_energy">    -10.87996995 </i>
    <i name="e_wo_entrp">    -10.87996995 </i>
    <i name="e_0_energy">    -10.87996995 </i>
   </energy>
  </scstep>
  <scstep>
   <time name="dav">    0.24    0.24</time>
   <time name="total">    0.35    0.35</time>
   <energy>
    <i name="e_fr_energy">    -10.82512141 </i>
    <i name="e_wo_entrp">    -10.82512141 </i>
    <i name="e_0_energy">    -10.82512141 </i>
   </energy>
  </scstep>
  <scstep>
   <time name="dav">    0.24    0.24</time>
   <time name="total">    0.34    0.35</time>
   <energy>
    <i name="e_fr_energy">    -10.82630766 </i>
    <i name="e_wo_entrp">    -10.82630766 </i>
    <i name="e_0_energy">    -10.82630766 </i>
   </energy>
  </scstep>
  <scstep>
   <time name="dav">    0.25    0.25</time>
   <time name="total">    0.36    0.36</time>
   <energy>
    <i name="e_fr_energy">    -10.82651416 </i>
    <i name="e_wo_entrp">    -10.82651416 </i>
    <i name="e_0_energy">    -10.82651416 </i>
   </energy>
  </scstep>
  <scstep>
   <time name="dav">    0.23    0.23</time>
   <time name="total">    0.34    0.34</time>
   <energy>
    <i name="e_fr_energy">    -10.82654343 </i>
    <i name="e_wo_entrp">    -10.82654343 </i>
    <i name="e_0_energy">    -10.82654343 </i>
   </energy>
  </scstep>
  <scstep>
   <time name="dav">    0.25    0.25</time>
   <time name="total">    0.36    0.36</time>
   <energy>
    <i name="e_fr_energy">    -10.82654307 </i>
    <i name="e_wo_entrp">    -10.82654307 </i>
    <i name="e_0_energy">    -10.82654307 </i>
   </energy>
  </scstep>
  <scstep>
   <time name="dav">    0.20    0.20</time>
   <time name="total">    0.30    0.30</time>
   <energy>
    <i name="e_fr_energy">    -10.82654341 </i>
    <i name="e_wo_entrp">    -10.82654341 </i>
    <i name="e_0_energy">    -10.82654341 </i>
   </energy>
  </scstep>
  <scstep>
   <time name="dav">    0.20    0.20</time>
   <time name="total">    0.30    0.30</time>
   <energy>
    <i name="alphaZ">      3.29317992 </i>
    <i name="ewald">   -226.94489173 </i>
    <i name="hartreedc">    -15.23230719 </i>
    <i name="XCdc">    -18.05408591 </i>
    <i name="pawpsdc">    830.56934260 </i>
    <i name="pawaedc">   -795.58946814 </i>
    <i name="eentropy">     -0.00000000 </i>
    <i name="bandstr">      4.99843971 </i>
    <i name="atom">    206.13324734 </i>
    <i name="e_fr_energy">    -10.82654341 </i>
    <i name="e_wo_entrp">    -10.82654341 </i>
    <i name="e_0_energy">    -10.82654341 </i>
   </energy>
  </scstep>
  <structure>
   <crystal>
    <varray name="basis" >
     <v>       3.34889800       0.00000000       1.93348700 </v>
     <v>       1.11629900       3.15737200       1.93348700 </v>
     <v>       0.00000000       0.00000000       3.86697500 </v>
    </varray>
    <i name="volume">     40.88829843 </i>
    <varray name="rec_basis" >
     <v>       0.29860569      -0.10557300       0.00000000 </v>
     <v>       0.00000000       0.31671909       0.00000000 </v>
     <v>      -0.14930281      -0.10557302       0.25860007 </v>
    </varray>
   </crystal>
   <varray name="positions" >
    <v>       0.25000000       0.25000000       0.25000000 </v>
    <v>       0.00000000       0.00000000       0.00000000 </v>
   </varray>
  </structure>
  <varray name="forces" >
   <v>      -0.00000000      -0.00000000      -0.00000000 </v>
   <v>       0.00000000       0.00000000       0.00000000 </v>
  </varray>
  <varray name="stress" >
   <v>       0.66758788      -0.00000007      -0.00000010 </v>
   <v>      -0.00000007       0.66758817      -0.00000007 </v>
   <v>      -0.00000010      -0.00000007       0.66758811 </v>
  </varray>
  <energy>
   <i name="e_fr_energy">    -10.82654341 </i>
   <i name="e_wo_entrp">    -10.82654341 </i>
   <i name="e_0_energy">    -10.82654341 </i>
  </energy>
  <kpoints>
   <generation param="Gamma">
    <v type="int" name="divisions">       6        6        6 </v>
    <v name="usershift">      0.00000000       0.00000000       0.00000000 </v>
    <v name="genvec1">      0.16666667      -0.00000000       0.00000000 </v>
    <v name="genvec2">      0.00000000       0.16666667       0.00000000 </v>
    <v name="genvec3">      0.00000000       0.00000000       0.16666667 </v>
    <v name="shift">      0.00000000       0.00000000       0.00000000 </v>
   </generation>
   <varray name="kpointlist" >
    <v>       0.00000000       0.00000000       0.00000000 </v>
    <v>       0.16666667       0.00000000       0.00000000 </v>
    <v>      -0.00000000       0.16666667       0.00000000 </v>
    <v>       0.00000000       0.00000000       0.16666667 </v>
    <v>       0.33333333       0.00000000       0.00000000 </v>
    <v>       0.00000000       0.33333333       0.00000000 </v>
    <v>       0.00000000       0.00000000       0.33333333 </v>
    <v>       0.50000000       0.00000000       0.00000000 </v>
    <v>       0.00000000       0.50000000       0.00000000 </v>
    <v>      -0.00000000       0.00000000       0.50000000 </v>
    <v>       0.16666667       0.16666667       0.00000000 </v>
    <v>       0.00000000       0.16666667       0.16666667 </v>
    <v>       0.33333333       0.16666667       0.00000000 </v>
    <v>       0.00000000       0.33333333       0.16666667 </v>
    <v>       0.16666667       0.00000000       0.33333333 </v>
    <v>       0.16666667       0.16666667      -0.16666667 </v>
    <v>       0.33333333       0.16666667       0.33333333 </v>
    <v>       0.16666667       0.33333333       0.00000000 </v>
    <v>       0.16666667      -0.16666667      -0.16666667 </v>
    <v>       0.50000000       0.16666667       0.00000000 </v>
    <v>       0.00000000       0.50000000       0.16666667 </v>
    <v>       0.16666667       0.00000000       0.50000000 </v>
    <v>       0.16666667       0.16666667      -0.33333333 </v>
    <v>       0.50000000       0.33333333       0.50000000 </v>
    <v>       0.16666667       0.50000000       0.00000000 </v>
    <v>       0.33333333      -0.16666667      -0.16666667 </v>
    <v>      -0.33333333       0.16666667       0.00000000 </v>
    <v>       0.00000000      -0.33333333       0.16666667 </v>
    <v>       0.16666667      -0.00000000      -0.33333333 </v>
    <v>       0.16666667       0.16666667       0.50000000 </v>
    <v>      -0.33333333       0.50000000      -0.33333333 </v>
    <v>       0.16666667      -0.33333333       0.00000000 </v>
    <v>       0.50000000      -0.16666667      -0.16666667 </v>
    <v>      -0.16666667       0.16666667       0.00000000 </v>
    <v>       0.00000000      -0.16666667       0.16666667 </v>
    <v>       0.16666667       0.00000000      -0.16666667 </v>
    <v>       0.16666667       0.16666667       0.33333333 </v>
    <v>       0.33333333       0.33333333       0.00000000 </v>
    <v>       0.00000000       0.33333333       0.33333333 </v>
    <v>       0.50000000       0.33333333       0.00000000 </v>
    <v>       0.00000000       0.50000000       0.33333333 </v>
    <v>       0.33333333       0.00000000       0.50000000 </v>
    <v>       0.33333333       0.33333333      -0.16666667 </v>
    <v>       0.50000000       0.16666667       0.50000000 </v>
    <v>       0.33333333       0.50000000       0.00000000 </v>
    <v>       0.16666667      -0.33333333      -0.33333333 </v>
    <v>      -0.33333333       0.33333333       0.00000000 </v>
    <v>       0.00000000      -0.33333333       0.33333333 </v>
    <v>       0.33333333      -0.00000000      -0.33333333 </v>
    <v>       0.33333333       0.33333333      -0.33333333 </v>
    <v>       0.50000000       0.50000000       0.00000000 </v>
    <v>      -0.00000000       0.50000000       0.50000000 </v>
    <v>       0.50000000       0.33333333       0.16666667 </v>
    <v>       0.16666667       0.50000000       0.33333333 </v>
    <v>       0.33333333       0.16666667       0.50000000 </v>
    <v>       0.50000000       0.16666667       0.33333333 </v>
    <v>       0.16666667      -0.33333333      -0.16666667 </v>
    <v>       0.16666667       0.33333333      -0.16666667 </v>
    <v>      -0.33333333       0.33333333       0.16666667 </v>
    <v>       0.16666667      -0.33333333       0.33333333 </v>
    <v>       0.33333333       0.16666667      -0.33333333 </v>
    <v>      -0.33333333       0.33333333       0.50000000 </v>
    <v>       0.16666667       0.50000000      -0.16666667 </v>
    <v>       0.33333333      -0.16666667      -0.33333333 </v>
    <v>       0.50000000      -0.33333333       0.33333333 </v>
    <v>      -0.33333333       0.50000000       0.16666667 </v>
    <v>       0.16666667      -0.33333333       0.50000000 </v>
    <v>       0.50000000       0.16666667      -0.33333333 </v>
   </varray>
   <varray name="weights" >
    <v>       0.00462963 </v>
    <v>       0.00925926 </v>
    <v>       0.00925926 </v>
    <v>       0.01851852 </v>
    <v>       0.00925926 </v>
    <v>       0.00925926 </v>
    <v>       0.01851852 </v>
    <v>       0.00462963 </v>
    <v>       0.00462963 </v>
    <v>       0.00925926 </v>
    <v>       0.00925926 </v>
    <v>       0.01851852 </v>
    <v>       0.00925926 </v>
    <v>       0.01851852 </v>
    <v>       0.01851852 </v>
    <v>       0.01851852 </v>
    <v>       0.01851852 </v>
    <v>       0.00925926 </v>
    <v>       0.01851852 </v>
    <v>       0.00925926 </v>
    <v>       0.01851852 </v>
    <v>       0.01851852 </v>
    <v>       0.01851852 </v>
    <v>       0.01851852 </v>
    <v>       0.00925926 </v>
    <v>       0.01851852 </v>
    <v>       0.00925926 </v>
    <v>       0.01851852 </v>
    <v>       0.01851852 </v>
    <v>       0.01851852 </v>
    <v>       0.01851852 </v>
    <v>       0.00925926 </v>
    <v>       0.01851852 </v>
    <v>       0.00925926 </v>
    <v>       0.01851852 </v>
    <v>       0.01851852 </v>
    <v>       0.00925926 </v>
    <v>       0.00925926 </v>
    <v>       0.01851852 </v>
    <v>       0.00925926 </v>
    <v>       0.01851852 </v>
    <v>       0.01851852 </v>
    <v>       0.01851852 </v>
    <v>       0.01851852 </v>
    <v>       0.00925926 </v>
    <v>       0.01851852 </v>
    <v>       0.00925926 </v>
    <v>       0.01851852 </v>
    <v>       0.01851852 </v>
    <v>       0.00925926 </v>
    <v>       0.00462963 </v>
    <v>       0.00925926 </v>
    <v>       0.01851852 </v>
    <v>       0.01851852 </v>
    <v>       0.01851852 </v>
    <v>       0.01851852 </v>
    <v>       0.01851852 </v>
    <v>       0.01851852 </v>
    <v>       0.01851852 </v>
    <v>       0.00925926 </v>
    <v>       0.01851852 </v>
    <v>       0.01851852 </v>
    <v>       0.01851852 </v>
    <v>       0.00925926 </v>
    <v>       0.01851852 </v>
    <v>       0.01851852 </v>
    <v>       0.01851852 </v>
    <v>       0.01851852 </v>
   </varray>
  </kpoints>
  <time name="totalsc">    4.54    4.57</time>
 </calculation>
 <calculation>
  <scstep>
   <time name="dav">    0.88    0.89</time>
   <time name="total">    1.02    1.02</time>
   <energy>
    <i name="alphaZ">      3.29317992 </i>
    <i name="ewald">   -226.94219990 </i>
    <i name="hartreedc">    -15.23256496 </i>
    <i name="XCdc">    -18.05412556 </i>
    <i name="pawpsdc">    830.61949454 </i>
    <i name="pawaedc">   -795.63961910 </i>
    <i name="eentropy">     -0.00000000 </i>
    <i name="bandstr">      4.99770670 </i>
    <i name="atom">    206.13324734 </i>
    <i name="e_fr_energy">    -10.82488103 </i>
    <i name="e_wo_entrp">    -10.82488103 </i>
    <i name="e_0_energy">    -10.82488103 </i>
   </energy>
  </scstep>
  <scstep>
   <time name="dav">    1.33    1.34</time>
   <time name="total">    1.45    1.46</time>
   <energy>
    <i name="e_fr_energy">    -10.82506245 </i>
    <i name="e_wo_entrp">    -10.82506245 </i>
    <i name="e_0_energy">    -10.82506245 </i>
   </energy>
  </scstep>
  <scstep>
   <time name="dav">    0.98    0.98</time>
   <time name="total">    1.11    1.11</time>
   <energy>
    <i name="e_fr_energy">    -10.82505259 </i>
    <i name="e_wo_entrp">    -10.82505259 </i>
    <i name="e_0_energy">    -10.82505259 </i>
   </energy>
  </scstep>
  <scstep>
   <time name="dav">    1.79    2.24</time>
   <time name="total">    1.96    2.41</time>
   <energy>
    <i name="e_fr_energy">    -10.82505177 </i>
    <i name="e_wo_entrp">    -10.82505177 </i>
    <i name="e_0_energy">    -10.82505177 </i>
   </energy>
  </scstep>
  <scstep>
   <time name="dav">    1.29    1.32</time>
   <time name="total">    1.46    1.50</time>
   <energy>
    <i name="e_fr_energy">    -10.82505153 </i>
    <i name="e_wo_entrp">    -10.82505153 </i>
    <i name="e_0_energy">    -10.82505153 </i>
   </energy>
  </scstep>
  <scstep>
   <time name="dav">    1.06    1.14</time>
   <time name="total">    1.16    1.24</time>
   <energy>
    <i name="alphaZ">      3.29317992 </i>
    <i name="ewald">   -226.94219990 </i>
    <i name="hartreedc">    -15.23252328 </i>
    <i name="XCdc">    -18.05408984 </i>
    <i name="pawpsdc">    830.69049220 </i>
    <i name="pawaedc">   -795.71067588 </i>
    <i name="eentropy">     -0.00000000 </i>
    <i name="bandstr">      4.99751791 </i>
    <i name="atom">    206.13324734 </i>
    <i name="e_fr_energy">    -10.82505154 </i>
    <i name="e_wo_entrp">    -10.82505154 </i>
    <i name="e_0_energy">    -10.82505154 </i>
   </energy>
  </scstep>
  <structure>
   <crystal>
    <varray name="basis" >
     <v>       3.34889800       0.00000000       1.93348700 </v>
     <v>       1.11629900       3.15737200       1.93348700 </v>
     <v>       0.00000000       0.00000000       3.86697500 </v>
    </varray>
    <i name="volume">     40.88829843 </i>
    <varray name="rec_basis" >
     <v>       0.29860569      -0.10557300       0.00000000 </v>
     <v>       0.00000000       0.31671909       0.00000000 </v>
     <v>      -0.14930281      -0.10557302       0.25860007 </v>
    </varray>
   </crystal>
   <varray name="positions" >
    <v>       0.25447909       0.25000000       0.24776046 </v>
    <v>       0.00000000       0.00000000       0.00000000 </v>
   </varray>
  </structure>
  <varray name="forces" >
   <v>      -0.19995954       0.00221672       0.00000003 </v>
   <v>       0.19995954      -0.00221672      -0.00000003 </v>
  </varray>
  <varray name="stress" >
   <v>       5.09595001      -3.10267916      -0.00000043 </v>
   <v>      -3.10267923       0.68331224       0.00000039 </v>
   <v>      -0.00000043       0.00000039      -3.54631762 </v>
  </varray>
  <energy>
   <i name="e_fr_energy">    -10.82505154 </i>
   <i name="e_wo_entrp">    -10.82505154 </i>
   <i name="e_0_energy">    -10.82505154 </i>
  </energy>
  <kpoints>
   <generation param="Gamma">
    <v type="int" name="divisions">       6        6        6 </v>
    <v name="usershift">      0.00000000       0.00000000       0.00000000 </v>
    <v name="genvec1">      0.16666667      -0.00000000       0.00000000 </v>
    <v name="genvec2">      0.00000000       0.16666667       0.00000000 </v>
    <v name="genvec3">      0.00000000       0.00000000       0.16666667 </v>
    <v name="shift">      0.00000000       0.00000000       0.00000000 </v>
   </generation>
   <varray name="kpointlist" >
    <v>       0.00000000       0.00000000       0.00000000 </v>
    <v>       0.16666667       0.00000000       0.00000000 </v>
    <v>      -0.00000000       0.16666667       0.00000000 </v>
    <v>       0.00000000       0.00000000       0.16666667 </v>
    <v>       0.33333333       0.00000000       0.00000000 </v>
    <v>       0.00000000       0.33333333       0.00000000 </v>
    <v>       0.00000000       0.00000000       0.33333333 </v>
    <v>       0.50000000       0.00000000       0.00000000 </v>
    <v>       0.00000000       0.50000000       0.00000000 </v>
    <v>      -0.00000000       0.00000000       0.50000000 </v>
    <v>       0.16666667       0.16666667       0.00000000 </v>
    <v>       0.00000000       0.16666667       0.16666667 </v>
    <v>       0.33333333       0.16666667       0.00000000 </v>
    <v>       0.00000000       0.33333333       0.16666667 </v>
    <v>       0.16666667       0.00000000       0.33333333 </v>
    <v>       0.16666667       0.16666667      -0.16666667 </v>
    <v>       0.33333333       0.16666667       0.33333333 </v>
    <v>       0.16666667       0.33333333       0.00000000 </v>
    <v>       0.16666667      -0.16666667      -0.16666667 </v>
    <v>       0.50000000       0.16666667       0.00000000 </v>
    <v>       0.00000000       0.50000000       0.16666667 </v>
    <v>       0.16666667       0.00000000       0.50000000 </v>
    <v>       0.16666667       0.16666667      -0.33333333 </v>
    <v>       0.50000000       0.33333333       0.50000000 </v>
    <v>       0.16666667       0.50000000       0.00000000 </v>
    <v>       0.33333333      -0.16666667      -0.16666667 </v>
    <v>      -0.33333333       0.16666667       0.00000000 </v>
    <v>       0.00000000      -0.33333333       0.16666667 </v>
    <v>       0.16666667      -0.00000000      -0.33333333 </v>
    <v>       0.16666667       0.16666667       0.50000000 </v>
    <v>      -0.33333333       0.50000000      -0.33333333 </v>
    <v>       0.16666667      -0.33333333       0.00000000 </v>
    <v>       0.50000000      -0.16666667      -0.16666667 </v>
    <v>      -0.16666667       0.16666667       0.00000000 </v>
    <v>       0.00000000      -0.16666667       0.16666667 </v>
    <v>       0.16666667       0.00000000      -0.16666667 </v>
    <v>       0.16666667       0.16666667       0.33333333 </v>
    <v>       0.33333333       0.33333333       0.00000000 </v>
    <v>       0.00000000       0.33333333       0.33333333 </v>
    <v>       0.50000000       0.33333333       0.00000000 </v>
    <v>       0.00000000       0.50000000       0.33333333 </v>
    <v>       0.33333333       0.00000000       0.50000000 </v>
    <v>       0.33333333       0.33333333      -0.16666667 </v>
    <v>       0.50000000       0.16666667       0.50000000 </v>
    <v>       0.33333333       0.50000000       0.00000000 </v>
    <v>       0.16666667      -0.33333333      -0.33333333 </v>
    <v>      -0.33333333       0.33333333       0.00000000 </v>
    <v>       0.00000000      -0.33333333       0.33333333 </v>
    <v>       0.33333333      -0.00000000      -0.33333333 </v>
    <v>       0.33333333       0.33333333      -0.33333333 </v>
    <v>       0.50000000       0.50000000       0.00000000 </v>
    <v>      -0.00000000       0.50000000       0.50000000 </v>
    <v>       0.50000000       0.33333333       0.16666667 </v>
    <v>       0.16666667       0.50000000       0.33333333 </v>
    <v>       0.33333333       0.16666667       0.50000000 </v>
    <v>       0.50000000       0.16666667       0.33333333 </v>
    <v>       0.16666667      -0.33333333      -0.16666667 </v>
    <v>       0.16666667       0.33333333      -0.16666667 </v>
    <v>      -0.33333333       0.33333333       0.16666667 </v>
    <v>       0.16666667      -0.33333333       0.33333333 </v>
    <v>       0.33333333       0.16666667      -0.33333333 </v>
    <v>      -0.33333333       0.33333333       0.50000000 </v>
    <v>       0.16666667       0.50000000      -0.16666667 </v>
    <v>       0.33333333      -0.16666667      -0.33333333 </v>
    <v>       0.50000000      -0.33333333       0.33333333 </v>
    <v>      -0.33333333       0.50000000       0.16666667 </v>
    <v>       0.16666667      -0.33333333       0.50000000 </v>
    <v>       0.50000000       0.16666667      -0.33333333 </v>
   </varray>
   <varray name="weights" >
    <v>       0.00462963 </v>
    <v>       0.00925926 </v>
    <v>       0.00925926 </v>
    <v>       0.01851852 </v>
    <v>       0.00925926 </v>
    <v>       0.00925926 </v>
    <v>       0.01851852 </v>
    <v>       0.00462963 </v>
    <v>       0.00462963 </v>
    <v>       0.00925926 </v>
    <v>       0.00925926 </v>
    <v>       0.01851852 </v>
    <v>       0.00925926 </v>
    <v>       0.01851852 </v>
    <v>       0.01851852 </v>
    <v>       0.01851852 </v>
    <v>       0.01851852 </v>
    <v>       0.00925926 </v>
    <v>       0.01851852 </v>
    <v>       0.00925926 </v>
    <v>       0.01851852 </v>
    <v>       0.01851852 </v>
    <v>       0.01851852 </v>
    <v>       0.01851852 </v>
    <v>       0.00925926 </v>
    <v>       0.01851852 </v>
    <v>       0.00925926 </v>
    <v>       0.01851852 </v>
    <v>       0.01851852 </v>
    <v>       0.01851852 </v>
    <v>       0.01851852 </v>
    <v>       0.00925926 </v>
    <v>       0.01851852 </v>
    <v>       0.00925926 </v>
    <v>       0.01851852 </v>
    <v>       0.01851852 </v>
    <v>       0.00925926 </v>
    <v>       0.00925926 </v>
    <v>       0.01851852 </v>
    <v>       0.00925926 </v>
    <v>       0.01851852 </v>
    <v>       0.01851852 </v>
    <v>       0.01851852 </v>
    <v>       0.01851852 </v>
    <v>       0.00925926 </v>
    <v>       0.01851852 </v>
    <v>       0.00925926 </v>
    <v>       0.01851852 </v>
    <v>       0.01851852 </v>
    <v>       0.00925926 </v>
    <v>       0.00462963 </v>
    <v>       0.00925926 </v>
    <v>       0.01851852 </v>
    <v>       0.01851852 </v>
    <v>       0.01851852 </v>
    <v>       0.01851852 </v>
    <v>       0.01851852 </v>
    <v>       0.01851852 </v>
    <v>       0.01851852 </v>
    <v>       0.00925926 </v>
    <v>       0.01851852 </v>
    <v>       0.01851852 </v>
    <v>       0.01851852 </v>
    <v>       0.00925926 </v>
    <v>       0.01851852 </v>
    <v>       0.01851852 </v>
    <v>       0.01851852 </v>
    <v>       0.01851852 </v>
   </varray>
  </kpoints>
  <time name="totalsc">    8.95    9.55</time>
 </calculation>
 <calculation>
  <scstep>
   <time name="dav">    1.08    1.11</time>
   <time name="total">    1.25    1.29</time>
   <energy>
    <i name="alphaZ">      3.29317992 </i>
    <i name="ewald">   -226.94227279 </i>
    <i name="hartreedc">    -15.23185830 </i>
    <i name="XCdc">    -18.05419205 </i>
    <i name="pawpsdc">    830.69831670 </i>
    <i name="pawaedc">   -795.71849915 </i>
    <i name="eentropy">     -0.00000000 </i>
    <i name="bandstr">      4.99738328 </i>
    <i name="atom">    206.13324734 </i>
    <i name="e_fr_energy">    -10.82469505 </i>
    <i name="e_wo_entrp">    -10.82469505 </i>
    <i name="e_0_energy">    -10.82469505 </i>
   </energy>
  </scstep>
  <scstep>
   <time name="dav">    1.45    1.51</time>
   <time name="total">    1.60    1.67</time>
   <energy>
    <i name="e_fr_energy">    -10.82512033 </i>
    <i name="e_wo_entrp">    -10.82512033 </i>
    <i name="e_0_energy">    -10.82512033 </i>
   </energy>
  </scstep>
  <scstep>
   <time name="dav">    1.28    1.36</time>
   <time name="total">    1.44    1.52</time>
   <energy>
    <i name="e_fr_energy">    -10.82508385 </i>
    <i name="e_wo_entrp">    -10.82508385 </i>
    <i name="e_0_energy">    -10.82508385 </i>
   </energy>
  </scstep>
  <scstep>
   <time name="dav">    1.30    1.36</time>
   <time name="total">    1.45    1.51</time>
   <energy>
    <i name="e_fr_energy">    -10.82508334 </i>
    <i name="e_wo_entrp">    -10.82508334 </i>
    <i name="e_0_energy">    -10.82508334 </i>
   </energy>
  </scstep>
  <scstep>
   <time name="dav">    1.16    1.19</time>
   <time name="total">    1.30    1.33</time>
   <energy>
    <i name="e_fr_energy">    -10.82508259 </i>
    <i name="e_wo_entrp">    -10.82508259 </i>
    <i name="e_0_energy">    -10.82508259 </i>
   </energy>
  </scstep>
  <scstep>
   <time name="dav">    1.12    1.14</time>
   <time name="total">    1.20    1.22</time>
   <energy>
    <i name="alphaZ">      3.29317992 </i>
    <i name="ewald">   -226.94227279 </i>
    <i name="hartreedc">    -15.23246591 </i>
    <i name="XCdc">    -18.05409123 </i>
    <i name="pawpsdc">    830.72354407 </i>
    <i name="pawaedc">   -795.74372224 </i>
    <i name="eentropy">     -0.00000000 </i>
    <i name="bandstr">      4.99749825 </i>
    <i name="atom">    206.13324734 </i>
    <i name="e_fr_energy">    -10.82508260 </i>
    <i name="e_wo_entrp">    -10.82508260 </i>
    <i name="e_0_energy">    -10.82508260 </i>
   </energy>
  </scstep>
  <structure>
   <crystal>
    <varray name="basis" >
     <v>       3.34889800       0.00000000       1.93348700 </v>
     <v>       1.11629900       3.15737200       1.93348700 </v>
     <v>       0.00000000       0.00000000       3.86697500 </v>
    </varray>
    <i name="volume">     40.88829843 </i>
    <varray name="rec_basis" >
     <v>       0.29860569      -0.10557300       0.00000000 </v>
     <v>       0.00000000       0.31671909       0.00000000 </v>
     <v>      -0.14930281      -0.10557302       0.25860007 </v>
    </varray>
   </crystal>
   <varray name="positions" >
    <v>       0.24552091       0.25000000       0.25223954 </v>
    <v>       0.00000000       0.00000000       0.00000000 </v>
   </varray>
  </structure>
  <varray name="forces" >
   <v>       0.19372256       0.00217925      -0.00000003 </v>
   <v>      -0.19372256      -0.00217925       0.00000003 </v>
  </varray>
  <varray name="stress" >
   <v>      -3.45297819       2.94175449       0.00000020 </v>
   <v>       2.94175472       0.68468867      -0.00000051 </v>
   <v>       0.00000020      -0.00000051       5.00029706 </v>
  </varray>
  <energy>
   <i name="e_fr_energy">    -10.82508260 </i>
   <i name="e_wo_entrp">    -10.82508260 </i>
   <i name="e_0_energy">    -10.82508260 </i>
  </energy>
  <dynmat>
   <i name="unit" type="string">THz^2 </i>
   <varray name="hessian" >
    <v>    -114.19501211       0.00001206       0.00001705     114.19501211      -0.00001206      -0.00001705 </v>
    <v>       0.00001206    -114.19506175       0.00001206      -0.00001206     114.19506175      -0.00001206 </v>
    <v>       0.00001705       0.00001206    -114.19505206      -0.00001705      -0.00001206     114.19505206 </v>
    <v>     114.19501211      -0.00001206      -0.00001705    -114.19501211       0.00001206       0.00001705 </v>
    <v>      -0.00001206     114.19506175      -0.00001206       0.00001206    -114.19506175       0.00001206 </v>
    <v>      -0.00001705      -0.00001206     114.19505206       0.00001705       0.00001206    -114.19505206 </v>
   </varray>
   <v name="eigenvalues"> -2.28390140E+002 -2.28390108E+002 -2.28390004E+002 -2.72566072E-014  8.93843032E-016  4.57130004E-014</v>
   <varray name="eigenvectors" >
    <v>   7.61218055E-003 -5.89224218E-001  3.90841240E-001 -7.61218055E-003  5.89224218E-001 -3.90841240E-001</v>
    <v>  -3.13790714E-001  3.47449428E-001  5.29919128E-001  3.13790714E-001 -3.47449428E-001 -5.29919128E-001</v>
    <v>  -6.33622476E-001 -1.79147189E-001 -2.57737933E-001  6.33622476E-001  1.79147189E-001  2.57737933E-001</v>
    <v>   6.92792597E-001  1.28710256E-001 -5.89244271E-002  6.92792597E-001  1.28710256E-001 -5.89244271E-002</v>
    <v>  -1.01466207E-001  2.46276402E-001 -6.55021025E-001 -1.01466207E-001  2.46276402E-001 -6.55021025E-001</v>
    <v>  -9.87067717E-002  6.50216582E-001  2.59760215E-001 -9.87067717E-002  6.50216582E-001  2.59760215E-001</v>
   </varray>
   <array name="force_constants" >
    <dimension dim="1">cart_super</dimension>
    <dimension dim="2">ion_super</dimension>
    <dimension dim="3">ion_primitive</dimension>
    <field>f_cart_prim_1</field>
    <field>f_cart_prim_2</field>
    <field>f_cart_prim_3</field>
    <set>
     <set comment="ionprim 1">
      <set comment="ion 1">
       <r>     -13.12260666      0.00000139      0.00000196</r>
       <r>       0.00000139    -13.12261236      0.00000139</r>
       <r>       0.00000196      0.00000139    -13.12261125</r>
      </set>
      <set comment="ion 2">
       <r>      13.12260666     -0.00000139     -0.00000196</r>
       <r>      -0.00000139     13.12261236     -0.00000139</r>
       <r>      -0.00000196     -0.00000139     13.12261125</r>
      </set>
     </set>
     <set comment="ionprim 2">
      <set comment="ion 1">
       <r>      13.12260666     -0.00000139     -0.00000196</r>
       <r>      -0.00000139     13.12261236     -0.00000139</r>
       <r>      -0.00000196     -0.00000139     13.12261125</r>
      </set>
      <set comment="ion 2">
       <r>     -13.12260666      0.00000139      0.00000196</r>
       <r>       0.00000139    -13.12261236      0.00000139</r>
       <r>       0.00000196      0.00000139    -13.12261125</r>
      </set>
     </set>
    </set>
   </array>
  </dynmat>
  <kpoints>
   <generation param="Gamma">
    <v type="int" name="divisions">       6        6        6 </v>
    <v name="usershift">      0.00000000       0.00000000       0.00000000 </v>
    <v name="genvec1">      0.16666667      -0.00000000       0.00000000 </v>
    <v name="genvec2">      0.00000000       0.16666667       0.00000000 </v>
    <v name="genvec3">      0.00000000       0.00000000       0.16666667 </v>
    <v name="shift">      0.00000000       0.00000000       0.00000000 </v>
   </generation>
   <varray name="kpointlist" >
    <v>       0.00000000       0.00000000       0.00000000 </v>
    <v>       0.16666667       0.00000000       0.00000000 </v>
    <v>       0.33333333       0.00000000       0.00000000 </v>
    <v>       0.50000000       0.00000000       0.00000000 </v>
    <v>       0.16666667       0.16666667       0.00000000 </v>
    <v>       0.33333333       0.16666667       0.00000000 </v>
    <v>       0.50000000       0.16666667       0.00000000 </v>
    <v>      -0.33333333       0.16666667       0.00000000 </v>
    <v>      -0.16666667       0.16666667       0.00000000 </v>
    <v>       0.33333333       0.33333333       0.00000000 </v>
    <v>       0.50000000       0.33333333       0.00000000 </v>
    <v>      -0.33333333       0.33333333       0.00000000 </v>
    <v>       0.50000000       0.50000000       0.00000000 </v>
    <v>       0.50000000       0.33333333       0.16666667 </v>
    <v>      -0.33333333       0.33333333       0.16666667 </v>
    <v>      -0.33333333       0.50000000       0.16666667 </v>
   </varray>
   <varray name="weights" >
    <v>       0.00462963 </v>
    <v>       0.03703704 </v>
    <v>       0.03703704 </v>
    <v>       0.01851852 </v>
    <v>       0.02777778 </v>
    <v>       0.11111111 </v>
    <v>       0.11111111 </v>
    <v>       0.11111111 </v>
    <v>       0.05555556 </v>
    <v>       0.02777778 </v>
    <v>       0.11111111 </v>
    <v>       0.05555556 </v>
    <v>       0.01388889 </v>
    <v>       0.11111111 </v>
    <v>       0.11111111 </v>
    <v>       0.05555556 </v>
   </varray>
  </kpoints>
  <time name="totalsc">    8.88    9.19</time>
  <eigenvalues>
   <array>
    <dimension dim="1">band</dimension>
    <dimension dim="2">kpoint</dimension>
    <dimension dim="3">spin</dimension>
    <field>eigene</field>
    <field>occ</field>
    <set>
     <set comment="spin 1">
      <set comment="kpoint 1">
       <r>   -6.1923    1.0000 </r>
       <r>    5.5655    1.0000 </r>
       <r>    5.6028    1.0000 </r>
       <r>    5.7043    1.0000 </r>
       <r>    8.1301    0.0000 </r>
       <r>    8.1896    0.0000 </r>
       <r>    8.2122    0.0000 </r>
       <r>    8.7583    0.0000 </r>
      </set>
      <set comment="kpoint 2">
       <r>   -5.8392    1.0000 </r>
       <r>    3.3053    1.0000 </r>
       <r>    5.1400    1.0000 </r>
       <r>    5.1739    1.0000 </r>
       <r>    7.8825    0.0000 </r>
       <r>    8.7995    0.0000 </r>
       <r>    8.8258    0.0000 </r>
       <r>   10.9198    0.0000 </r>
      </set>
      <set comment="kpoint 3">
       <r>   -4.8511    1.0000 </r>
       <r>    0.3962    1.0000 </r>
       <r>    4.6086    1.0000 </r>
       <r>    4.6401    1.0000 </r>
       <r>    7.2960    0.0000 </r>
       <r>    9.0843    0.0000 </r>
       <r>    9.1204    0.0000 </r>
       <r>   13.3971    0.0000 </r>
      </set>
      <set comment="kpoint 4">
       <r>   -3.9408    1.0000 </r>
       <r>   -1.1868    1.0000 </r>
       <r>    4.4151    1.0000 </r>
       <r>    4.4465    1.0000 </r>
       <r>    7.0719    0.0000 </r>
       <r>    8.9290    0.0000 </r>
       <r>    8.9660    0.0000 </r>
       <r>   13.3024    0.0000 </r>
      </set>
      <set comment="kpoint 5">
       <r>   -5.7168    1.0000 </r>
       <r>    3.5691    1.0000 </r>
       <r>    4.4252    1.0000 </r>
       <r>    4.4916    1.0000 </r>
       <r>    7.3348    0.0000 </r>
       <r>    9.8334    0.0000 </r>
       <r>    9.9155    0.0000 </r>
       <r>    9.9325    0.0000 </r>
      </set>
      <set comment="kpoint 6">
       <r>   -4.9209    1.0000 </r>
       <r>    1.2556    1.0000 </r>
       <r>    3.6543    1.0000 </r>
       <r>    3.8885    1.0000 </r>
       <r>    7.5686    0.0000 </r>
       <r>    9.6540    0.0000 </r>
       <r>   10.1090    0.0000 </r>
       <r>   10.6416    0.0000 </r>
      </set>
      <set comment="kpoint 7">
       <r>   -3.7759    1.0000 </r>
       <r>   -0.8467    1.0000 </r>
       <r>    2.8847    1.0000 </r>
       <r>    3.8566    1.0000 </r>
       <r>    7.6317    0.0000 </r>
       <r>    9.6676    0.0000 </r>
       <r>   10.2173    0.0000 </r>
       <r>   12.0163    0.0000 </r>
      </set>
      <set comment="kpoint 8">
       <r>   -4.1437    1.0000 </r>
       <r>   -0.2645    1.0000 </r>
       <r>    2.6216    1.0000 </r>
       <r>    4.3184    1.0000 </r>
       <r>    8.0184    0.0000 </r>
       <r>    9.6835    0.0000 </r>
       <r>    9.8386    0.0000 </r>
       <r>   12.8308    0.0000 </r>
      </set>
      <set comment="kpoint 9">
       <r>   -5.2635    1.0000 </r>
       <r>    1.9673    1.0000 </r>
       <r>    3.2584    1.0000 </r>
       <r>    5.0203    1.0000 </r>
       <r>    8.5781    0.0000 </r>
       <r>    9.1923    0.0000 </r>
       <r>    9.4146    0.0000 </r>
       <r>   11.2059    0.0000 </r>
      </set>
      <set comment="kpoint 10">
       <r>   -4.3224    1.0000 </r>
       <r>    0.6335    1.0000 </r>
       <r>    3.2323    1.0000 </r>
       <r>    3.2787    1.0000 </r>
       <r>    6.3785    0.0000 </r>
       <r>    7.6429    0.0000 </r>
       <r>   12.7945    0.0000 </r>
       <r>   12.7966    0.0000 </r>
      </set>
      <set comment="kpoint 11">
       <r>   -3.1944    1.0000 </r>
       <r>   -0.8683    1.0000 </r>
       <r>    2.0813    1.0000 </r>
       <r>    3.0987    1.0000 </r>
       <r>    6.6889    0.0000 </r>
       <r>    8.3715    0.0000 </r>
       <r>   12.9811    0.0000 </r>
       <r>   12.9895    0.0000 </r>
      </set>
      <set comment="kpoint 12">
       <r>   -3.0173    1.0000 </r>
       <r>   -1.0511    1.0000 </r>
       <r>    1.3201    1.0000 </r>
       <r>    3.5272    1.0000 </r>
       <r>    7.1770    0.0000 </r>
       <r>   11.4336    0.0000 </r>
       <r>   12.0606    0.0000 </r>
       <r>   12.5642    0.0000 </r>
      </set>
      <set comment="kpoint 13">
       <r>   -2.1619    1.0000 </r>
       <r>   -2.0844    1.0000 </r>
       <r>    2.8071    1.0000 </r>
       <r>    2.8491    1.0000 </r>
       <r>    6.3426    0.0000 </r>
       <r>    6.4020    0.0000 </r>
       <r>   15.5496    0.0000 </r>
       <r>   15.5689    0.0000 </r>
      </set>
      <set comment="kpoint 14">
       <r>   -3.9507    1.0000 </r>
       <r>    0.0332    1.0000 </r>
       <r>    2.1306    1.0000 </r>
       <r>    3.3640    1.0000 </r>
       <r>    8.4711    0.0000 </r>
       <r>    9.3385    0.0000 </r>
       <r>    9.7873    0.0000 </r>
       <r>   12.6077    0.0000 </r>
      </set>
      <set comment="kpoint 15">
       <r>   -3.0147    1.0000 </r>
       <r>   -1.1008    1.0000 </r>
       <r>    1.6904    1.0000 </r>
       <r>    2.9039    1.0000 </r>
       <r>    8.9603    0.0000 </r>
       <r>    9.1246    0.0000 </r>
       <r>   11.7300    0.0000 </r>
       <r>   12.0545    0.0000 </r>
      </set>
      <set comment="kpoint 16">
       <r>   -2.0470    1.0000 </r>
       <r>   -1.9727    1.0000 </r>
       <r>    2.0394    1.0000 </r>
       <r>    2.0842    1.0000 </r>
       <r>    8.3434    0.0000 </r>
       <r>    8.4022    0.0000 </r>
       <r>   12.2967    0.0000 </r>
       <r>   12.3229    0.0000 </r>
      </set>
     </set>
    </set>
   </array>
  </eigenvalues>
  <separator name="orbital magnetization" >
   <v name="MAGDIPOLOUT">      0.00000000      0.00000000      0.00000000</v>
  </separator>
  <dos>
   <i name="efermi">      5.96617416 </i>
   <total>
    <array>
     <dimension dim="1">gridpoints</dimension>
     <dimension dim="2">spin</dimension>
     <field>energy</field>
     <field>total</field>
     <field>integrated</field>
     <set>
      <set comment="spin 1">
       <r>    -7.2804     0.0000     0.0000 </r>
       <r>    -7.2006     0.0000     0.0000 </r>
       <r>    -7.1208     0.0000     0.0000 </r>
       <r>    -7.0410     0.0000     0.0000 </r>
       <r>    -6.9612     0.0000     0.0000 </r>
       <r>    -6.8814     0.0000     0.0000 </r>
       <r>    -6.8016     0.0000     0.0000 </r>
       <r>    -6.7218     0.0000     0.0000 </r>
       <r>    -6.6421     0.0000     0.0000 </r>
       <r>    -6.5623     0.0000     0.0000 </r>
       <r>    -6.4825     0.0000     0.0000 </r>
       <r>    -6.4027     0.0000     0.0000 </r>
       <r>    -6.3229     0.0000     0.0000 </r>
       <r>    -6.2431     0.0087     0.0007 </r>
       <r>    -6.1633     0.0834     0.0074 </r>
       <r>    -6.0835     0.0238     0.0092 </r>
       <r>    -6.0037     0.0001     0.0093 </r>
       <r>    -5.9239     0.0077     0.0099 </r>
       <r>    -5.8441     0.4047     0.0422 </r>
       <r>    -5.7644     0.5623     0.0870 </r>
       <r>    -5.6846     0.5241     0.1288 </r>
       <r>    -5.6048     0.1254     0.1388 </r>
       <r>    -5.5250     0.0005     0.1389 </r>
       <r>    -5.4452     0.0000     0.1389 </r>
       <r>    -5.3654     0.0028     0.1391 </r>
       <r>    -5.2856     0.3681     0.1685 </r>
       <r>    -5.2058     0.9503     0.2443 </r>
       <r>    -5.1260     0.0713     0.2500 </r>
       <r>    -5.0462     0.0006     0.2500 </r>
       <r>    -4.9664     0.2758     0.2721 </r>
       <r>    -4.8867     2.1919     0.4469 </r>
       <r>    -4.8069     1.1453     0.5383 </r>
       <r>    -4.7271     0.0996     0.5463 </r>
       <r>    -4.6473     0.0002     0.5463 </r>
       <r>    -4.5675     0.0000     0.5463 </r>
       <r>    -4.4877     0.0000     0.5463 </r>
       <r>    -4.4079     0.0054     0.5467 </r>
       <r>    -4.3281     0.2980     0.5705 </r>
       <r>    -4.2483     0.3846     0.6012 </r>
       <r>    -4.1685     0.6800     0.6554 </r>
       <r>    -4.0887     1.9462     0.8107 </r>
       <r>    -4.0090     0.3182     0.8361 </r>
       <r>    -3.9292     2.1715     1.0094 </r>
       <r>    -3.8494     0.9710     1.0869 </r>
       <r>    -3.7696     1.5447     1.2101 </r>
       <r>    -3.6898     1.1753     1.3039 </r>
       <r>    -3.6100     0.0208     1.3056 </r>
       <r>    -3.5302     0.0000     1.3056 </r>
       <r>    -3.4504     0.0000     1.3056 </r>
       <r>    -3.3706     0.0000     1.3056 </r>
       <r>    -3.2908     0.0089     1.3063 </r>
       <r>    -3.2110     0.8786     1.3764 </r>
       <r>    -3.1312     1.7965     1.5197 </r>
       <r>    -3.0515     0.7496     1.5795 </r>
       <r>    -2.9717     3.0810     1.8254 </r>
       <r>    -2.8919     0.4470     1.8610 </r>
       <r>    -2.8121     0.0010     1.8611 </r>
       <r>    -2.7323     0.0000     1.8611 </r>
       <r>    -2.6525     0.0000     1.8611 </r>
       <r>    -2.5727     0.0000     1.8611 </r>
       <r>    -2.4929     0.0000     1.8611 </r>
       <r>    -2.4131     0.0000     1.8611 </r>
       <r>    -2.3333     0.0000     1.8611 </r>
       <r>    -2.2535     0.0017     1.8612 </r>
       <r>    -2.1738     0.1290     1.8715 </r>
       <r>    -2.0940     0.4734     1.9093 </r>
       <r>    -2.0142     1.3982     2.0209 </r>
       <r>    -1.9344     1.2840     2.1233 </r>
       <r>    -1.8546     0.1945     2.1388 </r>
       <r>    -1.7748     0.0006     2.1389 </r>
       <r>    -1.6950     0.0000     2.1389 </r>
       <r>    -1.6152     0.0000     2.1389 </r>
       <r>    -1.5354     0.0000     2.1389 </r>
       <r>    -1.4556     0.0000     2.1389 </r>
       <r>    -1.3758     0.0000     2.1389 </r>
       <r>    -1.2961     0.0005     2.1389 </r>
       <r>    -1.2163     0.0950     2.1465 </r>
       <r>    -1.1365     0.7803     2.2088 </r>
       <r>    -1.0567     2.6868     2.4232 </r>
       <r>    -0.9769     1.0568     2.5075 </r>
       <r>    -0.8971     0.8150     2.5725 </r>
       <r>    -0.8173     4.0043     2.8920 </r>
       <r>    -0.7375     0.7702     2.9535 </r>
       <r>    -0.6577     0.0031     2.9537 </r>
       <r>    -0.5779     0.0000     2.9537 </r>
       <r>    -0.4981     0.0000     2.9537 </r>
       <r>    -0.4184     0.0000     2.9537 </r>
       <r>    -0.3386     0.0505     2.9577 </r>
       <r>    -0.2588     1.5224     3.0792 </r>
       <r>    -0.1790     1.1905     3.1742 </r>
       <r>    -0.0992     0.0219     3.1759 </r>
       <r>    -0.0194     0.1898     3.1911 </r>
       <r>     0.0604     1.9787     3.3490 </r>
       <r>     0.1402     0.6129     3.3979 </r>
       <r>     0.2200     0.0035     3.3981 </r>
       <r>     0.2998     0.0030     3.3984 </r>
       <r>     0.3796     0.2928     3.4217 </r>
       <r>     0.4593     0.5981     3.4695 </r>
       <r>     0.5391     0.0371     3.4724 </r>
       <r>     0.6189     0.2339     3.4911 </r>
       <r>     0.6987     0.4371     3.5260 </r>
       <r>     0.7785     0.0227     3.5278 </r>
       <r>     0.8583     0.0000     3.5278 </r>
       <r>     0.9381     0.0000     3.5278 </r>
       <r>     1.0179     0.0000     3.5278 </r>
       <r>     1.0977     0.0000     3.5278 </r>
       <r>     1.1775     0.0378     3.5308 </r>
       <r>     1.2573     1.4597     3.6473 </r>
       <r>     1.3370     2.2108     3.8237 </r>
       <r>     1.4168     0.4649     3.8608 </r>
       <r>     1.4966     0.0043     3.8611 </r>
       <r>     1.5764     0.0018     3.8613 </r>
       <r>     1.6562     0.4633     3.8982 </r>
       <r>     1.7360     2.0459     4.0615 </r>
       <r>     1.8158     0.2736     4.0833 </r>
       <r>     1.8956     0.0302     4.0857 </r>
       <r>     1.9754     0.8469     4.1533 </r>
       <r>     2.0552     2.4154     4.3460 </r>
       <r>     2.1350     4.9085     4.7377 </r>
       <r>     2.2147     1.5227     4.8592 </r>
       <r>     2.2945     0.0246     4.8611 </r>
       <r>     2.3743     0.0000     4.8611 </r>
       <r>     2.4541     0.0000     4.8611 </r>
       <r>     2.5339     0.0182     4.8626 </r>
       <r>     2.6137     1.1271     4.9525 </r>
       <r>     2.6935     1.5814     5.0787 </r>
       <r>     2.7733     0.1254     5.0887 </r>
       <r>     2.8531     1.1635     5.1815 </r>
       <r>     2.9329     4.2171     5.5180 </r>
       <r>     3.0127     0.8363     5.5847 </r>
       <r>     3.0925     1.1811     5.6790 </r>
       <r>     3.1722     1.5767     5.8048 </r>
       <r>     3.2520     1.3216     5.9102 </r>
       <r>     3.3318     2.6210     6.1194 </r>
       <r>     3.4116     2.3166     6.3042 </r>
       <r>     3.4914     0.4752     6.3421 </r>
       <r>     3.5712     1.4087     6.4545 </r>
       <r>     3.6510     1.7350     6.5930 </r>
       <r>     3.7308     1.4618     6.7096 </r>
       <r>     3.8106     0.3487     6.7374 </r>
       <r>     3.8904     3.4570     7.0133 </r>
       <r>     3.9702     1.7755     7.1549 </r>
       <r>     4.0499     0.0309     7.1574 </r>
       <r>     4.1297     0.0000     7.1574 </r>
       <r>     4.2095     0.0029     7.1576 </r>
       <r>     4.2893     0.5690     7.2030 </r>
       <r>     4.3691     2.0929     7.3700 </r>
       <r>     4.4489     1.3503     7.4778 </r>
       <r>     4.5287     0.9942     7.5571 </r>
       <r>     4.6085     0.7321     7.6155 </r>
       <r>     4.6883     1.1298     7.7057 </r>
       <r>     4.7681     0.0913     7.7130 </r>
       <r>     4.8479     0.0001     7.7130 </r>
       <r>     4.9276     0.0061     7.7135 </r>
       <r>     5.0074     0.4928     7.7528 </r>
       <r>     5.0872     0.9224     7.8264 </r>
       <r>     5.1670     1.0849     7.9129 </r>
       <r>     5.2468     0.7235     7.9707 </r>
       <r>     5.3266     0.0194     7.9722 </r>
       <r>     5.4064     0.0000     7.9722 </r>
       <r>     5.4862     0.0015     7.9723 </r>
       <r>     5.5660     0.0744     7.9783 </r>
       <r>     5.6458     0.1475     7.9900 </r>
       <r>     5.7256     0.0929     7.9975 </r>
       <r>     5.8053     0.0316     8.0000 </r>
       <r>     5.8851     0.0002     8.0000 </r>
       <r>     5.9649     0.0000     8.0000 </r>
       <r>     6.0447     0.0000     8.0000 </r>
       <r>     6.1245     0.0000     8.0000 </r>
       <r>     6.2043     0.0000     8.0000 </r>
       <r>     6.2841     0.0198     8.0016 </r>
       <r>     6.3639     0.5181     8.0429 </r>
       <r>     6.4437     0.7894     8.1059 </r>
       <r>     6.5235     0.0650     8.1111 </r>
       <r>     6.6033     0.0216     8.1128 </r>
       <r>     6.6830     1.1874     8.2076 </r>
       <r>     6.7628     1.5253     8.3293 </r>
       <r>     6.8426     0.0509     8.3333 </r>
       <r>     6.9224     0.0000     8.3333 </r>
       <r>     7.0022     0.0113     8.3342 </r>
       <r>     7.0820     0.2780     8.3564 </r>
       <r>     7.1618     0.6366     8.4072 </r>
       <r>     7.2416     0.9438     8.4825 </r>
       <r>     7.3214     0.9406     8.5576 </r>
       <r>     7.4012     0.6484     8.6093 </r>
       <r>     7.4810     0.0408     8.6126 </r>
       <r>     7.5607     1.1993     8.7083 </r>
       <r>     7.6405     3.5060     8.9880 </r>
       <r>     7.7203     1.5158     9.1090 </r>
       <r>     7.8001     0.0361     9.1118 </r>
       <r>     7.8799     0.4283     9.1460 </r>
       <r>     7.9597     0.6120     9.1949 </r>
       <r>     8.0395     1.8965     9.3462 </r>
       <r>     8.1193     0.8087     9.4107 </r>
       <r>     8.1991     0.1834     9.4253 </r>
       <r>     8.2789     0.1792     9.4396 </r>
       <r>     8.3587     2.0243     9.6012 </r>
       <r>     8.4384     3.6870     9.8953 </r>
       <r>     8.5182     2.3964    10.0866 </r>
       <r>     8.5980     1.1846    10.1811 </r>
       <r>     8.6778     0.3979    10.2128 </r>
       <r>     8.7576     0.1936    10.2283 </r>
       <r>     8.8374     1.3066    10.3325 </r>
       <r>     8.9172     0.9891    10.4114 </r>
       <r>     8.9970     2.6867    10.6258 </r>
       <r>     9.0768     1.2426    10.7250 </r>
       <r>     9.1566     3.4577    11.0009 </r>
       <r>     9.2364     1.7006    11.1366 </r>
       <r>     9.3162     0.8839    11.2071 </r>
       <r>     9.3959     2.3172    11.3920 </r>
       <r>     9.4757     1.0631    11.4768 </r>
       <r>     9.5555     0.0685    11.4823 </r>
       <r>     9.6353     1.5643    11.6071 </r>
       <r>     9.7151     5.9556    12.0823 </r>
       <r>     9.7949     2.8501    12.3097 </r>
       <r>     9.8747     3.8329    12.6155 </r>
       <r>     9.9545     1.5198    12.7368 </r>
       <r>    10.0343     0.3277    12.7630 </r>
       <r>    10.1141     1.5082    12.8833 </r>
       <r>    10.1939     1.9143    13.0360 </r>
       <r>    10.2736     1.9469    13.1914 </r>
       <r>    10.3534     0.1543    13.2037 </r>
       <r>    10.4332     0.0002    13.2037 </r>
       <r>    10.5130     0.0004    13.2037 </r>
       <r>    10.5928     0.2333    13.2224 </r>
       <r>    10.6726     2.0220    13.3837 </r>
       <r>    10.7524     0.5269    13.4257 </r>
       <r>    10.8322     0.0085    13.4264 </r>
       <r>    10.9120     0.3770    13.4565 </r>
       <r>    10.9918     0.5259    13.4985 </r>
       <r>    11.0716     0.0195    13.5000 </r>
       <r>    11.1513     0.0854    13.5068 </r>
       <r>    11.2311     0.9759    13.5847 </r>
       <r>    11.3109     0.3294    13.6110 </r>
       <r>    11.3907     0.1584    13.6236 </r>
       <r>    11.4705     1.0293    13.7057 </r>
       <r>    11.5503     0.2059    13.7222 </r>
       <r>    11.6301     0.0072    13.7227 </r>
       <r>    11.7099     0.7858    13.7854 </r>
       <r>    11.7897     1.8653    13.9343 </r>
       <r>    11.8695     0.1274    13.9444 </r>
       <r>    11.9493     0.0857    13.9513 </r>
       <r>    12.0290     2.6124    14.1597 </r>
       <r>    12.1088     3.9586    14.4756 </r>
       <r>    12.1886     0.3073    14.5001 </r>
       <r>    12.2684     0.3799    14.5304 </r>
       <r>    12.3482     1.9728    14.6878 </r>
       <r>    12.4280     0.4290    14.7221 </r>
       <r>    12.5078     0.0856    14.7289 </r>
       <r>    12.5876     1.7468    14.8683 </r>
       <r>    12.6674     2.2175    15.0452 </r>
       <r>    12.7472     0.2741    15.0671 </r>
       <r>    12.8270     2.2605    15.2474 </r>
       <r>    12.9067     1.8038    15.3914 </r>
       <r>    12.9865     2.8321    15.6173 </r>
       <r>    13.0663     2.6434    15.8283 </r>
       <r>    13.1461     0.0635    15.8333 </r>
       <r>    13.2259     0.0071    15.8339 </r>
       <r>    13.3057     0.2470    15.8536 </r>
       <r>    13.3855     0.5500    15.8975 </r>
       <r>    13.4653     0.5634    15.9424 </r>
       <r>    13.5451     0.0250    15.9444 </r>
       <r>    13.6249     0.0000    15.9444 </r>
       <r>    13.7047     0.0000    15.9444 </r>
       <r>    13.7844     0.0000    15.9444 </r>
       <r>    13.8642     0.0000    15.9444 </r>
       <r>    13.9440     0.0000    15.9444 </r>
       <r>    14.0238     0.0000    15.9444 </r>
       <r>    14.1036     0.0000    15.9444 </r>
       <r>    14.1834     0.0000    15.9444 </r>
       <r>    14.2632     0.0000    15.9444 </r>
       <r>    14.3430     0.0000    15.9444 </r>
       <r>    14.4228     0.0000    15.9444 </r>
       <r>    14.5026     0.0000    15.9444 </r>
       <r>    14.5824     0.0000    15.9444 </r>
       <r>    14.6621     0.0000    15.9444 </r>
       <r>    14.7419     0.0000    15.9444 </r>
       <r>    14.8217     0.0000    15.9444 </r>
       <r>    14.9015     0.0000    15.9444 </r>
       <r>    14.9813     0.0000    15.9444 </r>
       <r>    15.0611     0.0000    15.9444 </r>
       <r>    15.1409     0.0000    15.9444 </r>
       <r>    15.2207     0.0000    15.9444 </r>
       <r>    15.3005     0.0000    15.9444 </r>
       <r>    15.3803     0.0000    15.9444 </r>
       <r>    15.4601     0.0023    15.9446 </r>
       <r>    15.5399     0.2056    15.9610 </r>
       <r>    15.6196     0.4537    15.9972 </r>
       <r>    15.6994     0.0345    16.0000 </r>
       <r>    15.7792     0.0000    16.0000 </r>
       <r>    15.8590     0.0000    16.0000 </r>
       <r>    15.9388     0.0000    16.0000 </r>
       <r>    16.0186     0.0000    16.0000 </r>
       <r>    16.0984     0.0000    16.0000 </r>
       <r>    16.1782     0.0000    16.0000 </r>
       <r>    16.2580     0.0000    16.0000 </r>
       <r>    16.3378     0.0000    16.0000 </r>
       <r>    16.4176     0.0000    16.0000 </r>
       <r>    16.4973     0.0000    16.0000 </r>
       <r>    16.5771     0.0000    16.0000 </r>
       <r>    16.6569     0.0000    16.0000 </r>
      </set>
     </set>
    </array>
   </total>
   <partial>
    <array>
     <dimension dim="1">gridpoints</dimension>
     <dimension dim="2">spin</dimension>
     <dimension dim="3">ion</dimension>
     <field>energy</field>
     <field>    s</field>
     <field>   py</field>
     <field>   pz</field>
     <field>   px</field>
     <field>  dxy</field>
     <field>  dyz</field>
     <field>  dz2</field>
     <field>  dxz</field>
     <field>x2-y2</field>
     <set>
      <set comment="ion 1">
       <set comment="spin 1">
        <r>    -7.2804     0.0000     0.0000     0.0000     0.0000     0.0000     0.0000     0.0000     0.0000     0.0000 </r>
        <r>    -7.2006     0.0000     0.0000     0.0000     0.0000     0.0000     0.0000     0.0000     0.0000     0.0000 </r>
        <r>    -7.1208     0.0000     0.0000     0.0000     0.0000     0.0000     0.0000     0.0000     0.0000     0.0000 </r>
        <r>    -7.0410     0.0000     0.0000     0.0000     0.0000     0.0000     0.0000     0.0000     0.0000     0.0000 </r>
        <r>    -6.9612     0.0000     0.0000     0.0000     0.0000     0.0000     0.0000     0.0000     0.0000     0.0000 </r>
        <r>    -6.8814     0.0000     0.0000     0.0000     0.0000     0.0000     0.0000     0.0000     0.0000     0.0000 </r>
        <r>    -6.8016     0.0000     0.0000     0.0000     0.0000     0.0000     0.0000     0.0000     0.0000     0.0000 </r>
        <r>    -6.7218     0.0000     0.0000     0.0000     0.0000     0.0000     0.0000     0.0000     0.0000     0.0000 </r>
        <r>    -6.6421     0.0000     0.0000     0.0000     0.0000     0.0000     0.0000     0.0000     0.0000     0.0000 </r>
        <r>    -6.5623     0.0000     0.0000     0.0000     0.0000     0.0000     0.0000     0.0000     0.0000     0.0000 </r>
        <r>    -6.4825     0.0000     0.0000     0.0000     0.0000     0.0000     0.0000     0.0000     0.0000     0.0000 </r>
        <r>    -6.4027     0.0000     0.0000     0.0000     0.0000     0.0000     0.0000     0.0000     0.0000     0.0000 </r>
        <r>    -6.3229     0.0000     0.0000     0.0000     0.0000     0.0000     0.0000     0.0000     0.0000     0.0000 </r>
        <r>    -6.2431     0.0019     0.0000     0.0000     0.0000     0.0000     0.0000     0.0000     0.0000     0.0000 </r>
        <r>    -6.1633     0.0177     0.0000     0.0000     0.0000     0.0000     0.0000     0.0000     0.0000     0.0000 </r>
        <r>    -6.0835     0.0050     0.0000     0.0000     0.0000     0.0000     0.0000     0.0000     0.0000     0.0000 </r>
        <r>    -6.0037     0.0000     0.0000     0.0000     0.0000     0.0000     0.0000     0.0000     0.0000     0.0000 </r>
        <r>    -5.9239     0.0016     0.0000     0.0000     0.0000     0.0000     0.0000     0.0000     0.0000     0.0000 </r>
        <r>    -5.8441     0.0852     0.0005     0.0005     0.0005     0.0000     0.0000     0.0000     0.0000     0.0000 </r>
        <r>    -5.7644     0.1183     0.0007     0.0007     0.0007     0.0000     0.0000     0.0000     0.0000     0.0000 </r>
        <r>    -5.6846     0.1098     0.0009     0.0009     0.0009     0.0000     0.0000     0.0000     0.0000     0.0000 </r>
        <r>    -5.6048     0.0263     0.0002     0.0002     0.0002     0.0000     0.0000     0.0000     0.0000     0.0000 </r>
        <r>    -5.5250     0.0001     0.0000     0.0000     0.0000     0.0000     0.0000     0.0000     0.0000     0.0000 </r>
        <r>    -5.4452     0.0000     0.0000     0.0000     0.0000     0.0000     0.0000     0.0000     0.0000     0.0000 </r>
        <r>    -5.3654     0.0006     0.0000     0.0000     0.0000     0.0000     0.0000     0.0000     0.0000     0.0000 </r>
        <r>    -5.2856     0.0768     0.0011     0.0011     0.0011     0.0000     0.0000     0.0000     0.0000     0.0000 </r>
        <r>    -5.2058     0.1983     0.0030     0.0030     0.0030     0.0000     0.0000     0.0000     0.0000     0.0000 </r>
        <r>    -5.1260     0.0149     0.0002     0.0002     0.0002     0.0000     0.0000     0.0000     0.0000     0.0000 </r>
        <r>    -5.0462     0.0001     0.0000     0.0000     0.0000     0.0000     0.0000     0.0000     0.0000     0.0000 </r>
        <r>    -4.9664     0.0573     0.0012     0.0012     0.0012     0.0000     0.0000     0.0000     0.0000     0.0000 </r>
        <r>    -4.8867     0.4554     0.0093     0.0093     0.0093     0.0000     0.0000     0.0000     0.0000     0.0000 </r>
        <r>    -4.8069     0.2397     0.0047     0.0047     0.0047     0.0000     0.0000     0.0000     0.0000     0.0000 </r>
        <r>    -4.7271     0.0210     0.0004     0.0004     0.0004     0.0000     0.0000     0.0000     0.0000     0.0000 </r>
        <r>    -4.6473     0.0000     0.0000     0.0000     0.0000     0.0000     0.0000     0.0000     0.0000     0.0000 </r>
        <r>    -4.5675     0.0000     0.0000     0.0000     0.0000     0.0000     0.0000     0.0000     0.0000     0.0000 </r>
        <r>    -4.4877     0.0000     0.0000     0.0000     0.0000     0.0000     0.0000     0.0000     0.0000     0.0000 </r>
        <r>    -4.4079     0.0011     0.0000     0.0000     0.0000     0.0000     0.0000     0.0000     0.0000     0.0000 </r>
        <r>    -4.3281     0.0605     0.0020     0.0020     0.0020     0.0000     0.0000     0.0000     0.0000     0.0000 </r>
        <r>    -4.2483     0.0781     0.0026     0.0026     0.0026     0.0000     0.0000     0.0000     0.0000     0.0000 </r>
        <r>    -4.1685     0.1440     0.0039     0.0039     0.0039     0.0000     0.0000     0.0000     0.0000     0.0000 </r>
        <r>    -4.0887     0.4126     0.0112     0.0112     0.0112     0.0000     0.0000     0.0000     0.0000     0.0000 </r>
        <r>    -4.0090     0.0668     0.0020     0.0020     0.0020     0.0000     0.0000     0.0000     0.0000     0.0000 </r>
        <r>    -3.9292     0.4533     0.0149     0.0149     0.0149     0.0000     0.0000     0.0000     0.0000     0.0000 </r>
        <r>    -3.8494     0.2041     0.0065     0.0065     0.0065     0.0000     0.0000     0.0000     0.0000     0.0000 </r>
        <r>    -3.7696     0.3352     0.0094     0.0094     0.0094     0.0000     0.0000     0.0000     0.0000     0.0000 </r>
        <r>    -3.6898     0.2550     0.0071     0.0071     0.0071     0.0000     0.0000     0.0000     0.0000     0.0000 </r>
        <r>    -3.6100     0.0045     0.0001     0.0001     0.0001     0.0000     0.0000     0.0000     0.0000     0.0000 </r>
        <r>    -3.5302     0.0000     0.0000     0.0000     0.0000     0.0000     0.0000     0.0000     0.0000     0.0000 </r>
        <r>    -3.4504     0.0000     0.0000     0.0000     0.0000     0.0000     0.0000     0.0000     0.0000     0.0000 </r>
        <r>    -3.3706     0.0000     0.0000     0.0000     0.0000     0.0000     0.0000     0.0000     0.0000     0.0000 </r>
        <r>    -3.2908     0.0018     0.0001     0.0001     0.0001     0.0000     0.0000     0.0000     0.0000     0.0000 </r>
        <r>    -3.2110     0.1788     0.0088     0.0088     0.0088     0.0000     0.0000     0.0000     0.0000     0.0000 </r>
        <r>    -3.1312     0.3656     0.0179     0.0179     0.0179     0.0000     0.0000     0.0000     0.0000     0.0000 </r>
        <r>    -3.0515     0.1601     0.0067     0.0067     0.0067     0.0000     0.0000     0.0000     0.0000     0.0000 </r>
[...]
       </set>
       <set comment="band 5">
        <r>  0.0411  0.0659  0.0000  0.0222  0.0000  0.0000  0.0000  0.0000  0.0000 </r>
        <r>  0.0411  0.0659  0.0000  0.0222  0.0000  0.0000  0.0000  0.0000  0.0000 </r>
       </set>
       <set comment="band 6">
        <r>  0.0816  0.0653  0.0000  0.0283  0.0000  0.0000  0.0000  0.0000  0.0000 </r>
        <r>  0.0816  0.0653  0.0000  0.0282  0.0000  0.0000  0.0000  0.0000  0.0000 </r>
       </set>
       <set comment="band 7">
        <r>  0.0146  0.0685  0.0000  0.0187  0.0000  0.0000  0.0000  0.0000  0.0000 </r>
        <r>  0.0146  0.0685  0.0000  0.0187  0.0000  0.0000  0.0000  0.0000  0.0000 </r>
       </set>
       <set comment="band 8">
        <r>  0.0000  0.0000  0.1390  0.0000  0.0000  0.0000  0.0000  0.0000  0.0000 </r>
        <r>  0.0000  0.0000  0.1390  0.0000  0.0000  0.0000  0.0000  0.0000  0.0000 </r>
       </set>
      </set>
      <set comment="kpoint 7">
       <set comment="band 1">
        <r>  0.2170  0.0027  0.0000  0.0155  0.0000  0.0000  0.0000  0.0000  0.0000 </r>
        <r>  0.2170  0.0027  0.0000  0.0155  0.0000  0.0000  0.0000  0.0000  0.0000 </r>
       </set>
       <set comment="band 2">
        <r>  0.1206  0.0101  0.0000  0.0752  0.0000  0.0000  0.0000  0.0000  0.0000 </r>
        <r>  0.1206  0.0101  0.0000  0.0752  0.0000  0.0000  0.0000  0.0000  0.0000 </r>
       </set>
       <set comment="band 3">
        <r>  0.0412  0.1283  0.0000  0.0261  0.0000  0.0000  0.0000  0.0000  0.0000 </r>
        <r>  0.0412  0.1283  0.0000  0.0261  0.0000  0.0000  0.0000  0.0000  0.0000 </r>
       </set>
       <set comment="band 4">
        <r>  0.0000  0.0000  0.2048  0.0000  0.0000  0.0000  0.0000  0.0000  0.0000 </r>
        <r>  0.0000  0.0000  0.2048  0.0000  0.0000  0.0000  0.0000  0.0000  0.0000 </r>
       </set>
       <set comment="band 5">
        <r>  0.0653  0.0369  0.0000  0.0240  0.0000  0.0000  0.0000  0.0000  0.0000 </r>
        <r>  0.0653  0.0369  0.0000  0.0240  0.0000  0.0000  0.0000  0.0000  0.0000 </r>
       </set>
       <set comment="band 6">
        <r>  0.0604  0.1000  0.0000  0.0014  0.0000  0.0000  0.0000  0.0000  0.0000 </r>
        <r>  0.0604  0.1000  0.0000  0.0014  0.0000  0.0000  0.0000  0.0000  0.0000 </r>
       </set>
       <set comment="band 7">
        <r>  0.0000  0.0000  0.1072  0.0000  0.0000  0.0000  0.0000  0.0000  0.0000 </r>
        <r>  0.0000  0.0000  0.1072  0.0000  0.0000  0.0000  0.0000  0.0000  0.0000 </r>
       </set>
       <set comment="band 8">
        <r>  0.0193  0.0634  0.0000  0.0374  0.0000  0.0000  0.0000  0.0000  0.0000 </r>
        <r>  0.0193  0.0634  0.0000  0.0374  0.0000  0.0000  0.0000  0.0000  0.0000 </r>
       </set>
      </set>
      <set comment="kpoint 8">
       <set comment="band 1">
        <r>  0.2120  0.0077  0.0000  0.0097  0.0000  0.0000  0.0000  0.0000  0.0000 </r>
        <r>  0.2120  0.0077  0.0000  0.0097  0.0000  0.0000  0.0000  0.0000  0.0000 </r>
       </set>
       <set comment="band 2">
        <r>  0.1251  0.0087  0.0000  0.0793  0.0000  0.0000  0.0000  0.0000  0.0000 </r>
        <r>  0.1251  0.0087  0.0000  0.0793  0.0000  0.0000  0.0000  0.0000  0.0000 </r>
       </set>
       <set comment="band 3">
        <r>  0.0337  0.1265  0.0000  0.0274  0.0000  0.0000  0.0000  0.0000  0.0000 </r>
        <r>  0.0337  0.1265  0.0000  0.0274  0.0000  0.0000  0.0000  0.0000  0.0000 </r>
       </set>
       <set comment="band 4">
        <r>  0.0000  0.0000  0.2114  0.0000  0.0000  0.0000  0.0000  0.0000  0.0000 </r>
        <r>  0.0000  0.0000  0.2114  0.0000  0.0000  0.0000  0.0000  0.0000  0.0000 </r>
       </set>
       <set comment="band 5">
        <r>  0.0840  0.0258  0.0000  0.0393  0.0000  0.0000  0.0000  0.0000  0.0000 </r>
        <r>  0.0840  0.0258  0.0000  0.0393  0.0000  0.0000  0.0000  0.0000  0.0000 </r>
       </set>
       <set comment="band 6">
        <r>  0.0437  0.0917  0.0000  0.0086  0.0000  0.0000  0.0000  0.0000  0.0000 </r>
        <r>  0.0437  0.0917  0.0000  0.0086  0.0000  0.0000  0.0000  0.0000  0.0000 </r>
       </set>
       <set comment="band 7">
        <r>  0.0000  0.0000  0.1159  0.0000  0.0000  0.0000  0.0000  0.0000  0.0000 </r>
        <r>  0.0000  0.0000  0.1159  0.0000  0.0000  0.0000  0.0000  0.0000  0.0000 </r>
       </set>
       <set comment="band 8">
        <r>  0.0387  0.0175  0.0000  0.1111  0.0000  0.0000  0.0000  0.0000  0.0000 </r>
        <r>  0.0387  0.0175  0.0000  0.1111  0.0000  0.0000  0.0000  0.0000  0.0000 </r>
       </set>
      </set>
      <set comment="kpoint 9">
       <set comment="band 1">
        <r>  0.2087  0.0062  0.0000  0.0032  0.0000  0.0000  0.0000  0.0000  0.0000 </r>
        <r>  0.2087  0.0062  0.0000  0.0032  0.0000  0.0000  0.0000  0.0000  0.0000 </r>
       </set>
       <set comment="band 2">
        <r>  0.1238  0.0638  0.0000  0.0454  0.0000  0.0000  0.0000  0.0000  0.0000 </r>
        <r>  0.1238  0.0638  0.0000  0.0454  0.0000  0.0000  0.0000  0.0000  0.0000 </r>
       </set>
       <set comment="band 3">
        <r>  0.0112  0.0757  0.0000  0.0922  0.0000  0.0000  0.0000  0.0000  0.0000 </r>
        <r>  0.0112  0.0757  0.0000  0.0922  0.0000  0.0000  0.0000  0.0000  0.0000 </r>
       </set>
       <set comment="band 4">
        <r>  0.0000  0.0000  0.2185  0.0000  0.0000  0.0000  0.0000  0.0000  0.0000 </r>
        <r>  0.0000  0.0000  0.2185  0.0000  0.0000  0.0000  0.0000  0.0000  0.0000 </r>
       </set>
       <set comment="band 5">
        <r>  0.0986  0.0304  0.0000  0.0608  0.0000  0.0000  0.0000  0.0000  0.0000 </r>
        <r>  0.0986  0.0304  0.0000  0.0608  0.0000  0.0000  0.0000  0.0000  0.0000 </r>
       </set>
       <set comment="band 6">
        <r>  0.0000  0.0000  0.1479  0.0000  0.0000  0.0000  0.0000  0.0000  0.0000 </r>
        <r>  0.0000  0.0000  0.1479  0.0000  0.0000  0.0000  0.0000  0.0000  0.0000 </r>
       </set>
       <set comment="band 7">
        <r>  0.0291  0.0489  0.0000  0.0745  0.0000  0.0000  0.0000  0.0000  0.0000 </r>
        <r>  0.0291  0.0489  0.0000  0.0745  0.0000  0.0000  0.0000  0.0000  0.0000 </r>
       </set>
       <set comment="band 8">
        <r>  0.0710  0.0645  0.0000  0.0338  0.0000  0.0000  0.0000  0.0000  0.0000 </r>
        <r>  0.0710  0.0645  0.0000  0.0338  0.0000  0.0000  0.0000  0.0000  0.0000 </r>
       </set>
      </set>
      <set comment="kpoint 10">
       <set comment="band 1">
        <r>  0.2031  0.0068  0.0000  0.0133  0.0000  0.0000  0.0000  0.0000  0.0000 </r>
        <r>  0.2031  0.0068  0.0000  0.0133  0.0000  0.0000  0.0000  0.0000  0.0000 </r>
       </set>
       <set comment="band 2">
        <r>  0.1750  0.0266  0.0000  0.0497  0.0000  0.0000  0.0000  0.0000  0.0000 </r>
        <r>  0.1750  0.0266  0.0000  0.0497  0.0000  0.0000  0.0000  0.0000  0.0000 </r>
       </set>
       <set comment="band 3">
        <r>  0.0000  0.0000  0.1961  0.0000  0.0000  0.0000  0.0000  0.0000  0.0000 </r>
        <r>  0.0000  0.0000  0.1961  0.0000  0.0000  0.0000  0.0000  0.0000  0.0000 </r>
       </set>
       <set comment="band 4">
        <r>  0.0000  0.1286  0.0000  0.0658  0.0000  0.0000  0.0000  0.0000  0.0000 </r>
        <r>  0.0000  0.1286  0.0000  0.0658  0.0000  0.0000  0.0000  0.0000  0.0000 </r>
       </set>
       <set comment="band 5">
        <r>  0.0498  0.0191  0.0000  0.0392  0.0000  0.0000  0.0000  0.0000  0.0000 </r>
        <r>  0.0498  0.0191  0.0000  0.0392  0.0000  0.0000  0.0000  0.0000  0.0000 </r>
       </set>
       <set comment="band 6">
        <r>  0.0443  0.0105  0.0000  0.0221  0.0000  0.0000  0.0000  0.0000  0.0000 </r>
        <r>  0.0443  0.0105  0.0000  0.0221  0.0000  0.0000  0.0000  0.0000  0.0000 </r>
       </set>
       <set comment="band 7">
        <r>  0.0000  0.1122  0.0000  0.0550  0.0000  0.0000  0.0000  0.0000  0.0000 </r>
        <r>  0.0000  0.1122  0.0000  0.0550  0.0000  0.0000  0.0000  0.0000  0.0000 </r>
       </set>
       <set comment="band 8">
        <r>  0.0000  0.0000  0.1648  0.0000  0.0000  0.0000  0.0000  0.0000  0.0000 </r>
        <r>  0.0000  0.0000  0.1648  0.0000  0.0000  0.0000  0.0000  0.0000  0.0000 </r>
       </set>
      </set>
      <set comment="kpoint 11">
       <set comment="band 1">
        <r>  0.2035  0.0075  0.0000  0.0224  0.0000  0.0000  0.0000  0.0000  0.0000 </r>
        <r>  0.2035  0.0075  0.0000  0.0224  0.0000  0.0000  0.0000  0.0000  0.0000 </r>
       </set>
       <set comment="band 2">
        <r>  0.1844  0.0139  0.0000  0.0450  0.0000  0.0000  0.0000  0.0000  0.0000 </r>
        <r>  0.1844  0.0139  0.0000  0.0450  0.0000  0.0000  0.0000  0.0000  0.0000 </r>
       </set>
       <set comment="band 3">
        <r>  0.0051  0.1111  0.0000  0.0510  0.0000  0.0000  0.0000  0.0000  0.0000 </r>
        <r>  0.0051  0.1111  0.0000  0.0510  0.0000  0.0000  0.0000  0.0000  0.0000 </r>
       </set>
       <set comment="band 4">
        <r>  0.0000  0.0000  0.1972  0.0000  0.0000  0.0000  0.0000  0.0000  0.0000 </r>
        <r>  0.0000  0.0000  0.1972  0.0000  0.0000  0.0000  0.0000  0.0000  0.0000 </r>
       </set>
       <set comment="band 5">
        <r>  0.0506  0.0271  0.0000  0.0180  0.0000  0.0000  0.0000  0.0000  0.0000 </r>
        <r>  0.0506  0.0271  0.0000  0.0180  0.0000  0.0000  0.0000  0.0000  0.0000 </r>
       </set>
       <set comment="band 6">
        <r>  0.0338  0.0361  0.0000  0.0352  0.0000  0.0000  0.0000  0.0000  0.0000 </r>
        <r>  0.0338  0.0361  0.0000  0.0352  0.0000  0.0000  0.0000  0.0000  0.0000 </r>
       </set>
       <set comment="band 7">
        <r>  0.0412  0.1370  0.0000  0.0052  0.0000  0.0000  0.0000  0.0000  0.0000 </r>
        <r>  0.0412  0.1370  0.0000  0.0052  0.0000  0.0000  0.0000  0.0000  0.0000 </r>
       </set>
       <set comment="band 8">
        <r>  0.0000  0.0000  0.1268  0.0000  0.0000  0.0000  0.0000  0.0000  0.0000 </r>
        <r>  0.0000  0.0000  0.1268  0.0000  0.0000  0.0000  0.0000  0.0000  0.0000 </r>
       </set>
      </set>
      <set comment="kpoint 12">
       <set comment="band 1">
        <r>  0.2143  0.0140  0.0000  0.0127  0.0000  0.0000  0.0000  0.0000  0.0000 </r>
        <r>  0.2143  0.0140  0.0000  0.0126  0.0000  0.0000  0.0000  0.0000  0.0000 </r>
       </set>
       <set comment="band 2">
        <r>  0.1748  0.0278  0.0000  0.0334  0.0000  0.0000  0.0000  0.0000  0.0000 </r>
        <r>  0.1748  0.0278  0.0000  0.0334  0.0000  0.0000  0.0000  0.0000  0.0000 </r>
       </set>
       <set comment="band 3">
        <r>  0.0034  0.0798  0.0000  0.0703  0.0000  0.0000  0.0000  0.0000  0.0000 </r>
        <r>  0.0034  0.0798  0.0000  0.0703  0.0000  0.0000  0.0000  0.0000  0.0000 </r>
       </set>
       <set comment="band 4">
        <r>  0.0000  0.0000  0.2017  0.0000  0.0000  0.0000  0.0000  0.0000  0.0000 </r>
        <r>  0.0000  0.0000  0.2017  0.0000  0.0000  0.0000  0.0000  0.0000  0.0000 </r>
       </set>
       <set comment="band 5">
        <r>  0.0550  0.0166  0.0000  0.0305  0.0000  0.0000  0.0000  0.0000  0.0000 </r>
        <r>  0.0550  0.0166  0.0000  0.0305  0.0000  0.0000  0.0000  0.0000  0.0000 </r>
       </set>
       <set comment="band 6">
        <r>  0.0069  0.0513  0.0000  0.0250  0.0000  0.0000  0.0000  0.0000  0.0000 </r>
        <r>  0.0069  0.0513  0.0000  0.0250  0.0000  0.0000  0.0000  0.0000  0.0000 </r>
       </set>
       <set comment="band 7">
        <r>  0.0000  0.0000  0.1519  0.0000  0.0000  0.0000  0.0000  0.0000  0.0000 </r>
        <r>  0.0000  0.0000  0.1519  0.0000  0.0000  0.0000  0.0000  0.0000  0.0000 </r>
       </set>
       <set comment="band 8">
        <r>  0.0433  0.0457  0.0000  0.0880  0.0000  0.0000  0.0000  0.0000  0.0000 </r>
        <r>  0.0433  0.0456  0.0000  0.0879  0.0000  0.0000  0.0000  0.0000  0.0000 </r>
       </set>
      </set>
      <set comment="kpoint 13">
       <set comment="band 1">
        <r>  0.1949  0.0146  0.0000  0.0287  0.0000  0.0000  0.0000  0.0000  0.0000 </r>
        <r>  0.1948  0.0146  0.0000  0.0287  0.0000  0.0000  0.0000  0.0000  0.0000 </r>
       </set>
       <set comment="band 2">
        <r>  0.1915  0.0155  0.0000  0.0290  0.0000  0.0000  0.0000  0.0000  0.0000 </r>
        <r>  0.1915  0.0155  0.0000  0.0290  0.0000  0.0000  0.0000  0.0000  0.0000 </r>
       </set>
       <set comment="band 3">
        <r>  0.0000  0.0000  0.1956  0.0000  0.0000  0.0000  0.0000  0.0000  0.0000 </r>
        <r>  0.0000  0.0000  0.1956  0.0000  0.0000  0.0000  0.0000  0.0000  0.0000 </r>
       </set>
       <set comment="band 4">
        <r>  0.0000  0.1288  0.0000  0.0653  0.0000  0.0000  0.0000  0.0000  0.0000 </r>
        <r>  0.0000  0.1288  0.0000  0.0653  0.0000  0.0000  0.0000  0.0000  0.0000 </r>
       </set>
       <set comment="band 5">
        <r>  0.0521  0.0124  0.0000  0.0241  0.0000  0.0000  0.0000  0.0000  0.0000 </r>
        <r>  0.0521  0.0124  0.0000  0.0241  0.0000  0.0000  0.0000  0.0000  0.0000 </r>
       </set>
       <set comment="band 6">
        <r>  0.0502  0.0112  0.0000  0.0247  0.0000  0.0000  0.0000  0.0000  0.0000 </r>
        <r>  0.0502  0.0112  0.0000  0.0247  0.0000  0.0000  0.0000  0.0000  0.0000 </r>
       </set>
       <set comment="band 7">
        <r>  0.0000  0.1608  0.0000  0.0808  0.0000  0.0000  0.0000  0.0000  0.0000 </r>
        <r>  0.0000  0.1608  0.0000  0.0808  0.0000  0.0000  0.0000  0.0000  0.0000 </r>
       </set>
       <set comment="band 8">
        <r>  0.0000  0.0000  0.2380  0.0000  0.0000  0.0000  0.0000  0.0000  0.0000 </r>
        <r>  0.0000  0.0000  0.2380  0.0000  0.0000  0.0000  0.0000  0.0000  0.0000 </r>
       </set>
      </set>
      <set comment="kpoint 14">
       <set comment="band 1">
        <r>  0.2064  0.0029  0.0024  0.0165  0.0000  0.0000  0.0000  0.0000  0.0000 </r>
        <r>  0.2064  0.0029  0.0024  0.0165  0.0000  0.0000  0.0000  0.0000  0.0000 </r>
       </set>
       <set comment="band 2">
        <r>  0.1701  0.0127  0.0180  0.0429  0.0000  0.0000  0.0000  0.0000  0.0000 </r>
        <r>  0.1701  0.0127  0.0180  0.0429  0.0000  0.0000  0.0000  0.0000  0.0000 </r>
       </set>
       <set comment="band 3">
        <r>  0.0109  0.0281  0.0685  0.0614  0.0000  0.0000  0.0000  0.0000  0.0000 </r>
        <r>  0.0109  0.0281  0.0685  0.0614  0.0000  0.0000  0.0000  0.0000  0.0000 </r>
       </set>
       <set comment="band 4">
        <r>  0.0041  0.1103  0.0631  0.0100  0.0000  0.0000  0.0000  0.0000  0.0000 </r>
        <r>  0.0041  0.1103  0.0631  0.0100  0.0000  0.0000  0.0000  0.0000  0.0000 </r>
       </set>
       <set comment="band 5">
        <r>  0.0288  0.0560  0.0321  0.0132  0.0000  0.0000  0.0000  0.0000  0.0000 </r>
        <r>  0.0288  0.0560  0.0321  0.0132  0.0000  0.0000  0.0000  0.0000  0.0000 </r>
       </set>
       <set comment="band 6">
        <r>  0.0242  0.0049  0.0210  0.0332  0.0000  0.0000  0.0000  0.0000  0.0000 </r>
        <r>  0.0242  0.0049  0.0210  0.0332  0.0000  0.0000  0.0000  0.0000  0.0000 </r>
       </set>
       <set comment="band 7">
        <r>  0.0604  0.0514  0.0409  0.0109  0.0000  0.0000  0.0000  0.0000  0.0000 </r>
        <r>  0.0604  0.0514  0.0409  0.0109  0.0000  0.0000  0.0000  0.0000  0.0000 </r>
       </set>
       <set comment="band 8">
        <r>  0.0055  0.0691  0.0669  0.0135  0.0000  0.0000  0.0000  0.0000  0.0000 </r>
        <r>  0.0055  0.0691  0.0669  0.0135  0.0000  0.0000  0.0000  0.0000  0.0000 </r>
       </set>
      </set>
      <set comment="kpoint 15">
       <set comment="band 1">
        <r>  0.2156  0.0089  0.0037  0.0135  0.0000  0.0000  0.0000  0.0000  0.0000 </r>
        <r>  0.2156  0.0089  0.0037  0.0135  0.0000  0.0000  0.0000  0.0000  0.0000 </r>
       </set>
       <set comment="band 2">
        <r>  0.1656  0.0099  0.0040  0.0505  0.0000  0.0000  0.0000  0.0000  0.0000 </r>
        <r>  0.1656  0.0099  0.0040  0.0505  0.0000  0.0000  0.0000  0.0000  0.0000 </r>
       </set>
       <set comment="band 3">
        <r>  0.0182  0.0707  0.0287  0.0499  0.0000  0.0000  0.0000  0.0000  0.0000 </r>
        <r>  0.0182  0.0707  0.0287  0.0499  0.0000  0.0000  0.0000  0.0000  0.0000 </r>
       </set>
       <set comment="band 4">
        <r>  0.0012  0.0502  0.1173  0.0102  0.0000  0.0000  0.0000  0.0000  0.0000 </r>
        <r>  0.0012  0.0502  0.1173  0.0102  0.0000  0.0000  0.0000  0.0000  0.0000 </r>
       </set>
       <set comment="band 5">
        <r>  0.0083  0.0322  0.0487  0.0039  0.0000  0.0000  0.0000  0.0000  0.0000 </r>
        <r>  0.0083  0.0322  0.0487  0.0039  0.0000  0.0000  0.0000  0.0000  0.0000 </r>
       </set>
       <set comment="band 6">
        <r>  0.0636  0.0296  0.0455  0.0129  0.0000  0.0000  0.0000  0.0000  0.0000 </r>
        <r>  0.0636  0.0296  0.0455  0.0129  0.0000  0.0000  0.0000  0.0000  0.0000 </r>
       </set>
       <set comment="band 7">
        <r>  0.0185  0.0237  0.0150  0.0460  0.0000  0.0000  0.0000  0.0000  0.0000 </r>
        <r>  0.0185  0.0237  0.0150  0.0460  0.0000  0.0000  0.0000  0.0000  0.0000 </r>
       </set>
       <set comment="band 8">
        <r>  0.0330  0.0479  0.0153  0.0606  0.0000  0.0000  0.0000  0.0000  0.0000 </r>
        <r>  0.0330  0.0479  0.0153  0.0606  0.0000  0.0000  0.0000  0.0000  0.0000 </r>
       </set>
      </set>
      <set comment="kpoint 16">
       <set comment="band 1">
        <r>  0.2023  0.0134  0.0049  0.0231  0.0000  0.0000  0.0000  0.0000  0.0000 </r>
        <r>  0.2023  0.0134  0.0049  0.0231  0.0000  0.0000  0.0000  0.0000  0.0000 </r>
       </set>
       <set comment="band 2">
        <r>  0.1996  0.0151  0.0040  0.0230  0.0000  0.0000  0.0000  0.0000  0.0000 </r>
        <r>  0.1996  0.0151  0.0040  0.0230  0.0000  0.0000  0.0000  0.0000  0.0000 </r>
       </set>
       <set comment="band 3">
        <r>  0.0017  0.0170  0.1368  0.0110  0.0000  0.0000  0.0000  0.0000  0.0000 </r>
        <r>  0.0017  0.0170  0.1368  0.0110  0.0000  0.0000  0.0000  0.0000  0.0000 </r>
       </set>
       <set comment="band 4">
        <r>  0.0016  0.0918  0.0020  0.0697  0.0000  0.0000  0.0000  0.0000  0.0000 </r>
        <r>  0.0016  0.0918  0.0020  0.0697  0.0000  0.0000  0.0000  0.0000  0.0000 </r>
       </set>
       <set comment="band 5">
        <r>  0.0341  0.0059  0.0530  0.0182  0.0000  0.0000  0.0000  0.0000  0.0000 </r>
        <r>  0.0341  0.0059  0.0530  0.0182  0.0000  0.0000  0.0000  0.0000  0.0000 </r>
       </set>
       <set comment="band 6">
        <r>  0.0332  0.0444  0.0017  0.0300  0.0000  0.0000  0.0000  0.0000  0.0000 </r>
        <r>  0.0332  0.0444  0.0017  0.0300  0.0000  0.0000  0.0000  0.0000  0.0000 </r>
       </set>
       <set comment="band 7">
        <r>  0.0279  0.0737  0.0239  0.0162  0.0000  0.0000  0.0000  0.0000  0.0000 </r>
        <r>  0.0279  0.0737  0.0239  0.0162  0.0000  0.0000  0.0000  0.0000  0.0000 </r>
       </set>
       <set comment="band 8">
        <r>  0.0271  0.0025  0.0567  0.0547  0.0000  0.0000  0.0000  0.0000  0.0000 </r>
        <r>  0.0271  0.0025  0.0567  0.0547  0.0000  0.0000  0.0000  0.0000  0.0000 </r>
       </set>
      </set>
     </set>
    </set>
   </array>
  </projected>
 </calculation>
 <structure name="finalpos" >
  <crystal>
   <varray name="basis" >
    <v>       3.34889800       0.00000000       1.93348700 </v>
    <v>       1.11629900       3.15737200       1.93348700 </v>
    <v>       0.00000000       0.00000000       3.86697500 </v>
   </varray>
   <i name="volume">     40.88829843 </i>
   <varray name="rec_basis" >
    <v>       0.29860569      -0.10557300       0.00000000 </v>
    <v>       0.00000000       0.31671909       0.00000000 </v>
    <v>      -0.14930281      -0.10557302       0.25860007 </v>
   </varray>
  </crystal>
  <varray name="positions" >
   <v>       0.24552091       0.25000000       0.25223954 </v>
   <v>       0.00000000       0.00000000       0.00000000 </v>
  </varray>
 </structure>
</modeling>
