<?xml version="1.0" encoding="ISO-8859-1"?>
<modeling>
 <generator>
  <i name="program" type="string">vasp </i>
  <i name="version" type="string">6.2.1  </i>
  <i name="subversion" type="string">16May21 (build Oct 27 2021 18:14:32) complex                          parallel </i>
  <i name="platform" type="string">LinuxIFC </i>
  <i name="date" type="string">2021 11 08 </i>
  <i name="time" type="string">17:24:32 </i>
 </generator>
 <incar>
  <i type="string" name="PREC">Accurate</i>
  <i type="string" name="ALGO">Normal</i>
  <i type="int" name="ISPIN">     2</i>
  <i type="int" name="NELM">   200</i>
  <i type="int" name="IBRION">     2</i>
  <i name="EDIFF">      0.00000010</i>
  <i name="EDIFFG">     -0.00100000</i>
  <i type="int" name="NSW">    99</i>
  <i type="int" name="ISIF">     3</i>
  <i name="ENCUT">    700.00000000</i>
  <i name="ENAUG">   1360.00000000</i>
  <v name="MAGMOM">      0.60000000      0.60000000</v>
  <i type="logical" name="LREAL"> F  </i>
  <i type="int" name="ISMEAR">     0</i>
  <i name="SIGMA">      0.05000000</i>
  <i type="logical" name="LWAVE"> F  </i>
  <i type="logical" name="LCHARG"> F  </i>
  <i type="logical" name="LVTOT"> T  </i>
  <i type="int" name="LORBIT">    11</i>
  <i type="logical" name="LELF"> T  </i>
  <i type="logical" name="LASPH"> T  </i>
  <i type="logical" name="LAECHG"> F  </i>
  <i type="logical" name="LMIXTAU"> T  </i>
 </incar>
 <primitive_cell>
  <structure name="primitive_cell" >
   <crystal>
    <varray name="basis" >
     <v>       0.00000000       2.73436400       2.73436400 </v>
     <v>       2.73436400       0.00000000       2.73436400 </v>
     <v>       2.73436400       2.73436400       0.00000000 </v>
    </varray>
    <i name="volume">     40.88829285 </i>
    <varray name="rec_basis" >
     <v>      -0.18285788       0.18285788       0.18285788 </v>
     <v>       0.18285788      -0.18285788       0.18285788 </v>
     <v>       0.18285788       0.18285788      -0.18285788 </v>
    </varray>
   </crystal>
   <varray name="positions" >
    <v>       0.75000000       0.75000000       0.75000000 </v>
    <v>       0.50000000       0.50000000       0.50000000 </v>
   </varray>
  </structure>
  <varray name="primitive_index" >
   <v type="int" >        1 </v>
   <v type="int" >        2 </v>
  </varray>
 </primitive_cell>
 <kpoints>
  <generation param="Gamma">
   <v type="int" name="divisions">       3        3        3 </v>
   <v name="usershift">      0.00000000       0.00000000       0.00000000 </v>
   <v name="genvec1">      0.33333333       0.00000000      -0.00000000 </v>
   <v name="genvec2">      0.00000000       0.33333333       0.00000000 </v>
   <v name="genvec3">     -0.00000000      -0.00000000       0.33333333 </v>
   <v name="shift">      0.00000000       0.00000000       0.00000000 </v>
  </generation>
  <varray name="kpointlist" >
   <v>       0.00000000       0.00000000       0.00000000 </v>
   <v>       0.33333333      -0.00000000       0.00000000 </v>
   <v>       0.33333333       0.33333333      -0.00000000 </v>
   <v>      -0.33333333       0.33333333       0.00000000 </v>
  </varray>
  <varray name="weights" >
   <v>       0.03703704 </v>
   <v>       0.29629630 </v>
   <v>       0.22222222 </v>
   <v>       0.44444444 </v>
  </varray>
 </kpoints>
 <parameters>
  <separator name="general" >
   <i type="string" name="SYSTEM">unknown system</i>
   <i type="logical" name="LCOMPAT"> F  </i>
  </separator>
  <separator name="electronic" >
   <i type="string" name="PREC">accura</i>
   <i name="ENMAX">    700.00000000</i>
   <i name="ENAUG">   1360.00000000</i>
   <i name="EDIFF">      0.00000010</i>
   <i type="int" name="IALGO">    38</i>
   <i type="int" name="IWAVPR">    11</i>
   <i type="int" name="NBANDS">     9</i>
   <i type="int" name="NBANDSLOW">    -1</i>
   <i type="int" name="NBANDSHIGH">    -1</i>
   <i name="NELECT">      8.00000000</i>
   <i type="int" name="TURBO">     0</i>
   <i type="int" name="IRESTART">     0</i>
   <i type="int" name="NREBOOT">     0</i>
   <i type="int" name="NMIN">     0</i>
   <i name="EREF">      0.00000000</i>
   <separator name="electronic smearing" >
    <i type="int" name="ISMEAR">     0</i>
    <i name="SIGMA">      0.05000000</i>
    <i name="KSPACING">      0.50000000</i>
    <i type="logical" name="KGAMMA"> T  </i>
    <i type="logical" name="KBLOWUP"> T  </i>
   </separator>
   <separator name="electronic projectors" >
    <i type="logical" name="LREAL"> F  </i>
    <v name="ROPT">      0.00000000</v>
    <i type="int" name="LMAXPAW">  -100</i>
    <i type="int" name="LMAXMIX">     2</i>
    <i type="logical" name="NLSPLINE"> F  </i>
   </separator>
   <separator name="electronic startup" >
    <i type="int" name="ISTART">     0</i>
    <i type="int" name="ICHARG">     2</i>
    <i type="int" name="INIWAV">     1</i>
   </separator>
   <separator name="electronic spin" >
    <i type="int" name="ISPIN">     2</i>
    <i type="logical" name="LNONCOLLINEAR"> F  </i>
    <v name="MAGMOM">      0.60000000      0.60000000</v>
    <i name="NUPDOWN">     -1.00000000</i>
    <i type="logical" name="LSORBIT"> F  </i>
    <v name="SAXIS">      0.00000000      0.00000000      1.00000000</v>
    <i type="logical" name="LSPIRAL"> F  </i>
    <v name="QSPIRAL">      0.00000000      0.00000000      0.00000000</v>
    <i type="logical" name="LZEROZ"> F  </i>
   </separator>
   <separator name="electronic exchange-correlation" >
    <i type="logical" name="LASPH"> T  </i>
    <i type="logical" name="LMETAGGA"> F  </i>
   </separator>
   <separator name="electronic convergence" >
    <i type="int" name="NELM">   200</i>
    <i type="int" name="NELMDL">    -5</i>
    <i type="int" name="NELMIN">     2</i>
    <i name="ENINI">    700.00000000</i>
    <separator name="electronic convergence detail" >
     <i type="logical" name="LDIAG"> T  </i>
     <i type="logical" name="LSUBROT"> F  </i>
     <i name="WEIMIN">      0.00100000</i>
     <i name="EBREAK">      0.00000000</i>
     <i name="DEPER">      0.30000000</i>
     <i type="int" name="NRMM">     4</i>
     <i name="TIME">      0.40000000</i>
    </separator>
   </separator>
   <separator name="electronic mixer" >
    <i name="AMIX">      0.40000000</i>
    <i name="BMIX">      1.00000000</i>
    <i name="AMIN">      0.10000000</i>
    <i name="AMIX_MAG">      1.60000000</i>
    <i name="BMIX_MAG">      1.00000000</i>
    <separator name="electronic mixer details" >
     <i type="int" name="IMIX">     4</i>
     <i type="logical" name="MIXFIRST"> F  </i>
     <i type="int" name="MAXMIX">   -45</i>
     <i name="WC">    100.00000000</i>
     <i type="int" name="INIMIX">     1</i>
     <i type="int" name="MIXPRE">     1</i>
     <i type="int" name="MREMOVE">     5</i>
    </separator>
   </separator>
   <separator name="electronic dipolcorrection" >
    <i type="logical" name="LDIPOL"> F  </i>
    <i type="logical" name="LMONO"> F  </i>
    <i type="int" name="IDIPOL">     0</i>
    <i name="EPSILON">      1.00000000</i>
    <v name="DIPOL">   -100.00000000   -100.00000000   -100.00000000</v>
    <i name="EFIELD">      0.00000000</i>
   </separator>
  </separator>
  <separator name="grids" >
   <i type="int" name="NGX">    36</i>
   <i type="int" name="NGY">    36</i>
   <i type="int" name="NGZ">    36</i>
   <i type="int" name="NGXF">    72</i>
   <i type="int" name="NGYF">    72</i>
   <i type="int" name="NGZF">    72</i>
   <i type="logical" name="ADDGRID"> F  </i>
  </separator>
  <separator name="ionic" >
   <i type="int" name="NSW">    99</i>
   <i type="int" name="IBRION">     2</i>
   <i type="int" name="MDALGO">     0</i>
   <i type="int" name="ISIF">     3</i>
   <i name="PSTRESS">      0.00000000</i>
   <i name="EDIFFG">     -0.00100000</i>
   <i type="int" name="NFREE">     1</i>
   <i name="POTIM">      0.50000000</i>
   <i name="SMASS">     -3.00000000</i>
   <i name="SCALEE">      1.00000000</i>
  </separator>
  <separator name="ionic md" >
   <i name="TEBEG">      0.00010000</i>
   <i name="TEEND">      0.00010000</i>
   <i type="int" name="NBLOCK">     1</i>
   <i type="int" name="KBLOCK">    99</i>
   <i type="int" name="NPACO">   256</i>
   <i name="APACO">     16.00000000</i>
  </separator>
  <separator name="symmetry" >
   <i type="int" name="ISYM">     2</i>
   <i name="SYMPREC">      0.00001000</i>
  </separator>
  <separator name="dos" >
   <i type="int" name="LORBIT">    11</i>
   <v name="RWIGS">     -1.00000000</v>
   <i type="int" name="NEDOS">   301</i>
   <i name="EMIN">     10.00000000</i>
   <i name="EMAX">    -10.00000000</i>
   <i name="EFERMI">      0.00000000</i>
  </separator>
  <separator name="writing" >
   <i type="int" name="NWRITE">     2</i>
   <i type="logical" name="LWAVE"> F  </i>
   <i type="logical" name="LDOWNSAMPLE"> F  </i>
   <i type="logical" name="LCHARG"> F  </i>
   <i type="logical" name="LPARD"> F  </i>
   <i type="logical" name="LVTOT"> T  </i>
   <i type="logical" name="LVHAR"> F  </i>
   <i type="logical" name="LELF"> T  </i>
   <i type="logical" name="LOPTICS"> F  </i>
   <v name="STM">      0.00000000      0.00000000      0.00000000      0.00000000      0.00000000      0.00000000      0.00000000</v>
  </separator>
  <separator name="performance" >
   <i type="int" name="NPAR">     1</i>
   <i type="int" name="NSIM">     4</i>
   <i type="int" name="NBLK">    -1</i>
   <i type="logical" name="LPLANE"> T  </i>
   <i type="logical" name="LSCALAPACK"> F  </i>
   <i type="logical" name="LSCAAWARE"> F  </i>
   <i type="logical" name="LSCALU"> F  </i>
   <i type="logical" name="LASYNC"> F  </i>
   <i type="logical" name="LORBITALREAL"> F  </i>
  </separator>
  <separator name="miscellaneous" >
   <i type="int" name="IDIOT">     3</i>
   <i type="int" name="PHON_NSTRUCT">    -1</i>
   <i type="logical" name="LMUSIC"> F  </i>
   <v name="POMASS">     28.08500000</v>
   <v name="DARWINR">      0.00000000</v>
   <v name="DARWINV">      1.00000000</v>
   <i type="logical" name="LCORR"> T  </i>
  </separator>
  <i type="logical" name="GGA_COMPAT"> T  </i>
  <i type="logical" name="LBERRY"> F  </i>
  <i type="int" name="ICORELEVEL">     0</i>
  <i type="logical" name="LDAU"> F  </i>
  <i type="int" name="I_CONSTRAINED_M">     0</i>
  <separator name="electronic exchange-correlation" >
   <i type="string" name="GGA">--</i>
   <i type="int" name="VOSKOWN">     0</i>
   <i type="logical" name="LHFCALC"> F  </i>
   <i type="string" name="PRECFOCK"></i>
   <i type="logical" name="LSYMGRAD"> F  </i>
   <i type="logical" name="LHFONE"> F  </i>
   <i type="logical" name="LRHFCALC"> F  </i>
   <i type="logical" name="LTHOMAS"> F  </i>
   <i type="logical" name="LMODELHF"> F  </i>
   <i type="logical" name="LFOCKACE"> F  </i>
   <i name="ENCUT4O">     -1.00000000</i>
   <i type="int" name="EXXOEP">     0</i>
   <i type="int" name="FOURORBIT">     0</i>
   <i name="AEXX">      0.00000000</i>
   <i name="HFALPHA">      0.00000000</i>
   <i name="MCALPHA">      0.00000000</i>
   <i name="ALDAX">      1.00000000</i>
   <i name="AGGAX">      1.00000000</i>
   <i name="ALDAC">      1.00000000</i>
   <i name="AGGAC">      1.00000000</i>
   <i type="int" name="NKREDX">     1</i>
   <i type="int" name="NKREDY">     1</i>
   <i type="int" name="NKREDZ">     1</i>
   <i type="logical" name="SHIFTRED"> F  </i>
   <i type="logical" name="ODDONLY"> F  </i>
   <i type="logical" name="EVENONLY"> F  </i>
   <i type="int" name="LMAXFOCK">     0</i>
   <i type="int" name="NMAXFOCKAE">     0</i>
   <i type="logical" name="LFOCKAEDFT"> F  </i>
   <i name="HFSCREEN">      0.00000000</i>
   <i name="HFSCREENC">      0.00000000</i>
   <i type="int" name="NBANDSGWLOW">     0</i>
  </separator>
  <separator name="vdW DFT" >
   <i type="logical" name="LUSE_VDW"> F  </i>
   <i name="Zab_VDW">     -0.84910000</i>
   <i name="PARAM1">      0.12340000</i>
   <i name="PARAM2">      1.00000000</i>
   <i name="PARAM3">      0.00000000</i>
  </separator>
  <separator name="model GW" >
   <i type="int" name="MODEL_GW">     0</i>
   <i name="MODEL_EPS0">     12.26648785</i>
   <i name="MODEL_ALPHA">      1.00000000</i>
  </separator>
  <separator name="linear response parameters" >
   <i type="logical" name="LEPSILON"> F  </i>
   <i type="logical" name="LRPA"> F  </i>
   <i type="logical" name="LNABLA"> F  </i>
   <i type="logical" name="LVEL"> F  </i>
   <i type="int" name="KINTER">     0</i>
   <i name="CSHIFT">      0.10000000</i>
   <i name="OMEGAMAX">     -1.00000000</i>
   <i name="DEG_THRESHOLD">      0.00200000</i>
   <i name="RTIME">     -0.10000000</i>
   <i name="WPLASMAI">      0.00000000</i>
   <v name="DFIELD">      0.00000000      0.00000000      0.00000000</v>
   <v name="WPLASMA">      0.00000000      0.00000000      0.00000000      0.00000000      0.00000000      0.00000000      0.00000000      0.00000000      0.00000000</v>
  </separator>
  <separator name="orbital magnetization" >
   <i type="logical" name="NUCIND"> F  </i>
   <v name="MAGPOS">      0.00000000      0.00000000      0.00000000</v>
   <i type="logical" name="LNICSALL"> T  </i>
   <i type="logical" name="ORBITALMAG"> F  </i>
   <i type="logical" name="LMAGBLOCH"> F  </i>
   <i type="logical" name="LCHIMAG"> F  </i>
   <i type="logical" name="LGAUGE"> T  </i>
   <i type="int" name="MAGATOM">     0</i>
   <v name="MAGDIPOL">      0.00000000      0.00000000      0.00000000</v>
   <v name="AVECCONST">      0.00000000      0.00000000      0.00000000</v>
  </separator>
  <separator name="response functions" >
   <i type="logical" name="LFINITE_TEMPERATURE"> F  </i>
   <i type="logical" name="LADDER"> F  </i>
   <i type="logical" name="LRPAFORCE"> F  </i>
   <i type="logical" name="LFXC"> F  </i>
   <i type="logical" name="LHARTREE"> T  </i>
   <i type="int" name="IBSE">     0</i>
   <v type="int" name="KPOINT">    -1     0     0     0</v>
   <i type="logical" name="LTCTC"> F  </i>
   <i type="logical" name="LTCTE"> F  </i>
   <i type="logical" name="LTETE"> F  </i>
   <i type="logical" name="LTRIPLET"> F  </i>
   <i type="logical" name="LFXCEPS"> F  </i>
   <i type="logical" name="LFXHEG"> F  </i>
   <i type="int" name="NATURALO">     2</i>
   <i type="logical" name="LHOLEGF"> F  </i>
   <i type="logical" name="L2ORDER"> F  </i>
   <i type="logical" name="LDMP1"> F  </i>
   <i type="logical" name="LMP2LT"> F  </i>
   <i type="logical" name="LSMP2LT"> F  </i>
   <i type="logical" name="LGWLF"> F  </i>
   <i name="ENCUTGW">     -2.00000000</i>
   <i name="ENCUTGWSOFT">     -2.00000000</i>
   <i name="ENCUTLF">     -1.00000000</i>
   <i type="logical" name="LESF_SPLINES"> F  </i>
   <i type="int" name="LMAXMP2">    -1</i>
   <i name="SCISSOR">      0.00000000</i>
   <i type="int" name="NOMEGA">     0</i>
   <i type="int" name="NOMEGAR">     0</i>
   <i type="int" name="NBANDSGW">    -1</i>
   <i type="int" name="NBANDSO">    -1</i>
   <i type="int" name="NBANDSV">    -1</i>
   <i type="int" name="NELM">   200</i>
   <i type="int" name="NELMHF">     1</i>
   <i type="int" name="DIM">     3</i>
   <i type="int" name="IESPILON">     4</i>
   <i type="int" name="ANTIRES">     0</i>
   <i name="OMEGAMAX">    -30.00000000</i>
   <i name="OMEGAMIN">    -30.00000000</i>
   <i name="OMEGATL">   -200.00000000</i>
   <i type="int" name="OMEGAGRID">     0</i>
   <i name="CSHIFT">     -0.10000000</i>
   <i type="logical" name="LSELFENERGY"> F  </i>
   <i type="logical" name="LSPECTRAL"> F  </i>
   <i type="logical" name="LSPECTRALGW"> F  </i>
   <i type="logical" name="LSINGLES"> F  </i>
   <i type="logical" name="LFERMIGW"> F  </i>
   <i type="logical" name="ODDONLYGW"> F  </i>
   <i type="logical" name="EVENONLYGW"> F  </i>
   <i type="int" name="NKREDLFX">     1</i>
   <i type="int" name="NKREDLFY">     1</i>
   <i type="int" name="NKREDLFZ">     1</i>
   <i type="int" name="MAXMEM">  2800</i>
   <i type="int" name="TELESCOPE">     0</i>
   <i type="int" name="NTAUPAR">    -1</i>
   <i type="int" name="NOMEGAPAR">    -1</i>
   <i name="DAMP_NEWTON">      0.80000001</i>
   <i name="LAMBDA">      1.00000000</i>
  </separator>
  <separator name="External order field" >
   <i name="OFIELD_KAPPA">      0.00000000</i>
   <v name="OFIELD_K">      0.00000000      0.00000000      0.00000000</v>
   <i name="OFIELD_Q6_NEAR">      0.00000000</i>
   <i name="OFIELD_Q6_FAR">      0.00000000</i>
   <i name="OFIELD_A">      0.00000000</i>
  </separator>
 </parameters>
 <atominfo>
  <atoms>       2 </atoms>
  <types>       1 </types>
  <array name="atoms" >
   <dimension dim="1">ion</dimension>
   <field type="string">element</field>
   <field type="int">atomtype</field>
   <set>
    <rc><c>Si</c><c>   1</c></rc>
    <rc><c>Si</c><c>   1</c></rc>
   </set>
  </array>
  <array name="atomtypes" >
   <dimension dim="1">type</dimension>
   <field type="int">atomspertype</field>
   <field type="string">element</field>
   <field>mass</field>
   <field>valence</field>
   <field type="string">pseudopotential</field>
   <set>
    <rc><c>   2</c><c>Si</c><c>     28.08500000</c><c>      4.00000000</c><c>  PAW_PBE Si 05Jan2001                  </c></rc>
   </set>
  </array>
 </atominfo>
 <structure name="initialpos" >
  <crystal>
   <varray name="basis" >
    <v>       0.00000000       2.73436400       2.73436400 </v>
    <v>       2.73436400       0.00000000       2.73436400 </v>
    <v>       2.73436400       2.73436400       0.00000000 </v>
   </varray>
   <i name="volume">     40.88829285 </i>
   <varray name="rec_basis" >
    <v>      -0.18285788       0.18285788       0.18285788 </v>
    <v>       0.18285788      -0.18285788       0.18285788 </v>
    <v>       0.18285788       0.18285788      -0.18285788 </v>
   </varray>
  </crystal>
  <varray name="positions" >
   <v>       0.75000000       0.75000000       0.75000000 </v>
   <v>       0.50000000       0.50000000       0.50000000 </v>
  </varray>
 </structure>
 <calculation>
  <scstep>
   <time name="dav">    0.25    0.26</time>
   <time name="total">    0.77    0.79</time>
   <energy>
    <i name="alphaZ">      3.29318037 </i>
    <i name="ewald">   -226.94490206 </i>
    <i name="hartreedc">    -11.32338908 </i>
    <i name="XCdc">    -18.60569899 </i>
    <i name="pawpsdc">    176.18363791 </i>
    <i name="pawaedc">   -140.99252705 </i>
    <i name="eentropy">     -0.00606254 </i>
    <i name="bandstr">     28.65339454 </i>
    <i name="atom">    206.13324734 </i>
    <i name="e_fr_energy">     16.39088042 </i>
    <i name="e_wo_entrp">     16.39694296 </i>
    <i name="e_0_energy">     16.39391169 </i>
   </energy>
  </scstep>
  <scstep>
   <time name="dav">    0.39    0.39</time>
   <time name="total">    0.39    0.39</time>
   <energy>
    <i name="e_fr_energy">     -9.67850520 </i>
    <i name="e_wo_entrp">     -9.67850520 </i>
    <i name="e_0_energy">     -9.67850520 </i>
   </energy>
  </scstep>
  <scstep>
   <time name="dav">    0.23    0.23</time>
   <time name="total">    0.23    0.23</time>
   <energy>
    <i name="e_fr_energy">    -10.27481044 </i>
    <i name="e_wo_entrp">    -10.27481044 </i>
    <i name="e_0_energy">    -10.27481044 </i>
   </energy>
  </scstep>
  <scstep>
   <time name="dav">    0.54    0.58</time>
   <time name="total">    0.54    0.58</time>
   <energy>
    <i name="e_fr_energy">    -10.27995471 </i>
    <i name="e_wo_entrp">    -10.27995471 </i>
    <i name="e_0_energy">    -10.27995471 </i>
   </energy>
  </scstep>
  <scstep>
   <time name="dav">    0.57    0.60</time>
   <time name="total">    0.65    0.68</time>
   <energy>
    <i name="e_fr_energy">    -10.27995702 </i>
    <i name="e_wo_entrp">    -10.27995702 </i>
    <i name="e_0_energy">    -10.27995702 </i>
   </energy>
  </scstep>
  <scstep>
   <time name="dav">    0.31    0.33</time>
   <time name="total">    1.41    1.74</time>
   <energy>
    <i name="e_fr_energy">    -10.29797781 </i>
    <i name="e_wo_entrp">    -10.29797781 </i>
    <i name="e_0_energy">    -10.29797781 </i>
   </energy>
  </scstep>
  <scstep>
   <time name="dav">    0.30    0.31</time>
   <time name="total">    1.10    1.20</time>
   <energy>
    <i name="e_fr_energy">    -10.21945868 </i>
    <i name="e_wo_entrp">    -10.21945868 </i>
    <i name="e_0_energy">    -10.21945868 </i>
   </energy>
  </scstep>
  <scstep>
   <time name="dav">    0.27    0.27</time>
   <time name="total">    0.87    0.89</time>
   <energy>
    <i name="e_fr_energy">    -10.23867394 </i>
    <i name="e_wo_entrp">    -10.23867394 </i>
    <i name="e_0_energy">    -10.23867394 </i>
   </energy>
  </scstep>
  <scstep>
   <time name="dav">    0.34    0.35</time>
   <time name="total">    1.04    1.07</time>
   <energy>
    <i name="e_fr_energy">    -10.24133536 </i>
    <i name="e_wo_entrp">    -10.24133536 </i>
    <i name="e_0_energy">    -10.24133536 </i>
   </energy>
  </scstep>
  <scstep>
   <time name="dav">    0.27    0.28</time>
   <time name="total">    0.96    0.98</time>
   <energy>
    <i name="e_fr_energy">    -10.24228460 </i>
    <i name="e_wo_entrp">    -10.24228460 </i>
    <i name="e_0_energy">    -10.24228460 </i>
   </energy>
  </scstep>
  <scstep>
   <time name="dav">    0.26    0.27</time>
   <time name="total">    0.86    0.88</time>
   <energy>
    <i name="e_fr_energy">    -10.24239374 </i>
    <i name="e_wo_entrp">    -10.24239374 </i>
    <i name="e_0_energy">    -10.24239374 </i>
   </energy>
  </scstep>
  <scstep>
   <time name="dav">    0.32    0.33</time>
   <time name="total">    0.97    0.99</time>
   <energy>
    <i name="e_fr_energy">    -10.24241902 </i>
    <i name="e_wo_entrp">    -10.24241902 </i>
    <i name="e_0_energy">    -10.24241902 </i>
   </energy>
  </scstep>
  <scstep>
   <time name="dav">    0.24    0.25</time>
   <time name="total">    0.83    0.85</time>
   <energy>
    <i name="e_fr_energy">    -10.24242476 </i>
    <i name="e_wo_entrp">    -10.24242476 </i>
    <i name="e_0_energy">    -10.24242476 </i>
   </energy>
  </scstep>
  <scstep>
   <time name="dav">    0.33    0.34</time>
   <time name="total">    0.92    0.95</time>
   <energy>
    <i name="e_fr_energy">    -10.24242522 </i>
    <i name="e_wo_entrp">    -10.24242522 </i>
    <i name="e_0_energy">    -10.24242522 </i>
   </energy>
  </scstep>
  <scstep>
   <time name="dav">    0.22    0.23</time>
   <time name="total">    0.80    0.82</time>
   <energy>
    <i name="alphaZ">      3.29318037 </i>
    <i name="ewald">   -226.94490206 </i>
    <i name="hartreedc">    -15.97456697 </i>
    <i name="XCdc">    -17.96372042 </i>
    <i name="pawpsdc">    861.18463324 </i>
    <i name="pawaedc">   -826.22376995 </i>
    <i name="eentropy">     -0.00000000 </i>
    <i name="bandstr">      6.25347319 </i>
    <i name="atom">    206.13324734 </i>
    <i name="e_fr_energy">    -10.24242526 </i>
    <i name="e_wo_entrp">    -10.24242526 </i>
    <i name="e_0_energy">    -10.24242526 </i>
   </energy>
  </scstep>
  <structure>
   <crystal>
    <varray name="basis" >
     <v>       0.00000000       2.73436400       2.73436400 </v>
     <v>       2.73436400       0.00000000       2.73436400 </v>
     <v>       2.73436400       2.73436400       0.00000000 </v>
    </varray>
    <i name="volume">     40.88829285 </i>
    <varray name="rec_basis" >
     <v>      -0.18285788       0.18285788       0.18285788 </v>
     <v>       0.18285788      -0.18285788       0.18285788 </v>
     <v>       0.18285788       0.18285788      -0.18285788 </v>
    </varray>
   </crystal>
   <varray name="positions" >
    <v>       0.75000000       0.75000000       0.75000000 </v>
    <v>       0.50000000       0.50000000       0.50000000 </v>
   </varray>
  </structure>
  <varray name="forces" >
   <v>      -0.00000000      -0.00000000      -0.00000000 </v>
   <v>       0.00000000       0.00000000       0.00000000 </v>
  </varray>
  <varray name="stress" >
   <v>      18.59621613       0.00000000       0.00000000 </v>
   <v>       0.00000000      18.59621613       0.00000000 </v>
   <v>       0.00000000      -0.00000000      18.59621613 </v>
  </varray>
  <energy>
   <i name="e_fr_energy">    -10.24242526 </i>
   <i name="e_wo_entrp">    -10.24242526 </i>
   <i name="e_0_energy">    -10.24242526 </i>
  </energy>
  <time name="totalsc">   14.02   14.80</time>
 </calculation>
 <calculation>
  <scstep>
   <time name="dav">    0.26    0.27</time>
   <time name="total">    1.02    1.05</time>
   <energy>
    <i name="alphaZ">      3.18262421 </i>
    <i name="ewald">   -224.37633313 </i>
    <i name="hartreedc">    -15.79396289 </i>
    <i name="XCdc">    -18.13120436 </i>
    <i name="pawpsdc">    861.28293002 </i>
    <i name="pawaedc">   -826.32206360 </i>
    <i name="eentropy">     -0.00000000 </i>
    <i name="bandstr">      3.77362208 </i>
    <i name="atom">    206.13324734 </i>
    <i name="e_fr_energy">    -10.25114035 </i>
    <i name="e_wo_entrp">    -10.25114035 </i>
    <i name="e_0_energy">    -10.25114035 </i>
   </energy>
  </scstep>
  <scstep>
   <time name="dav">    0.26    0.27</time>
   <time name="total">    0.92    0.95</time>
   <energy>
    <i name="e_fr_energy">    -10.24710774 </i>
    <i name="e_wo_entrp">    -10.24710774 </i>
    <i name="e_0_energy">    -10.24710774 </i>
   </energy>
  </scstep>
  <scstep>
   <time name="dav">    0.33    0.34</time>
   <time name="total">    1.00    1.02</time>
   <energy>
    <i name="e_fr_energy">    -10.24492273 </i>
    <i name="e_wo_entrp">    -10.24492273 </i>
    <i name="e_0_energy">    -10.24492273 </i>
   </energy>
  </scstep>
  <scstep>
   <time name="dav">    0.26    0.26</time>
   <time name="total">    0.92    0.94</time>
   <energy>
    <i name="e_fr_energy">    -10.24492663 </i>
    <i name="e_wo_entrp">    -10.24492663 </i>
    <i name="e_0_energy">    -10.24492663 </i>
   </energy>
  </scstep>
  <scstep>
   <time name="dav">    0.23    0.23</time>
   <time name="total">    0.81    0.82</time>
   <energy>
    <i name="e_fr_energy">    -10.24492365 </i>
    <i name="e_wo_entrp">    -10.24492365 </i>
    <i name="e_0_energy">    -10.24492365 </i>
   </energy>
  </scstep>
  <scstep>
   <time name="dav">    0.23    0.23</time>
   <time name="total">    0.84    0.85</time>
   <energy>
    <i name="e_fr_energy">    -10.24492390 </i>
    <i name="e_wo_entrp">    -10.24492390 </i>
    <i name="e_0_energy">    -10.24492390 </i>
   </energy>
  </scstep>
  <scstep>
   <time name="dav">    0.22    0.23</time>
   <time name="total">    0.81    0.81</time>
   <energy>
    <i name="e_fr_energy">    -10.24492402 </i>
    <i name="e_wo_entrp">    -10.24492402 </i>
    <i name="e_0_energy">    -10.24492402 </i>
   </energy>
  </scstep>
  <scstep>
   <time name="dav">    0.30    0.31</time>
   <time name="total">    0.89    0.90</time>
   <energy>
    <i name="alphaZ">      3.18262421 </i>
    <i name="ewald">   -224.37633313 </i>
    <i name="hartreedc">    -16.38122029 </i>
    <i name="XCdc">    -18.11858247 </i>
    <i name="pawpsdc">    796.88774220 </i>
    <i name="pawaedc">   -761.89671981 </i>
    <i name="eentropy">     -0.00000000 </i>
    <i name="bandstr">      4.32431785 </i>
    <i name="atom">    206.13324734 </i>
    <i name="e_fr_energy">    -10.24492411 </i>
    <i name="e_wo_entrp">    -10.24492411 </i>
    <i name="e_0_energy">    -10.24492411 </i>
   </energy>
  </scstep>
  <structure>
   <crystal>
    <varray name="basis" >
     <v>       0.00000000       2.76566589       2.76566589 </v>
     <v>       2.76566589      -0.00000000       2.76566589 </v>
     <v>       2.76566589       2.76566589       0.00000000 </v>
    </varray>
    <i name="volume">     42.30864670 </i>
    <varray name="rec_basis" >
     <v>      -0.18078829       0.18078829       0.18078829 </v>
     <v>       0.18078829      -0.18078829       0.18078829 </v>
     <v>       0.18078829       0.18078829      -0.18078829 </v>
    </varray>
   </crystal>
   <varray name="positions" >
    <v>       0.75000000       0.75000000       0.75000000 </v>
    <v>       0.50000000       0.50000000       0.50000000 </v>
   </varray>
  </structure>
  <varray name="forces" >
   <v>      -0.00000000      -0.00000000      -0.00000000 </v>
   <v>       0.00000000       0.00000000       0.00000000 </v>
  </varray>
  <varray name="stress" >
   <v>     -11.95749435       0.00000000      -0.00000000 </v>
   <v>      -0.00000000     -11.95749435       0.00000000 </v>
   <v>      -0.00000000       0.00000000     -11.95749435 </v>
  </varray>
  <energy>
   <i name="e_fr_energy">    -10.24492411 </i>
   <i name="e_wo_entrp">    -10.24492411 </i>
   <i name="e_0_energy">    -10.24492411 </i>
  </energy>
  <time name="totalsc">    8.70    8.87</time>
 </calculation>
 <calculation>
  <scstep>
   <time name="dav">    0.23    0.23</time>
   <time name="total">    0.82    0.83</time>
   <energy>
    <i name="alphaZ">      3.22753713 </i>
    <i name="ewald">   -225.42686680 </i>
    <i name="hartreedc">    -16.45785858 </i>
    <i name="XCdc">    -18.05048173 </i>
    <i name="pawpsdc">    797.30847903 </i>
    <i name="pawaedc">   -762.31745519 </i>
    <i name="eentropy">     -0.00000000 </i>
    <i name="bandstr">      5.33520929 </i>
    <i name="atom">    206.13324734 </i>
    <i name="e_fr_energy">    -10.24818950 </i>
    <i name="e_wo_entrp">    -10.24818950 </i>
    <i name="e_0_energy">    -10.24818950 </i>
   </energy>
  </scstep>
  <scstep>
   <time name="dav">    0.22    0.22</time>
   <time name="total">    0.88    0.89</time>
   <energy>
    <i name="e_fr_energy">    -10.24750824 </i>
    <i name="e_wo_entrp">    -10.24750824 </i>
    <i name="e_0_energy">    -10.24750824 </i>
   </energy>
  </scstep>
  <scstep>
   <time name="dav">    0.30    0.31</time>
   <time name="total">    0.95    0.97</time>
   <energy>
    <i name="e_fr_energy">    -10.24714953 </i>
    <i name="e_wo_entrp">    -10.24714953 </i>
    <i name="e_0_energy">    -10.24714953 </i>
   </energy>
  </scstep>
  <scstep>
   <time name="dav">    0.26    0.27</time>
   <time name="total">    0.88    0.90</time>
   <energy>
    <i name="e_fr_energy">    -10.24715080 </i>
    <i name="e_wo_entrp">    -10.24715080 </i>
    <i name="e_0_energy">    -10.24715080 </i>
   </energy>
  </scstep>
  <scstep>
   <time name="dav">    0.33    0.34</time>
   <time name="total">    1.00    1.02</time>
   <energy>
    <i name="e_fr_energy">    -10.24715452 </i>
    <i name="e_wo_entrp">    -10.24715452 </i>
    <i name="e_0_energy">    -10.24715452 </i>
   </energy>
  </scstep>
  <scstep>
   <time name="dav">    0.27    0.29</time>
   <time name="total">    0.89    0.93</time>
   <energy>
    <i name="alphaZ">      3.22753713 </i>
    <i name="ewald">   -225.42686680 </i>
    <i name="hartreedc">    -16.21401363 </i>
    <i name="XCdc">    -18.05526751 </i>
    <i name="pawpsdc">    822.16282491 </i>
    <i name="pawaedc">   -787.18398895 </i>
    <i name="eentropy">     -0.00000000 </i>
    <i name="bandstr">      5.10937307 </i>
    <i name="atom">    206.13324734 </i>
    <i name="e_fr_energy">    -10.24715443 </i>
    <i name="e_wo_entrp">    -10.24715443 </i>
    <i name="e_0_energy">    -10.24715443 </i>
   </energy>
  </scstep>
  <structure>
   <crystal>
    <varray name="basis" >
     <v>       0.00000000       2.75277734       2.75277734 </v>
     <v>       2.75277734      -0.00000000       2.75277734 </v>
     <v>       2.75277734       2.75277734       0.00000000 </v>
    </varray>
    <i name="volume">     41.71989900 </i>
    <varray name="rec_basis" >
     <v>      -0.18163474       0.18163474       0.18163474 </v>
     <v>       0.18163474      -0.18163474       0.18163474 </v>
     <v>       0.18163474       0.18163474      -0.18163474 </v>
    </varray>
   </crystal>
   <varray name="positions" >
    <v>       0.75000000       0.75000000       0.75000000 </v>
    <v>       0.50000000       0.50000000       0.50000000 </v>
   </varray>
  </structure>
  <varray name="forces" >
   <v>      -0.00000000      -0.00000000      -0.00000000 </v>
   <v>       0.00000000       0.00000000       0.00000000 </v>
  </varray>
  <varray name="stress" >
   <v>       0.04334350       0.00000000      -0.00000000 </v>
   <v>      -0.00000000       0.04334350      -0.00000000 </v>
   <v>       0.00000000       0.00000000       0.04334350 </v>
  </varray>
  <energy>
   <i name="e_fr_energy">    -10.24715443 </i>
   <i name="e_wo_entrp">    -10.24715443 </i>
   <i name="e_0_energy">    -10.24715443 </i>
  </energy>
  <time name="totalsc">    6.77    6.90</time>
  <eigenvalues>
   <array>
    <dimension dim="1">band</dimension>
    <dimension dim="2">kpoint</dimension>
    <dimension dim="3">spin</dimension>
    <field>eigene</field>
    <field>occ</field>
    <set>
     <set comment="spin 1">
      <set comment="kpoint 1">
       <r>   -6.1745    1.0000 </r>
       <r>    5.5242    1.0000 </r>
       <r>    5.5242    1.0000 </r>
       <r>    5.5242    1.0000 </r>
       <r>    8.0290    0.0000 </r>
       <r>    8.0290    0.0000 </r>
       <r>    8.0290    0.0000 </r>
       <r>    8.4400    0.0000 </r>
       <r>   13.1689    0.0000 </r>
      </set>
      <set comment="kpoint 2">
       <r>   -4.8471    1.0000 </r>
       <r>    0.2943    1.0000 </r>
       <r>    4.5477    1.0000 </r>
       <r>    4.5477    1.0000 </r>
       <r>    7.1302    0.0000 </r>
       <r>    8.9777    0.0000 </r>
       <r>    8.9777    0.0000 </r>
       <r>   13.2044    0.0000 </r>
       <r>   13.4048    0.0000 </r>
      </set>
      <set comment="kpoint 3">
       <r>   -4.3343    1.0000 </r>
       <r>    0.5446    1.0000 </r>
       <r>    3.1815    1.0000 </r>
       <r>    3.1815    1.0000 </r>
       <r>    6.2747    0.0000 </r>
       <r>    7.5300    0.0000 </r>
       <r>   12.5899    0.0000 </r>
       <r>   12.5899    0.0000 </r>
       <r>   14.9177    0.0000 </r>
      </set>
      <set comment="kpoint 4">
       <r>   -3.0338    1.0000 </r>
       <r>   -1.1499    1.0000 </r>
       <r>    1.2751    1.0000 </r>
       <r>    3.4750    1.0000 </r>
       <r>    7.0914    0.0000 </r>
       <r>   11.2585    0.0000 </r>
       <r>   11.8256    0.0000 </r>
       <r>   12.3814    0.0000 </r>
       <r>   12.6665    0.0000 </r>
      </set>
     </set>
     <set comment="spin 2">
      <set comment="kpoint 1">
       <r>   -6.1745    1.0000 </r>
       <r>    5.5242    1.0000 </r>
       <r>    5.5242    1.0000 </r>
       <r>    5.5242    1.0000 </r>
       <r>    8.0290    0.0000 </r>
       <r>    8.0290    0.0000 </r>
       <r>    8.0290    0.0000 </r>
       <r>    8.4400    0.0000 </r>
       <r>   13.1689    0.0000 </r>
      </set>
      <set comment="kpoint 2">
       <r>   -4.8471    1.0000 </r>
       <r>    0.2943    1.0000 </r>
       <r>    4.5477    1.0000 </r>
       <r>    4.5477    1.0000 </r>
       <r>    7.1302    0.0000 </r>
       <r>    8.9777    0.0000 </r>
       <r>    8.9777    0.0000 </r>
       <r>   13.2044    0.0000 </r>
       <r>   13.4048    0.0000 </r>
      </set>
      <set comment="kpoint 3">
       <r>   -4.3343    1.0000 </r>
       <r>    0.5446    1.0000 </r>
       <r>    3.1815    1.0000 </r>
       <r>    3.1815    1.0000 </r>
       <r>    6.2747    0.0000 </r>
       <r>    7.5300    0.0000 </r>
       <r>   12.5899    0.0000 </r>
       <r>   12.5899    0.0000 </r>
       <r>   14.9177    0.0000 </r>
      </set>
      <set comment="kpoint 4">
       <r>   -3.0338    1.0000 </r>
       <r>   -1.1499    1.0000 </r>
       <r>    1.2751    1.0000 </r>
       <r>    3.4750    1.0000 </r>
       <r>    7.0914    0.0000 </r>
       <r>   11.2585    0.0000 </r>
       <r>   11.8256    0.0000 </r>
       <r>   12.3814    0.0000 </r>
       <r>   12.6665    0.0000 </r>
      </set>
     </set>
    </set>
   </array>
  </eigenvalues>
  <separator name="orbital magnetization" >
   <v name="MAGDIPOLOUT">      0.00000000      0.00000000      0.00000000</v>
  </separator>
  <dos>
   <i name="efermi">      5.76855841 </i>
   <total>
    <array>
     <dimension dim="1">gridpoints</dimension>
     <dimension dim="2">spin</dimension>
     <field>energy</field>
     <field>total</field>
     <field>integrated</field>
     <set>
      <set comment="spin 1">
       <r>    -7.2291     0.0000     0.0000 </r>
       <r>    -7.1517     0.0000     0.0000 </r>
       <r>    -7.0744     0.0000     0.0000 </r>
       <r>    -6.9971     0.0000     0.0000 </r>
       <r>    -6.9197     0.0000     0.0000 </r>
       <r>    -6.8424     0.0000     0.0000 </r>
       <r>    -6.7651     0.0000     0.0000 </r>
       <r>    -6.6877     0.0000     0.0000 </r>
       <r>    -6.6104     0.0000     0.0000 </r>
       <r>    -6.5330     0.0000     0.0000 </r>
       <r>    -6.4557     0.0000     0.0000 </r>
       <r>    -6.3784     0.0000     0.0000 </r>
       <r>    -6.3010     0.0001     0.0000 </r>
       <r>    -6.2237     0.0392     0.0030 </r>
       <r>    -6.1463     0.3376     0.0291 </r>
       <r>    -6.0690     0.1014     0.0370 </r>
       <r>    -5.9917     0.0007     0.0370 </r>
       <r>    -5.9143     0.0000     0.0370 </r>
       <r>    -5.8370     0.0000     0.0370 </r>
       <r>    -5.7597     0.0000     0.0370 </r>
       <r>    -5.6823     0.0000     0.0370 </r>
       <r>    -5.6050     0.0000     0.0370 </r>
       <r>    -5.5276     0.0000     0.0370 </r>
       <r>    -5.4503     0.0000     0.0370 </r>
       <r>    -5.3730     0.0000     0.0370 </r>
       <r>    -5.2956     0.0000     0.0370 </r>
       <r>    -5.2183     0.0000     0.0370 </r>
       <r>    -5.1410     0.0000     0.0370 </r>
       <r>    -5.0636     0.0000     0.0370 </r>
       <r>    -4.9863     0.0002     0.0370 </r>
       <r>    -4.9089     0.1535     0.0489 </r>
       <r>    -4.8316     2.4106     0.2354 </r>
       <r>    -4.7543     1.2504     0.3321 </r>
       <r>    -4.6769     0.0166     0.3333 </r>
       <r>    -4.5996     0.0000     0.3333 </r>
       <r>    -4.5222     0.0000     0.3333 </r>
       <r>    -4.4449     0.0025     0.3335 </r>
       <r>    -4.3676     0.4951     0.3718 </r>
       <r>    -4.2902     2.0700     0.5319 </r>
       <r>    -4.2129     0.3049     0.5555 </r>
       <r>    -4.1356     0.0009     0.5556 </r>
       <r>    -4.0582     0.0000     0.5556 </r>
       <r>    -3.9809     0.0000     0.5556 </r>
       <r>    -3.9035     0.0000     0.5556 </r>
       <r>    -3.8262     0.0000     0.5556 </r>
       <r>    -3.7489     0.0000     0.5556 </r>
       <r>    -3.6715     0.0000     0.5556 </r>
       <r>    -3.5942     0.0000     0.5556 </r>
       <r>    -3.5168     0.0000     0.5556 </r>
       <r>    -3.4395     0.0000     0.5556 </r>
       <r>    -3.3622     0.0000     0.5556 </r>
       <r>    -3.2848     0.0000     0.5556 </r>
       <r>    -3.2075     0.0000     0.5556 </r>
       <r>    -3.1302     0.0184     0.5570 </r>
       <r>    -3.0528     1.6766     0.6866 </r>
       <r>    -2.9755     3.7666     0.9779 </r>
       <r>    -2.8981     0.2848     1.0000 </r>
       <r>    -2.8208     0.0004     1.0000 </r>
       <r>    -2.7435     0.0000     1.0000 </r>
       <r>    -2.6661     0.0000     1.0000 </r>
       <r>    -2.5888     0.0000     1.0000 </r>
       <r>    -2.5115     0.0000     1.0000 </r>
       <r>    -2.4341     0.0000     1.0000 </r>
       <r>    -2.3568     0.0000     1.0000 </r>
       <r>    -2.2794     0.0000     1.0000 </r>
       <r>    -2.2021     0.0000     1.0000 </r>
       <r>    -2.1248     0.0000     1.0000 </r>
       <r>    -2.0474     0.0000     1.0000 </r>
       <r>    -1.9701     0.0000     1.0000 </r>
       <r>    -1.8927     0.0000     1.0000 </r>
       <r>    -1.8154     0.0000     1.0000 </r>
       <r>    -1.7381     0.0000     1.0000 </r>
       <r>    -1.6607     0.0000     1.0000 </r>
       <r>    -1.5834     0.0000     1.0000 </r>
       <r>    -1.5061     0.0000     1.0000 </r>
       <r>    -1.4287     0.0000     1.0000 </r>
       <r>    -1.3514     0.0000     1.0000 </r>
       <r>    -1.2740     0.0013     1.0001 </r>
       <r>    -1.1967     0.5329     1.0413 </r>
       <r>    -1.1194     4.1000     1.3584 </r>
       <r>    -1.0420     1.1060     1.4439 </r>
       <r>    -0.9647     0.0065     1.4444 </r>
       <r>    -0.8874     0.0000     1.4444 </r>
       <r>    -0.8100     0.0000     1.4444 </r>
       <r>    -0.7327     0.0000     1.4444 </r>
       <r>    -0.6553     0.0000     1.4444 </r>
       <r>    -0.5780     0.0000     1.4444 </r>
       <r>    -0.5007     0.0000     1.4444 </r>
       <r>    -0.4233     0.0000     1.4444 </r>
       <r>    -0.3460     0.0000     1.4444 </r>
       <r>    -0.2686     0.0000     1.4444 </r>
       <r>    -0.1913     0.0000     1.4444 </r>
       <r>    -0.1140     0.0000     1.4444 </r>
       <r>    -0.0366     0.0000     1.4444 </r>
       <r>     0.0407     0.0000     1.4444 </r>
       <r>     0.1180     0.0000     1.4444 </r>
       <r>     0.1954     0.0098     1.4452 </r>
       <r>     0.2727     1.0264     1.5246 </r>
       <r>     0.3501     2.5746     1.7237 </r>
       <r>     0.4274     0.2213     1.7408 </r>
       <r>     0.5047     0.3712     1.7695 </r>
       <r>     0.5821     2.0850     1.9308 </r>
       <r>     0.6594     0.4145     1.9628 </r>
       <r>     0.7367     0.0017     1.9630 </r>
       <r>     0.8141     0.0000     1.9630 </r>
       <r>     0.8914     0.0000     1.9630 </r>
       <r>     0.9688     0.0000     1.9630 </r>
       <r>     1.0461     0.0000     1.9630 </r>
       <r>     1.1234     0.0001     1.9630 </r>
       <r>     1.2008     0.1019     1.9708 </r>
       <r>     1.2781     2.9653     2.2002 </r>
       <r>     1.3555     2.6132     2.4023 </r>
       <r>     1.4328     0.0663     2.4074 </r>
       <r>     1.5101     0.0000     2.4074 </r>
       <r>     1.5875     0.0000     2.4074 </r>
       <r>     1.6648     0.0000     2.4074 </r>
       <r>     1.7421     0.0000     2.4074 </r>
       <r>     1.8195     0.0000     2.4074 </r>
       <r>     1.8968     0.0000     2.4074 </r>
       <r>     1.9742     0.0000     2.4074 </r>
       <r>     2.0515     0.0000     2.4074 </r>
       <r>     2.1288     0.0000     2.4074 </r>
       <r>     2.2062     0.0000     2.4074 </r>
       <r>     2.2835     0.0000     2.4074 </r>
       <r>     2.3608     0.0000     2.4074 </r>
       <r>     2.4382     0.0000     2.4074 </r>
       <r>     2.5155     0.0000     2.4074 </r>
       <r>     2.5929     0.0000     2.4074 </r>
       <r>     2.6702     0.0000     2.4074 </r>
       <r>     2.7475     0.0000     2.4074 </r>
       <r>     2.8249     0.0000     2.4074 </r>
       <r>     2.9022     0.0000     2.4074 </r>
       <r>     2.9796     0.0000     2.4074 </r>
       <r>     3.0569     0.0012     2.4075 </r>
       <r>     3.1342     0.5195     2.4477 </r>
       <r>     3.2116     4.0909     2.7641 </r>
       <r>     3.2889     1.1283     2.8513 </r>
       <r>     3.3662     0.0129     2.8523 </r>
       <r>     3.4436     1.0688     2.9350 </r>
       <r>     3.5209     4.1143     3.2532 </r>
       <r>     3.5983     0.5563     3.2962 </r>
       <r>     3.6756     0.0014     3.2963 </r>
       <r>     3.7529     0.0000     3.2963 </r>
       <r>     3.8303     0.0000     3.2963 </r>
       <r>     3.9076     0.0000     3.2963 </r>
       <r>     3.9849     0.0000     3.2963 </r>
       <r>     4.0623     0.0000     3.2963 </r>
       <r>     4.1396     0.0000     3.2963 </r>
       <r>     4.2170     0.0000     3.2963 </r>
       <r>     4.2943     0.0000     3.2963 </r>
       <r>     4.3716     0.0000     3.2963 </r>
       <r>     4.4490     0.0201     3.2978 </r>
       <r>     4.5263     2.0695     3.4579 </r>
       <r>     4.6037     5.1381     3.8553 </r>
       <r>     4.6810     0.4341     3.8888 </r>
       <r>     4.7583     0.0006     3.8889 </r>
       <r>     4.8357     0.0000     3.8889 </r>
       <r>     4.9130     0.0000     3.8889 </r>
       <r>     4.9903     0.0000     3.8889 </r>
       <r>     5.0677     0.0000     3.8889 </r>
       <r>     5.1450     0.0000     3.8889 </r>
       <r>     5.2224     0.0000     3.8889 </r>
       <r>     5.2997     0.0000     3.8889 </r>
       <r>     5.3770     0.0000     3.8889 </r>
       <r>     5.4544     0.0346     3.8916 </r>
       <r>     5.5317     0.8040     3.9537 </r>
       <r>     5.6090     0.5863     3.9991 </r>
       <r>     5.6864     0.0118     4.0000 </r>
       <r>     5.7637     0.0000     4.0000 </r>
       <r>     5.8411     0.0000     4.0000 </r>
       <r>     5.9184     0.0000     4.0000 </r>
       <r>     5.9957     0.0000     4.0000 </r>
       <r>     6.0731     0.0000     4.0000 </r>
       <r>     6.1504     0.0006     4.0000 </r>
       <r>     6.2278     0.2644     4.0205 </r>
       <r>     6.3051     2.0486     4.1789 </r>
       <r>     6.3824     0.5564     4.2220 </r>
       <r>     6.4598     0.0033     4.2222 </r>
       <r>     6.5371     0.0000     4.2222 </r>
       <r>     6.6144     0.0000     4.2222 </r>
       <r>     6.6918     0.0000     4.2222 </r>
       <r>     6.7691     0.0000     4.2222 </r>
       <r>     6.8465     0.0000     4.2222 </r>
       <r>     6.9238     0.0000     4.2222 </r>
       <r>     7.0011     0.0312     4.2246 </r>
       <r>     7.0785     2.2972     4.4023 </r>
       <r>     7.1558     6.1562     4.8784 </r>
       <r>     7.2331     1.0864     4.9624 </r>
       <r>     7.3105     0.0070     4.9630 </r>
       <r>     7.3878     0.0001     4.9630 </r>
       <r>     7.4652     0.0955     4.9704 </r>
       <r>     7.5425     1.7370     5.1047 </r>
       <r>     7.6198     1.0249     5.1840 </r>
       <r>     7.6972     0.0159     5.1852 </r>
       <r>     7.7745     0.0000     5.1852 </r>
       <r>     7.8519     0.0000     5.1852 </r>
       <r>     7.9292     0.0034     5.1854 </r>
       <r>     8.0065     0.3736     5.2143 </r>
       <r>     8.0839     0.9729     5.2896 </r>
       <r>     8.1612     0.0866     5.2963 </r>
       <r>     8.2385     0.0001     5.2963 </r>
       <r>     8.3159     0.0001     5.2963 </r>
       <r>     8.3932     0.0444     5.2997 </r>
       <r>     8.4706     0.3417     5.3262 </r>
       <r>     8.5479     0.0922     5.3333 </r>
       <r>     8.6252     0.0005     5.3333 </r>
       <r>     8.7026     0.0000     5.3333 </r>
       <r>     8.7799     0.0000     5.3333 </r>
       <r>     8.8572     0.0025     5.3335 </r>
       <r>     8.9346     0.8511     5.3994 </r>
       <r>     9.0119     5.5335     5.8273 </r>
       <r>     9.0893     1.2691     5.9255 </r>
       <r>     9.1666     0.0061     5.9259 </r>
       <r>     9.2439     0.0000     5.9259 </r>
       <r>     9.3213     0.0000     5.9259 </r>
       <r>     9.3986     0.0000     5.9259 </r>
       <r>     9.4760     0.0000     5.9259 </r>
       <r>     9.5533     0.0000     5.9259 </r>
       <r>     9.6306     0.0000     5.9259 </r>
       <r>     9.7080     0.0000     5.9259 </r>
       <r>     9.7853     0.0000     5.9259 </r>
       <r>     9.8626     0.0000     5.9259 </r>
       <r>     9.9400     0.0000     5.9259 </r>
       <r>    10.0173     0.0000     5.9259 </r>
       <r>    10.0947     0.0000     5.9259 </r>
       <r>    10.1720     0.0000     5.9259 </r>
       <r>    10.2493     0.0000     5.9259 </r>
       <r>    10.3267     0.0000     5.9259 </r>
       <r>    10.4040     0.0000     5.9259 </r>
       <r>    10.4814     0.0000     5.9259 </r>
       <r>    10.5587     0.0000     5.9259 </r>
       <r>    10.6360     0.0000     5.9259 </r>
       <r>    10.7134     0.0000     5.9259 </r>
       <r>    10.7907     0.0000     5.9259 </r>
       <r>    10.8680     0.0000     5.9259 </r>
       <r>    10.9454     0.0000     5.9259 </r>
       <r>    11.0227     0.0000     5.9259 </r>
       <r>    11.1001     0.0000     5.9259 </r>
       <r>    11.1774     0.0628     5.9308 </r>
       <r>    11.2547     2.5694     6.1295 </r>
       <r>    11.3321     3.0073     6.3621 </r>
       <r>    11.4094     0.1072     6.3704 </r>
       <r>    11.4867     0.0001     6.3704 </r>
       <r>    11.5641     0.0000     6.3704 </r>
       <r>    11.6414     0.0000     6.3704 </r>
       <r>    11.7188     0.0072     6.3709 </r>
       <r>    11.7961     1.1545     6.4602 </r>
       <r>    11.8734     4.0796     6.7757 </r>
       <r>    11.9508     0.5043     6.8147 </r>
       <r>    12.0281     0.0011     6.8148 </r>
       <r>    12.1055     0.0000     6.8148 </r>
       <r>    12.1828     0.0000     6.8148 </r>
       <r>    12.2601     0.0017     6.8149 </r>
       <r>    12.3375     0.6137     6.8624 </r>
       <r>    12.4148     4.1414     7.1827 </r>
       <r>    12.4921     1.0013     7.2601 </r>
       <r>    12.5695     1.6254     7.3858 </r>
       <r>    12.6468     5.4630     7.8083 </r>
       <r>    12.7242     4.0981     8.1253 </r>
       <r>    12.8015     0.2953     8.1481 </r>
       <r>    12.8788     0.0004     8.1481 </r>
       <r>    12.9562     0.0000     8.1481 </r>
       <r>    13.0335     0.0000     8.1482 </r>
       <r>    13.1108     0.0396     8.1512 </r>
       <r>    13.1882     1.5369     8.2701 </r>
       <r>    13.2655     2.5715     8.4689 </r>
       <r>    13.3429     0.3144     8.4933 </r>
       <r>    13.4202     2.4069     8.6794 </r>
       <r>    13.4975     1.2552     8.7765 </r>
       <r>    13.5749     0.0168     8.7778 </r>
       <r>    13.6522     0.0000     8.7778 </r>
       <r>    13.7296     0.0000     8.7778 </r>
       <r>    13.8069     0.0000     8.7778 </r>
       <r>    13.8842     0.0000     8.7778 </r>
       <r>    13.9616     0.0000     8.7778 </r>
       <r>    14.0389     0.0000     8.7778 </r>
       <r>    14.1162     0.0000     8.7778 </r>
       <r>    14.1936     0.0000     8.7778 </r>
       <r>    14.2709     0.0000     8.7778 </r>
       <r>    14.3483     0.0000     8.7778 </r>
       <r>    14.4256     0.0000     8.7778 </r>
       <r>    14.5029     0.0000     8.7778 </r>
       <r>    14.5803     0.0000     8.7778 </r>
       <r>    14.6576     0.0000     8.7778 </r>
       <r>    14.7349     0.0000     8.7778 </r>
       <r>    14.8123     0.0041     8.7781 </r>
       <r>    14.8896     0.6084     8.8252 </r>
       <r>    14.9670     2.0253     8.9818 </r>
       <r>    15.0443     0.2350     9.0000 </r>
       <r>    15.1216     0.0005     9.0000 </r>
       <r>    15.1990     0.0000     9.0000 </r>
       <r>    15.2763     0.0000     9.0000 </r>
       <r>    15.3537     0.0000     9.0000 </r>
       <r>    15.4310     0.0000     9.0000 </r>
       <r>    15.5083     0.0000     9.0000 </r>
       <r>    15.5857     0.0000     9.0000 </r>
       <r>    15.6630     0.0000     9.0000 </r>
       <r>    15.7403     0.0000     9.0000 </r>
       <r>    15.8177     0.0000     9.0000 </r>
       <r>    15.8950     0.0000     9.0000 </r>
       <r>    15.9724     0.0000     9.0000 </r>
      </set>
      <set comment="spin 2">
       <r>    -7.2291     0.0000     0.0000 </r>
       <r>    -7.1517     0.0000     0.0000 </r>
       <r>    -7.0744     0.0000     0.0000 </r>
       <r>    -6.9971     0.0000     0.0000 </r>
       <r>    -6.9197     0.0000     0.0000 </r>
       <r>    -6.8424     0.0000     0.0000 </r>
       <r>    -6.7651     0.0000     0.0000 </r>
       <r>    -6.6877     0.0000     0.0000 </r>
       <r>    -6.6104     0.0000     0.0000 </r>
       <r>    -6.5330     0.0000     0.0000 </r>
       <r>    -6.4557     0.0000     0.0000 </r>
       <r>    -6.3784     0.0000     0.0000 </r>
       <r>    -6.3010     0.0001     0.0000 </r>
       <r>    -6.2237     0.0392     0.0030 </r>
       <r>    -6.1463     0.3376     0.0291 </r>
       <r>    -6.0690     0.1014     0.0370 </r>
       <r>    -5.9917     0.0007     0.0370 </r>
       <r>    -5.9143     0.0000     0.0370 </r>
       <r>    -5.8370     0.0000     0.0370 </r>
       <r>    -5.7597     0.0000     0.0370 </r>
       <r>    -5.6823     0.0000     0.0370 </r>
       <r>    -5.6050     0.0000     0.0370 </r>
       <r>    -5.5276     0.0000     0.0370 </r>
       <r>    -5.4503     0.0000     0.0370 </r>
       <r>    -5.3730     0.0000     0.0370 </r>
       <r>    -5.2956     0.0000     0.0370 </r>
       <r>    -5.2183     0.0000     0.0370 </r>
       <r>    -5.1410     0.0000     0.0370 </r>
       <r>    -5.0636     0.0000     0.0370 </r>
       <r>    -4.9863     0.0002     0.0370 </r>
       <r>    -4.9089     0.1535     0.0489 </r>
       <r>    -4.8316     2.4106     0.2354 </r>
       <r>    -4.7543     1.2504     0.3321 </r>
       <r>    -4.6769     0.0166     0.3333 </r>
       <r>    -4.5996     0.0000     0.3333 </r>
       <r>    -4.5222     0.0000     0.3333 </r>
       <r>    -4.4449     0.0025     0.3335 </r>
       <r>    -4.3676     0.4951     0.3718 </r>
       <r>    -4.2902     2.0700     0.5319 </r>
       <r>    -4.2129     0.3049     0.5555 </r>
       <r>    -4.1356     0.0009     0.5556 </r>
       <r>    -4.0582     0.0000     0.5556 </r>
       <r>    -3.9809     0.0000     0.5556 </r>
       <r>    -3.9035     0.0000     0.5556 </r>
       <r>    -3.8262     0.0000     0.5556 </r>
       <r>    -3.7489     0.0000     0.5556 </r>
       <r>    -3.6715     0.0000     0.5556 </r>
       <r>    -3.5942     0.0000     0.5556 </r>
       <r>    -3.5168     0.0000     0.5556 </r>
       <r>    -3.4395     0.0000     0.5556 </r>
       <r>    -3.3622     0.0000     0.5556 </r>
       <r>    -3.2848     0.0000     0.5556 </r>
       <r>    -3.2075     0.0000     0.5556 </r>
       <r>    -3.1302     0.0184     0.5570 </r>
       <r>    -3.0528     1.6766     0.6866 </r>
       <r>    -2.9755     3.7666     0.9779 </r>
       <r>    -2.8981     0.2848     1.0000 </r>
       <r>    -2.8208     0.0004     1.0000 </r>
       <r>    -2.7435     0.0000     1.0000 </r>
       <r>    -2.6661     0.0000     1.0000 </r>
       <r>    -2.5888     0.0000     1.0000 </r>
       <r>    -2.5115     0.0000     1.0000 </r>
       <r>    -2.4341     0.0000     1.0000 </r>
       <r>    -2.3568     0.0000     1.0000 </r>
       <r>    -2.2794     0.0000     1.0000 </r>
       <r>    -2.2021     0.0000     1.0000 </r>
       <r>    -2.1248     0.0000     1.0000 </r>
       <r>    -2.0474     0.0000     1.0000 </r>
       <r>    -1.9701     0.0000     1.0000 </r>
       <r>    -1.8927     0.0000     1.0000 </r>
       <r>    -1.8154     0.0000     1.0000 </r>
       <r>    -1.7381     0.0000     1.0000 </r>
       <r>    -1.6607     0.0000     1.0000 </r>
       <r>    -1.5834     0.0000     1.0000 </r>
       <r>    -1.5061     0.0000     1.0000 </r>
       <r>    -1.4287     0.0000     1.0000 </r>
       <r>    -1.3514     0.0000     1.0000 </r>
       <r>    -1.2740     0.0013     1.0001 </r>
       <r>    -1.1967     0.5329     1.0413 </r>
       <r>    -1.1194     4.1000     1.3584 </r>
       <r>    -1.0420     1.1060     1.4439 </r>
       <r>    -0.9647     0.0065     1.4444 </r>
       <r>    -0.8874     0.0000     1.4444 </r>
       <r>    -0.8100     0.0000     1.4444 </r>
       <r>    -0.7327     0.0000     1.4444 </r>
       <r>    -0.6553     0.0000     1.4444 </r>
       <r>    -0.5780     0.0000     1.4444 </r>
       <r>    -0.5007     0.0000     1.4444 </r>
       <r>    -0.4233     0.0000     1.4444 </r>
       <r>    -0.3460     0.0000     1.4444 </r>
       <r>    -0.2686     0.0000     1.4444 </r>
       <r>    -0.1913     0.0000     1.4444 </r>
       <r>    -0.1140     0.0000     1.4444 </r>
       <r>    -0.0366     0.0000     1.4444 </r>
       <r>     0.0407     0.0000     1.4444 </r>
       <r>     0.1180     0.0000     1.4444 </r>
       <r>     0.1954     0.0098     1.4452 </r>
       <r>     0.2727     1.0264     1.5246 </r>
       <r>     0.3501     2.5746     1.7237 </r>
       <r>     0.4274     0.2213     1.7408 </r>
       <r>     0.5047     0.3712     1.7695 </r>
       <r>     0.5821     2.0850     1.9308 </r>
       <r>     0.6594     0.4145     1.9628 </r>
       <r>     0.7367     0.0017     1.9630 </r>
       <r>     0.8141     0.0000     1.9630 </r>
       <r>     0.8914     0.0000     1.9630 </r>
       <r>     0.9688     0.0000     1.9630 </r>
       <r>     1.0461     0.0000     1.9630 </r>
       <r>     1.1234     0.0001     1.9630 </r>
       <r>     1.2008     0.1019     1.9708 </r>
       <r>     1.2781     2.9653     2.2002 </r>
       <r>     1.3555     2.6132     2.4023 </r>
       <r>     1.4328     0.0663     2.4074 </r>
       <r>     1.5101     0.0000     2.4074 </r>
       <r>     1.5875     0.0000     2.4074 </r>
       <r>     1.6648     0.0000     2.4074 </r>
       <r>     1.7421     0.0000     2.4074 </r>
       <r>     1.8195     0.0000     2.4074 </r>
       <r>     1.8968     0.0000     2.4074 </r>
       <r>     1.9742     0.0000     2.4074 </r>
       <r>     2.0515     0.0000     2.4074 </r>
       <r>     2.1288     0.0000     2.4074 </r>
       <r>     2.2062     0.0000     2.4074 </r>
       <r>     2.2835     0.0000     2.4074 </r>
       <r>     2.3608     0.0000     2.4074 </r>
       <r>     2.4382     0.0000     2.4074 </r>
       <r>     2.5155     0.0000     2.4074 </r>
       <r>     2.5929     0.0000     2.4074 </r>
       <r>     2.6702     0.0000     2.4074 </r>
       <r>     2.7475     0.0000     2.4074 </r>
       <r>     2.8249     0.0000     2.4074 </r>
       <r>     2.9022     0.0000     2.4074 </r>
       <r>     2.9796     0.0000     2.4074 </r>
       <r>     3.0569     0.0012     2.4075 </r>
       <r>     3.1342     0.5195     2.4477 </r>
       <r>     3.2116     4.0909     2.7641 </r>
       <r>     3.2889     1.1283     2.8513 </r>
       <r>     3.3662     0.0129     2.8523 </r>
       <r>     3.4436     1.0688     2.9350 </r>
       <r>     3.5209     4.1143     3.2532 </r>
       <r>     3.5983     0.5563     3.2962 </r>
       <r>     3.6756     0.0014     3.2963 </r>
       <r>     3.7529     0.0000     3.2963 </r>
       <r>     3.8303     0.0000     3.2963 </r>
       <r>     3.9076     0.0000     3.2963 </r>
       <r>     3.9849     0.0000     3.2963 </r>
       <r>     4.0623     0.0000     3.2963 </r>
       <r>     4.1396     0.0000     3.2963 </r>
       <r>     4.2170     0.0000     3.2963 </r>
       <r>     4.2943     0.0000     3.2963 </r>
       <r>     4.3716     0.0000     3.2963 </r>
       <r>     4.4490     0.0201     3.2978 </r>
       <r>     4.5263     2.0695     3.4579 </r>
       <r>     4.6037     5.1381     3.8553 </r>
       <r>     4.6810     0.4341     3.8888 </r>
       <r>     4.7583     0.0006     3.8889 </r>
       <r>     4.8357     0.0000     3.8889 </r>
       <r>     4.9130     0.0000     3.8889 </r>
       <r>     4.9903     0.0000     3.8889 </r>
       <r>     5.0677     0.0000     3.8889 </r>
       <r>     5.1450     0.0000     3.8889 </r>
       <r>     5.2224     0.0000     3.8889 </r>
       <r>     5.2997     0.0000     3.8889 </r>
       <r>     5.3770     0.0000     3.8889 </r>
       <r>     5.4544     0.0346     3.8916 </r>
       <r>     5.5317     0.8040     3.9537 </r>
       <r>     5.6090     0.5863     3.9991 </r>
       <r>     5.6864     0.0118     4.0000 </r>
       <r>     5.7637     0.0000     4.0000 </r>
       <r>     5.8411     0.0000     4.0000 </r>
       <r>     5.9184     0.0000     4.0000 </r>
       <r>     5.9957     0.0000     4.0000 </r>
       <r>     6.0731     0.0000     4.0000 </r>
       <r>     6.1504     0.0006     4.0000 </r>
       <r>     6.2278     0.2644     4.0205 </r>
       <r>     6.3051     2.0486     4.1789 </r>
       <r>     6.3824     0.5565     4.2220 </r>
       <r>     6.4598     0.0033     4.2222 </r>
       <r>     6.5371     0.0000     4.2222 </r>
       <r>     6.6144     0.0000     4.2222 </r>
       <r>     6.6918     0.0000     4.2222 </r>
       <r>     6.7691     0.0000     4.2222 </r>
       <r>     6.8465     0.0000     4.2222 </r>
       <r>     6.9238     0.0000     4.2222 </r>
       <r>     7.0011     0.0312     4.2246 </r>
       <r>     7.0785     2.2972     4.4023 </r>
       <r>     7.1558     6.1562     4.8784 </r>
       <r>     7.2331     1.0864     4.9624 </r>
       <r>     7.3105     0.0070     4.9630 </r>
       <r>     7.3878     0.0001     4.9630 </r>
       <r>     7.4652     0.0955     4.9704 </r>
       <r>     7.5425     1.7370     5.1047 </r>
       <r>     7.6198     1.0249     5.1840 </r>
       <r>     7.6972     0.0159     5.1852 </r>
       <r>     7.7745     0.0000     5.1852 </r>
       <r>     7.8519     0.0000     5.1852 </r>
       <r>     7.9292     0.0034     5.1854 </r>
       <r>     8.0065     0.3736     5.2143 </r>
       <r>     8.0839     0.9729     5.2896 </r>
       <r>     8.1612     0.0866     5.2963 </r>
       <r>     8.2385     0.0001     5.2963 </r>
       <r>     8.3159     0.0001     5.2963 </r>
       <r>     8.3932     0.0444     5.2997 </r>
       <r>     8.4706     0.3417     5.3262 </r>
       <r>     8.5479     0.0922     5.3333 </r>
       <r>     8.6252     0.0005     5.3333 </r>
       <r>     8.7026     0.0000     5.3333 </r>
       <r>     8.7799     0.0000     5.3333 </r>
       <r>     8.8572     0.0025     5.3335 </r>
       <r>     8.9346     0.8511     5.3994 </r>
       <r>     9.0119     5.5335     5.8273 </r>
       <r>     9.0893     1.2691     5.9255 </r>
       <r>     9.1666     0.0061     5.9259 </r>
       <r>     9.2439     0.0000     5.9259 </r>
       <r>     9.3213     0.0000     5.9259 </r>
       <r>     9.3986     0.0000     5.9259 </r>
       <r>     9.4760     0.0000     5.9259 </r>
       <r>     9.5533     0.0000     5.9259 </r>
       <r>     9.6306     0.0000     5.9259 </r>
       <r>     9.7080     0.0000     5.9259 </r>
       <r>     9.7853     0.0000     5.9259 </r>
       <r>     9.8626     0.0000     5.9259 </r>
       <r>     9.9400     0.0000     5.9259 </r>
       <r>    10.0173     0.0000     5.9259 </r>
       <r>    10.0947     0.0000     5.9259 </r>
       <r>    10.1720     0.0000     5.9259 </r>
       <r>    10.2493     0.0000     5.9259 </r>
       <r>    10.3267     0.0000     5.9259 </r>
       <r>    10.4040     0.0000     5.9259 </r>
       <r>    10.4814     0.0000     5.9259 </r>
       <r>    10.5587     0.0000     5.9259 </r>
       <r>    10.6360     0.0000     5.9259 </r>
       <r>    10.7134     0.0000     5.9259 </r>
       <r>    10.7907     0.0000     5.9259 </r>
       <r>    10.8680     0.0000     5.9259 </r>
       <r>    10.9454     0.0000     5.9259 </r>
       <r>    11.0227     0.0000     5.9259 </r>
       <r>    11.1001     0.0000     5.9259 </r>
       <r>    11.1774     0.0628     5.9308 </r>
       <r>    11.2547     2.5694     6.1295 </r>
       <r>    11.3321     3.0073     6.3621 </r>
       <r>    11.4094     0.1072     6.3704 </r>
       <r>    11.4867     0.0001     6.3704 </r>
       <r>    11.5641     0.0000     6.3704 </r>
       <r>    11.6414     0.0000     6.3704 </r>
       <r>    11.7188     0.0072     6.3709 </r>
       <r>    11.7961     1.1544     6.4602 </r>
       <r>    11.8734     4.0796     6.7757 </r>
       <r>    11.9508     0.5043     6.8147 </r>
       <r>    12.0281     0.0011     6.8148 </r>
       <r>    12.1055     0.0000     6.8148 </r>
       <r>    12.1828     0.0000     6.8148 </r>
       <r>    12.2601     0.0017     6.8149 </r>
       <r>    12.3375     0.6136     6.8624 </r>
       <r>    12.4148     4.1414     7.1827 </r>
       <r>    12.4921     1.0013     7.2601 </r>
       <r>    12.5695     1.6254     7.3858 </r>
       <r>    12.6468     5.4630     7.8083 </r>
       <r>    12.7242     4.0981     8.1253 </r>
       <r>    12.8015     0.2953     8.1481 </r>
       <r>    12.8788     0.0004     8.1481 </r>
       <r>    12.9562     0.0000     8.1481 </r>
       <r>    13.0335     0.0000     8.1482 </r>
       <r>    13.1108     0.0396     8.1512 </r>
       <r>    13.1882     1.5368     8.2701 </r>
       <r>    13.2655     2.5715     8.4689 </r>
       <r>    13.3429     0.3144     8.4933 </r>
       <r>    13.4202     2.4069     8.6794 </r>
       <r>    13.4975     1.2552     8.7765 </r>
       <r>    13.5749     0.0168     8.7778 </r>
       <r>    13.6522     0.0000     8.7778 </r>
       <r>    13.7296     0.0000     8.7778 </r>
       <r>    13.8069     0.0000     8.7778 </r>
       <r>    13.8842     0.0000     8.7778 </r>
       <r>    13.9616     0.0000     8.7778 </r>
       <r>    14.0389     0.0000     8.7778 </r>
       <r>    14.1162     0.0000     8.7778 </r>
       <r>    14.1936     0.0000     8.7778 </r>
       <r>    14.2709     0.0000     8.7778 </r>
       <r>    14.3483     0.0000     8.7778 </r>
       <r>    14.4256     0.0000     8.7778 </r>
       <r>    14.5029     0.0000     8.7778 </r>
       <r>    14.5803     0.0000     8.7778 </r>
       <r>    14.6576     0.0000     8.7778 </r>
       <r>    14.7349     0.0000     8.7778 </r>
       <r>    14.8123     0.0041     8.7781 </r>
       <r>    14.8896     0.6084     8.8252 </r>
       <r>    14.9670     2.0253     8.9818 </r>
       <r>    15.0443     0.2350     9.0000 </r>
       <r>    15.1216     0.0005     9.0000 </r>
       <r>    15.1990     0.0000     9.0000 </r>
       <r>    15.2763     0.0000     9.0000 </r>
       <r>    15.3537     0.0000     9.0000 </r>
       <r>    15.4310     0.0000     9.0000 </r>
       <r>    15.5083     0.0000     9.0000 </r>
       <r>    15.5857     0.0000     9.0000 </r>
       <r>    15.6630     0.0000     9.0000 </r>
       <r>    15.7403     0.0000     9.0000 </r>
       <r>    15.8177     0.0000     9.0000 </r>
       <r>    15.8950     0.0000     9.0000 </r>
       <r>    15.9724     0.0000     9.0000 </r>
      </set>
     </set>
    </array>
   </total>
   <partial>
    <array>
     <dimension dim="1">gridpoints</dimension>
     <dimension dim="2">spin</dimension>
     <dimension dim="3">ion</dimension>
     <field>energy</field>
     <field>    s</field>
     <field>   py</field>
     <field>   pz</field>
     <field>   px</field>
     <field>  dxy</field>
     <field>  dyz</field>
     <field>  dz2</field>
     <field>  dxz</field>
     <field>x2-y2</field>
     <set>
      <set comment="ion 1">
       <set comment="spin 1">
        <r>    -7.2291     0.0000     0.0000     0.0000     0.0000     0.0000     0.0000     0.0000     0.0000     0.0000 </r>
        <r>    -7.1517     0.0000     0.0000     0.0000     0.0000     0.0000     0.0000     0.0000     0.0000     0.0000 </r>
        <r>    -7.0744     0.0000     0.0000     0.0000     0.0000     0.0000     0.0000     0.0000     0.0000     0.0000 </r>
        <r>    -6.9971     0.0000     0.0000     0.0000     0.0000     0.0000     0.0000     0.0000     0.0000     0.0000 </r>
        <r>    -6.9197     0.0000     0.0000     0.0000     0.0000     0.0000     0.0000     0.0000     0.0000     0.0000 </r>
        <r>    -6.8424     0.0000     0.0000     0.0000     0.0000     0.0000     0.0000     0.0000     0.0000     0.0000 </r>
        <r>    -6.7651     0.0000     0.0000     0.0000     0.0000     0.0000     0.0000     0.0000     0.0000     0.0000 </r>
        <r>    -6.6877     0.0000     0.0000     0.0000     0.0000     0.0000     0.0000     0.0000     0.0000     0.0000 </r>
        <r>    -6.6104     0.0000     0.0000     0.0000     0.0000     0.0000     0.0000     0.0000     0.0000     0.0000 </r>
        <r>    -6.5330     0.0000     0.0000     0.0000     0.0000     0.0000     0.0000     0.0000     0.0000     0.0000 </r>
        <r>    -6.4557     0.0000     0.0000     0.0000     0.0000     0.0000     0.0000     0.0000     0.0000     0.0000 </r>
        <r>    -6.3784     0.0000     0.0000     0.0000     0.0000     0.0000     0.0000     0.0000     0.0000     0.0000 </r>
        <r>    -6.3010     0.0000     0.0000     0.0000     0.0000     0.0000     0.0000     0.0000     0.0000     0.0000 </r>
        <r>    -6.2237     0.0082     0.0000     0.0000     0.0000     0.0000     0.0000     0.0000     0.0000     0.0000 </r>
        <r>    -6.1463     0.0708     0.0000     0.0000     0.0000     0.0000     0.0000     0.0000     0.0000     0.0000 </r>
        <r>    -6.0690     0.0213     0.0000     0.0000     0.0000     0.0000     0.0000     0.0000     0.0000     0.0000 </r>
        <r>    -5.9917     0.0001     0.0000     0.0000     0.0000     0.0000     0.0000     0.0000     0.0000     0.0000 </r>
        <r>    -5.9143     0.0000     0.0000     0.0000     0.0000     0.0000     0.0000     0.0000     0.0000     0.0000 </r>
        <r>    -5.8370     0.0000     0.0000     0.0000     0.0000     0.0000     0.0000     0.0000     0.0000     0.0000 </r>
        <r>    -5.7597     0.0000     0.0000     0.0000     0.0000     0.0000     0.0000     0.0000     0.0000     0.0000 </r>
        <r>    -5.6823     0.0000     0.0000     0.0000     0.0000     0.0000     0.0000     0.0000     0.0000     0.0000 </r>
        <r>    -5.6050     0.0000     0.0000     0.0000     0.0000     0.0000     0.0000     0.0000     0.0000     0.0000 </r>
        <r>    -5.5276     0.0000     0.0000     0.0000     0.0000     0.0000     0.0000     0.0000     0.0000     0.0000 </r>
        <r>    -5.4503     0.0000     0.0000     0.0000     0.0000     0.0000     0.0000     0.0000     0.0000     0.0000 </r>
        <r>    -5.3730     0.0000     0.0000     0.0000     0.0000     0.0000     0.0000     0.0000     0.0000     0.0000 </r>
        <r>    -5.2956     0.0000     0.0000     0.0000     0.0000     0.0000     0.0000     0.0000     0.0000     0.0000 </r>
        <r>    -5.2183     0.0000     0.0000     0.0000     0.0000     0.0000     0.0000     0.0000     0.0000     0.0000 </r>
        <r>    -5.1410     0.0000     0.0000     0.0000     0.0000     0.0000     0.0000     0.0000     0.0000     0.0000 </r>
        <r>    -5.0636     0.0000     0.0000     0.0000     0.0000     0.0000     0.0000     0.0000     0.0000     0.0000 </r>
        <r>    -4.9863     0.0000     0.0000     0.0000     0.0000     0.0000     0.0000     0.0000     0.0000     0.0000 </r>
        <r>    -4.9089     0.0319     0.0006     0.0006     0.0006     0.0000     0.0000     0.0000     0.0000     0.0000 </r>
        <r>    -4.8316     0.5016     0.0095     0.0095     0.0095     0.0000     0.0000     0.0000     0.0000     0.0000 </r>
        <r>    -4.7543     0.2602     0.0049     0.0049     0.0049     0.0000     0.0000     0.0000     0.0000     0.0000 </r>
        <r>    -4.6769     0.0034     0.0001     0.0001     0.0001     0.0000     0.0000     0.0000     0.0000     0.0000 </r>
        <r>    -4.5996     0.0000     0.0000     0.0000     0.0000     0.0000     0.0000     0.0000     0.0000     0.0000 </r>
        <r>    -4.5222     0.0000     0.0000     0.0000     0.0000     0.0000     0.0000     0.0000     0.0000     0.0000 </r>
        <r>    -4.4449     0.0005     0.0000     0.0000     0.0000     0.0000     0.0000     0.0000     0.0000     0.0000 </r>
        <r>    -4.3676     0.0998     0.0032     0.0032     0.0032     0.0000     0.0000     0.0000     0.0000     0.0000 </r>
        <r>    -4.2902     0.4174     0.0134     0.0134     0.0134     0.0000     0.0000     0.0000     0.0000     0.0000 </r>
        <r>    -4.2129     0.0615     0.0020     0.0020     0.0020     0.0000     0.0000     0.0000     0.0000     0.0000 </r>
        <r>    -4.1356     0.0002     0.0000     0.0000     0.0000     0.0000     0.0000     0.0000     0.0000     0.0000 </r>
        <r>    -4.0582     0.0000     0.0000     0.0000     0.0000     0.0000     0.0000     0.0000     0.0000     0.0000 </r>
        <r>    -3.9809     0.0000     0.0000     0.0000     0.0000     0.0000     0.0000     0.0000     0.0000     0.0000 </r>
        <r>    -3.9035     0.0000     0.0000     0.0000     0.0000     0.0000     0.0000     0.0000     0.0000     0.0000 </r>
        <r>    -3.8262     0.0000     0.0000     0.0000     0.0000     0.0000     0.0000     0.0000     0.0000     0.0000 </r>
        <r>    -3.7489     0.0000     0.0000     0.0000     0.0000     0.0000     0.0000     0.0000     0.0000     0.0000 </r>
        <r>    -3.6715     0.0000     0.0000     0.0000     0.0000     0.0000     0.0000     0.0000     0.0000     0.0000 </r>
        <r>    -3.5942     0.0000     0.0000     0.0000     0.0000     0.0000     0.0000     0.0000     0.0000     0.0000 </r>
        <r>    -3.5168     0.0000     0.0000     0.0000     0.0000     0.0000     0.0000     0.0000     0.0000     0.0000 </r>
        <r>    -3.4395     0.0000     0.0000     0.0000     0.0000     0.0000     0.0000     0.0000     0.0000     0.0000 </r>
        <r>    -3.3622     0.0000     0.0000     0.0000     0.0000     0.0000     0.0000     0.0000     0.0000     0.0000 </r>
        <r>    -3.2848     0.0000     0.0000     0.0000     0.0000     0.0000     0.0000     0.0000     0.0000     0.0000 </r>
        <r>    -3.2075     0.0000     0.0000     0.0000     0.0000     0.0000     0.0000     0.0000     0.0000     0.0000 </r>
        <r>    -3.1302     0.0039     0.0002     0.0002     0.0002     0.0000     0.0000     0.0000     0.0000     0.0000 </r>
        <r>    -3.0528     0.3551     0.0146     0.0146     0.0146     0.0000     0.0000     0.0000     0.0000     0.0000 </r>
        <r>    -2.9755     0.7978     0.0328     0.0328     0.0328     0.0000     0.0000     0.0000     0.0000     0.0000 </r>
        <r>    -2.8981     0.0603     0.0025     0.0025     0.0025     0.0000     0.0000     0.0000     0.0000     0.0000 </r>
        <r>    -2.8208     0.0001     0.0000     0.0000     0.0000     0.0000     0.0000     0.0000     0.0000     0.0000 </r>
        <r>    -2.7435     0.0000     0.0000     0.0000     0.0000     0.0000     0.0000     0.0000     0.0000     0.0000 </r>
        <r>    -2.6661     0.0000     0.0000     0.0000     0.0000     0.0000     0.0000     0.0000     0.0000     0.0000 </r>
        <r>    -2.5888     0.0000     0.0000     0.0000     0.0000     0.0000     0.0000     0.0000     0.0000     0.0000 </r>
        <r>    -2.5115     0.0000     0.0000     0.0000     0.0000     0.0000     0.0000     0.0000     0.0000     0.0000 </r>
        <r>    -2.4341     0.0000     0.0000     0.0000     0.0000     0.0000     0.0000     0.0000     0.0000     0.0000 </r>
        <r>    -2.3568     0.0000     0.0000     0.0000     0.0000     0.0000     0.0000     0.0000     0.0000     0.0000 </r>
        <r>    -2.2794     0.0000     0.0000     0.0000     0.0000     0.0000     0.0000     0.0000     0.0000     0.0000 </r>
        <r>    -2.2021     0.0000     0.0000     0.0000     0.0000     0.0000     0.0000     0.0000     0.0000     0.0000 </r>
        <r>    -2.1248     0.0000     0.0000     0.0000     0.0000     0.0000     0.0000     0.0000     0.0000     0.0000 </r>
        <r>    -2.0474     0.0000     0.0000     0.0000     0.0000     0.0000     0.0000     0.0000     0.0000     0.0000 </r>
        <r>    -1.9701     0.0000     0.0000     0.0000     0.0000     0.0000     0.0000     0.0000     0.0000     0.0000 </r>
        <r>    -1.8927     0.0000     0.0000     0.0000     0.0000     0.0000     0.0000     0.0000     0.0000     0.0000 </r>
        <r>    -1.8154     0.0000     0.0000     0.0000     0.0000     0.0000     0.0000     0.0000     0.0000     0.0000 </r>
        <r>    -1.7381     0.0000     0.0000     0.0000     0.0000     0.0000     0.0000     0.0000     0.0000     0.0000 </r>
        <r>    -1.6607     0.0000     0.0000     0.0000     0.0000     0.0000     0.0000     0.0000     0.0000     0.0000 </r>
        <r>    -1.5834     0.0000     0.0000     0.0000     0.0000     0.0000     0.0000     0.0000     0.0000     0.0000 </r>
        <r>    -1.5061     0.0000     0.0000     0.0000     0.0000     0.0000     0.0000     0.0000     0.0000     0.0000 </r>
        <r>    -1.4287     0.0000     0.0000     0.0000     0.0000     0.0000     0.0000     0.0000     0.0000     0.0000 </r>
        <r>    -1.3514     0.0000     0.0000     0.0000     0.0000     0.0000     0.0000     0.0000     0.0000     0.0000 </r>
        <r>    -1.2740     0.0002     0.0000     0.0000     0.0000     0.0000     0.0000     0.0000     0.0000     0.0000 </r>
        <r>    -1.1967     0.0939     0.0105     0.0105     0.0105     0.0000     0.0000     0.0000     0.0000     0.0000 </r>
        <r>    -1.1194     0.7224     0.0806     0.0806     0.0806     0.0000     0.0000     0.0000     0.0000     0.0000 </r>
        <r>    -1.0420     0.1949     0.0217     0.0217     0.0217     0.0000     0.0000     0.0000     0.0000     0.0000 </r>
        <r>    -0.9647     0.0012     0.0001     0.0001     0.0001     0.0000     0.0000     0.0000     0.0000     0.0000 </r>
        <r>    -0.8874     0.0000     0.0000     0.0000     0.0000     0.0000     0.0000     0.0000     0.0000     0.0000 </r>
        <r>    -0.8100     0.0000     0.0000     0.0000     0.0000     0.0000     0.0000     0.0000     0.0000     0.0000 </r>
        <r>    -0.7327     0.0000     0.0000     0.0000     0.0000     0.0000     0.0000     0.0000     0.0000     0.0000 </r>
        <r>    -0.6553     0.0000     0.0000     0.0000     0.0000     0.0000     0.0000     0.0000     0.0000     0.0000 </r>
        <r>    -0.5780     0.0000     0.0000     0.0000     0.0000     0.0000     0.0000     0.0000     0.0000     0.0000 </r>
        <r>    -0.5007     0.0000     0.0000     0.0000     0.0000     0.0000     0.0000     0.0000     0.0000     0.0000 </r>
        <r>    -0.4233     0.0000     0.0000     0.0000     0.0000     0.0000     0.0000     0.0000     0.0000     0.0000 </r>
        <r>    -0.3460     0.0000     0.0000     0.0000     0.0000     0.0000     0.0000     0.0000     0.0000     0.0000 </r>
        <r>    -0.2686     0.0000     0.0000     0.0000     0.0000     0.0000     0.0000     0.0000     0.0000     0.0000 </r>
        <r>    -0.1913     0.0000     0.0000     0.0000     0.0000     0.0000     0.0000     0.0000     0.0000     0.0000 </r>
        <r>    -0.1140     0.0000     0.0000     0.0000     0.0000     0.0000     0.0000     0.0000     0.0000     0.0000 </r>
        <r>    -0.0366     0.0000     0.0000     0.0000     0.0000     0.0000     0.0000     0.0000     0.0000     0.0000 </r>
        <r>     0.0407     0.0000     0.0000     0.0000     0.0000     0.0000     0.0000     0.0000     0.0000     0.0000 </r>
        <r>     0.1180     0.0000     0.0000     0.0000     0.0000     0.0000     0.0000     0.0000     0.0000     0.0000 </r>
        <r>     0.1954     0.0011     0.0003     0.0003     0.0003     0.0000     0.0000     0.0000     0.0000     0.0000 </r>
        <r>     0.2727     0.1102     0.0338     0.0338     0.0338     0.0000     0.0000     0.0000     0.0000     0.0000 </r>
        <r>     0.3501     0.2763     0.0849     0.0849     0.0849     0.0000     0.0000     0.0000     0.0000     0.0000 </r>
        <r>     0.4274     0.0238     0.0073     0.0073     0.0073     0.0000     0.0000     0.0000     0.0000     0.0000 </r>
        <r>     0.5047     0.0651     0.0091     0.0091     0.0091     0.0000     0.0000     0.0000     0.0000     0.0000 </r>
        <r>     0.5821     0.3659     0.0513     0.0513     0.0513     0.0000     0.0000     0.0000     0.0000     0.0000 </r>
        <r>     0.6594     0.0727     0.0102     0.0102     0.0102     0.0000     0.0000     0.0000     0.0000     0.0000 </r>
        <r>     0.7367     0.0003     0.0000     0.0000     0.0000     0.0000     0.0000     0.0000     0.0000     0.0000 </r>
        <r>     0.8141     0.0000     0.0000     0.0000     0.0000     0.0000     0.0000     0.0000     0.0000     0.0000 </r>
        <r>     0.8914     0.0000     0.0000     0.0000     0.0000     0.0000     0.0000     0.0000     0.0000     0.0000 </r>
        <r>     0.9688     0.0000     0.0000     0.0000     0.0000     0.0000     0.0000     0.0000     0.0000     0.0000 </r>
        <r>     1.0461     0.0000     0.0000     0.0000     0.0000     0.0000     0.0000     0.0000     0.0000     0.0000 </r>
[...]
        <r>   -4.3343    1.0000 </r>
        <r>    0.5446    1.0000 </r>
        <r>    3.1815    1.0000 </r>
        <r>    3.1815    1.0000 </r>
        <r>    6.2747    0.0000 </r>
        <r>    7.5300    0.0000 </r>
        <r>   12.5899    0.0000 </r>
        <r>   12.5899    0.0000 </r>
        <r>   14.9177    0.0000 </r>
       </set>
       <set comment="kpoint 4">
        <r>   -3.0338    1.0000 </r>
        <r>   -1.1499    1.0000 </r>
        <r>    1.2751    1.0000 </r>
        <r>    3.4750    1.0000 </r>
        <r>    7.0914    0.0000 </r>
        <r>   11.2585    0.0000 </r>
        <r>   11.8256    0.0000 </r>
        <r>   12.3814    0.0000 </r>
        <r>   12.6665    0.0000 </r>
       </set>
      </set>
      <set comment="spin 2">
       <set comment="kpoint 1">
        <r>   -6.1745    1.0000 </r>
        <r>    5.5242    1.0000 </r>
        <r>    5.5242    1.0000 </r>
        <r>    5.5242    1.0000 </r>
        <r>    8.0290    0.0000 </r>
        <r>    8.0290    0.0000 </r>
        <r>    8.0290    0.0000 </r>
        <r>    8.4400    0.0000 </r>
        <r>   13.1689    0.0000 </r>
       </set>
       <set comment="kpoint 2">
        <r>   -4.8471    1.0000 </r>
        <r>    0.2943    1.0000 </r>
        <r>    4.5477    1.0000 </r>
        <r>    4.5477    1.0000 </r>
        <r>    7.1302    0.0000 </r>
        <r>    8.9777    0.0000 </r>
        <r>    8.9777    0.0000 </r>
        <r>   13.2044    0.0000 </r>
        <r>   13.4048    0.0000 </r>
       </set>
       <set comment="kpoint 3">
        <r>   -4.3343    1.0000 </r>
        <r>    0.5446    1.0000 </r>
        <r>    3.1815    1.0000 </r>
        <r>    3.1815    1.0000 </r>
        <r>    6.2747    0.0000 </r>
        <r>    7.5300    0.0000 </r>
        <r>   12.5899    0.0000 </r>
        <r>   12.5899    0.0000 </r>
        <r>   14.9177    0.0000 </r>
       </set>
       <set comment="kpoint 4">
        <r>   -3.0338    1.0000 </r>
        <r>   -1.1499    1.0000 </r>
        <r>    1.2751    1.0000 </r>
        <r>    3.4750    1.0000 </r>
        <r>    7.0914    0.0000 </r>
        <r>   11.2585    0.0000 </r>
        <r>   11.8256    0.0000 </r>
        <r>   12.3814    0.0000 </r>
        <r>   12.6665    0.0000 </r>
       </set>
      </set>
     </set>
    </array>
   </eigenvalues>
   <array>
    <dimension dim="1">ion</dimension>
    <dimension dim="2">band</dimension>
    <dimension dim="3">kpoint</dimension>
    <dimension dim="4">spin</dimension>
    <field>    s</field>
    <field>   py</field>
    <field>   pz</field>
    <field>   px</field>
    <field>  dxy</field>
    <field>  dyz</field>
    <field>  dz2</field>
    <field>  dxz</field>
    <field>x2-y2</field>
    <set>
     <set comment="spin1">
      <set comment="kpoint 1">
       <set comment="band 1">
        <r>  0.2098  0.0000  0.0000  0.0000  0.0000  0.0000  0.0000  0.0000  0.0000 </r>
        <r>  0.2098  0.0000  0.0000  0.0000  0.0000  0.0000  0.0000  0.0000  0.0000 </r>
       </set>
       <set comment="band 2">
        <r>  0.0000  0.0532  0.0501  0.1078  0.0000  0.0000  0.0000  0.0000  0.0000 </r>
        <r>  0.0000  0.0532  0.0501  0.1078  0.0000  0.0000  0.0000  0.0000  0.0000 </r>
       </set>
       <set comment="band 3">
        <r>  0.0000  0.0875  0.0907  0.0329  0.0000  0.0000  0.0000  0.0000  0.0000 </r>
        <r>  0.0000  0.0875  0.0907  0.0329  0.0000  0.0000  0.0000  0.0000  0.0000 </r>
       </set>
       <set comment="band 4">
        <r>  0.0000  0.0704  0.0704  0.0704  0.0000  0.0000  0.0000  0.0000  0.0000 </r>
        <r>  0.0000  0.0704  0.0704  0.0704  0.0000  0.0000  0.0000  0.0000  0.0000 </r>
       </set>
       <set comment="band 5">
        <r>  0.0000  0.0249  0.0251  0.0992  0.0000  0.0000  0.0000  0.0000  0.0000 </r>
        <r>  0.0000  0.0249  0.0251  0.0992  0.0000  0.0000  0.0000  0.0000  0.0000 </r>
       </set>
       <set comment="band 6">
        <r>  0.0000  0.0745  0.0744  0.0003  0.0000  0.0000  0.0000  0.0000  0.0000 </r>
        <r>  0.0000  0.0745  0.0744  0.0003  0.0000  0.0000  0.0000  0.0000  0.0000 </r>
       </set>
       <set comment="band 7">
        <r>  0.0000  0.0498  0.0497  0.0498  0.0000  0.0000  0.0000  0.0000  0.0000 </r>
        <r>  0.0000  0.0498  0.0497  0.0498  0.0000  0.0000  0.0000  0.0000  0.0000 </r>
       </set>
       <set comment="band 8">
        <r>  0.3577  0.0000  0.0000  0.0000  0.0000  0.0000  0.0000  0.0000  0.0000 </r>
        <r>  0.3577  0.0000  0.0000  0.0000  0.0000  0.0000  0.0000  0.0000  0.0000 </r>
       </set>
       <set comment="band 9">
        <r>  0.0000  0.0000  0.0000  0.0000  0.0000  0.0000  0.0000  0.0000  0.0000 </r>
        <r>  0.0000  0.0000  0.0000  0.0000  0.0000  0.0000  0.0000  0.0000  0.0000 </r>
       </set>
      </set>
      <set comment="kpoint 2">
       <set comment="band 1">
        <r>  0.2081  0.0039  0.0039  0.0039  0.0000  0.0000  0.0000  0.0000  0.0000 </r>
        <r>  0.2081  0.0039  0.0039  0.0039  0.0000  0.0000  0.0000  0.0000  0.0000 </r>
       </set>
       <set comment="band 2">
        <r>  0.1073  0.0330  0.0330  0.0330  0.0000  0.0000  0.0000  0.0000  0.0000 </r>
        <r>  0.1073  0.0330  0.0330  0.0330  0.0000  0.0000  0.0000  0.0000  0.0000 </r>
       </set>
       <set comment="band 3">
        <r>  0.0000  0.1050  0.1050  0.0000  0.0000  0.0000  0.0000  0.0000  0.0000 </r>
        <r>  0.0000  0.1050  0.1050  0.0000  0.0000  0.0000  0.0000  0.0000  0.0000 </r>
       </set>
       <set comment="band 4">
        <r>  0.0000  0.0350  0.0350  0.1399  0.0000  0.0000  0.0000  0.0000  0.0000 </r>
        <r>  0.0000  0.0350  0.0350  0.1399  0.0000  0.0000  0.0000  0.0000  0.0000 </r>
       </set>
       <set comment="band 5">
        <r>  0.1721  0.0112  0.0112  0.0112  0.0000  0.0000  0.0000  0.0000  0.0000 </r>
        <r>  0.1721  0.0112  0.0112  0.0112  0.0000  0.0000  0.0000  0.0000  0.0000 </r>
       </set>
       <set comment="band 6">
        <r>  0.0000  0.0574  0.0578  0.0000  0.0000  0.0000  0.0000  0.0000  0.0000 </r>
        <r>  0.0000  0.0574  0.0578  0.0000  0.0000  0.0000  0.0000  0.0000  0.0000 </r>
       </set>
       <set comment="band 7">
        <r>  0.0000  0.0194  0.0190  0.0768  0.0000  0.0000  0.0000  0.0000  0.0000 </r>
        <r>  0.0000  0.0194  0.0190  0.0768  0.0000  0.0000  0.0000  0.0000  0.0000 </r>
       </set>
       <set comment="band 8">
        <r>  0.0242  0.0466  0.0466  0.0466  0.0000  0.0000  0.0000  0.0000  0.0000 </r>
        <r>  0.0242  0.0466  0.0466  0.0466  0.0000  0.0000  0.0000  0.0000  0.0000 </r>
       </set>
       <set comment="band 9">
        <r>  0.0000  0.0100  0.0217  0.0024  0.0000  0.0000  0.0000  0.0000  0.0000 </r>
        <r>  0.0000  0.0100  0.0217  0.0024  0.0000  0.0000  0.0000  0.0000  0.0000 </r>
       </set>
      </set>
      <set comment="kpoint 3">
       <set comment="band 1">
        <r>  0.2016  0.0000  0.0194  0.0000  0.0000  0.0000  0.0000  0.0000  0.0000 </r>
        <r>  0.2016  0.0000  0.0194  0.0000  0.0000  0.0000  0.0000  0.0000  0.0000 </r>
       </set>
       <set comment="band 2">
        <r>  0.1755  0.0000  0.0738  0.0000  0.0000  0.0000  0.0000  0.0000  0.0000 </r>
        <r>  0.1755  0.0000  0.0738  0.0000  0.0000  0.0000  0.0000  0.0000  0.0000 </r>
       </set>
       <set comment="band 3">
        <r>  0.0000  0.0961  0.0000  0.0961  0.0000  0.0000  0.0000  0.0000  0.0000 </r>
        <r>  0.0000  0.0961  0.0000  0.0961  0.0000  0.0000  0.0000  0.0000  0.0000 </r>
       </set>
       <set comment="band 4">
        <r>  0.0000  0.0961  0.0000  0.0961  0.0000  0.0000  0.0000  0.0000  0.0000 </r>
        <r>  0.0000  0.0961  0.0000  0.0961  0.0000  0.0000  0.0000  0.0000  0.0000 </r>
       </set>
       <set comment="band 5">
        <r>  0.0490  0.0000  0.0588  0.0000  0.0000  0.0000  0.0000  0.0000  0.0000 </r>
        <r>  0.0490  0.0000  0.0588  0.0000  0.0000  0.0000  0.0000  0.0000  0.0000 </r>
       </set>
       <set comment="band 6">
        <r>  0.0450  0.0000  0.0340  0.0000  0.0000  0.0000  0.0000  0.0000  0.0000 </r>
        <r>  0.0450  0.0000  0.0340  0.0000  0.0000  0.0000  0.0000  0.0000  0.0000 </r>
       </set>
       <set comment="band 7">
        <r>  0.0000  0.0827  0.0000  0.0840  0.0000  0.0000  0.0000  0.0000  0.0000 </r>
        <r>  0.0000  0.0839  0.0000  0.0828  0.0000  0.0000  0.0000  0.0000  0.0000 </r>
       </set>
       <set comment="band 8">
        <r>  0.0000  0.0840  0.0000  0.0827  0.0000  0.0000  0.0000  0.0000  0.0000 </r>
        <r>  0.0000  0.0828  0.0000  0.0839  0.0000  0.0000  0.0000  0.0000  0.0000 </r>
       </set>
       <set comment="band 9">
        <r>  0.1277  0.0000  0.1346  0.0000  0.0000  0.0000  0.0000  0.0000  0.0000 </r>
        <r>  0.1277  0.0000  0.1346  0.0000  0.0000  0.0000  0.0000  0.0000  0.0000 </r>
       </set>
      </set>
      <set comment="kpoint 4">
       <set comment="band 1">
        <r>  0.2118  0.0073  0.0115  0.0073  0.0000  0.0000  0.0000  0.0000  0.0000 </r>
        <r>  0.2118  0.0073  0.0115  0.0073  0.0000  0.0000  0.0000  0.0000  0.0000 </r>
       </set>
       <set comment="band 2">
        <r>  0.1762  0.0095  0.0400  0.0095  0.0000  0.0000  0.0000  0.0000  0.0000 </r>
        <r>  0.1762  0.0095  0.0400  0.0095  0.0000  0.0000  0.0000  0.0000  0.0000 </r>
       </set>
       <set comment="band 3">
        <r>  0.0033  0.0455  0.0575  0.0455  0.0000  0.0000  0.0000  0.0000  0.0000 </r>
        <r>  0.0033  0.0455  0.0575  0.0455  0.0000  0.0000  0.0000  0.0000  0.0000 </r>
       </set>
       <set comment="band 4">
        <r>  0.0000  0.0988  0.0000  0.0988  0.0000  0.0000  0.0000  0.0000  0.0000 </r>
        <r>  0.0000  0.0988  0.0000  0.0988  0.0000  0.0000  0.0000  0.0000  0.0000 </r>
       </set>
       <set comment="band 5">
        <r>  0.0542  0.0010  0.0456  0.0010  0.0000  0.0000  0.0000  0.0000  0.0000 </r>
        <r>  0.0542  0.0010  0.0456  0.0010  0.0000  0.0000  0.0000  0.0000  0.0000 </r>
       </set>
       <set comment="band 6">
        <r>  0.0084  0.0382  0.0026  0.0382  0.0000  0.0000  0.0000  0.0000  0.0000 </r>
        <r>  0.0084  0.0382  0.0026  0.0382  0.0000  0.0000  0.0000  0.0000  0.0000 </r>
       </set>
       <set comment="band 7">
        <r>  0.0000  0.0763  0.0000  0.0763  0.0000  0.0000  0.0000  0.0000  0.0000 </r>
        <r>  0.0000  0.0763  0.0000  0.0763  0.0000  0.0000  0.0000  0.0000  0.0000 </r>
       </set>
       <set comment="band 8">
        <r>  0.0426  0.0031  0.1232  0.0031  0.0000  0.0000  0.0000  0.0000  0.0000 </r>
        <r>  0.0426  0.0031  0.1232  0.0031  0.0000  0.0000  0.0000  0.0000  0.0000 </r>
       </set>
       <set comment="band 9">
        <r>  0.0615  0.0618  0.0342  0.0618  0.0000  0.0000  0.0000  0.0000  0.0000 </r>
        <r>  0.0615  0.0618  0.0342  0.0618  0.0000  0.0000  0.0000  0.0000  0.0000 </r>
       </set>
      </set>
     </set>
     <set comment="spin2">
      <set comment="kpoint 1">
       <set comment="band 1">
        <r>  0.2098  0.0000  0.0000  0.0000  0.0000  0.0000  0.0000  0.0000  0.0000 </r>
        <r>  0.2098  0.0000  0.0000  0.0000  0.0000  0.0000  0.0000  0.0000  0.0000 </r>
       </set>
       <set comment="band 2">
        <r>  0.0000  0.1161  0.0873  0.0077  0.0000  0.0000  0.0000  0.0000  0.0000 </r>
        <r>  0.0000  0.1161  0.0873  0.0077  0.0000  0.0000  0.0000  0.0000  0.0000 </r>
       </set>
       <set comment="band 3">
        <r>  0.0000  0.0246  0.0534  0.1331  0.0000  0.0000  0.0000  0.0000  0.0000 </r>
        <r>  0.0000  0.0246  0.0534  0.1331  0.0000  0.0000  0.0000  0.0000  0.0000 </r>
       </set>
       <set comment="band 4">
        <r>  0.0000  0.0704  0.0704  0.0704  0.0000  0.0000  0.0000  0.0000  0.0000 </r>
        <r>  0.0000  0.0704  0.0704  0.0704  0.0000  0.0000  0.0000  0.0000  0.0000 </r>
       </set>
       <set comment="band 5">
        <r>  0.0000  0.0497  0.0497  0.0498  0.0000  0.0000  0.0000  0.0000  0.0000 </r>
        <r>  0.0000  0.0497  0.0497  0.0498  0.0000  0.0000  0.0000  0.0000  0.0000 </r>
       </set>
       <set comment="band 6">
        <r>  0.0000  0.0059  0.0515  0.0918  0.0000  0.0000  0.0000  0.0000  0.0000 </r>
        <r>  0.0000  0.0059  0.0515  0.0918  0.0000  0.0000  0.0000  0.0000  0.0000 </r>
       </set>
       <set comment="band 7">
        <r>  0.0000  0.0936  0.0480  0.0077  0.0000  0.0000  0.0000  0.0000  0.0000 </r>
        <r>  0.0000  0.0936  0.0480  0.0077  0.0000  0.0000  0.0000  0.0000  0.0000 </r>
       </set>
       <set comment="band 8">
        <r>  0.3577  0.0000  0.0000  0.0000  0.0000  0.0000  0.0000  0.0000  0.0000 </r>
        <r>  0.3577  0.0000  0.0000  0.0000  0.0000  0.0000  0.0000  0.0000  0.0000 </r>
       </set>
       <set comment="band 9">
        <r>  0.0000  0.0000  0.0000  0.0000  0.0000  0.0000  0.0000  0.0000  0.0000 </r>
        <r>  0.0000  0.0000  0.0000  0.0000  0.0000  0.0000  0.0000  0.0000  0.0000 </r>
       </set>
      </set>
      <set comment="kpoint 2">
       <set comment="band 1">
        <r>  0.2081  0.0039  0.0039  0.0039  0.0000  0.0000  0.0000  0.0000  0.0000 </r>
        <r>  0.2081  0.0039  0.0039  0.0039  0.0000  0.0000  0.0000  0.0000  0.0000 </r>
       </set>
       <set comment="band 2">
        <r>  0.1073  0.0330  0.0330  0.0330  0.0000  0.0000  0.0000  0.0000  0.0000 </r>
        <r>  0.1073  0.0330  0.0330  0.0330  0.0000  0.0000  0.0000  0.0000  0.0000 </r>
       </set>
       <set comment="band 3">
        <r>  0.0000  0.1050  0.1050  0.0000  0.0000  0.0000  0.0000  0.0000  0.0000 </r>
        <r>  0.0000  0.1050  0.1050  0.0000  0.0000  0.0000  0.0000  0.0000  0.0000 </r>
       </set>
       <set comment="band 4">
        <r>  0.0000  0.0350  0.0350  0.1399  0.0000  0.0000  0.0000  0.0000  0.0000 </r>
        <r>  0.0000  0.0350  0.0350  0.1399  0.0000  0.0000  0.0000  0.0000  0.0000 </r>
       </set>
       <set comment="band 5">
        <r>  0.1721  0.0112  0.0112  0.0112  0.0000  0.0000  0.0000  0.0000  0.0000 </r>
        <r>  0.1721  0.0112  0.0112  0.0112  0.0000  0.0000  0.0000  0.0000  0.0000 </r>
       </set>
       <set comment="band 6">
        <r>  0.0000  0.0192  0.0192  0.0768  0.0000  0.0000  0.0000  0.0000  0.0000 </r>
        <r>  0.0000  0.0192  0.0192  0.0768  0.0000  0.0000  0.0000  0.0000  0.0000 </r>
       </set>
       <set comment="band 7">
        <r>  0.0000  0.0576  0.0576  0.0000  0.0000  0.0000  0.0000  0.0000  0.0000 </r>
        <r>  0.0000  0.0576  0.0576  0.0000  0.0000  0.0000  0.0000  0.0000  0.0000 </r>
       </set>
       <set comment="band 8">
        <r>  0.0242  0.0466  0.0466  0.0466  0.0000  0.0000  0.0000  0.0000  0.0000 </r>
        <r>  0.0242  0.0466  0.0466  0.0466  0.0000  0.0000  0.0000  0.0000  0.0000 </r>
       </set>
       <set comment="band 9">
        <r>  0.0000  0.0111  0.0213  0.0017  0.0000  0.0000  0.0000  0.0000  0.0000 </r>
        <r>  0.0000  0.0111  0.0213  0.0017  0.0000  0.0000  0.0000  0.0000  0.0000 </r>
       </set>
      </set>
      <set comment="kpoint 3">
       <set comment="band 1">
        <r>  0.2016  0.0000  0.0194  0.0000  0.0000  0.0000  0.0000  0.0000  0.0000 </r>
        <r>  0.2016  0.0000  0.0194  0.0000  0.0000  0.0000  0.0000  0.0000  0.0000 </r>
       </set>
       <set comment="band 2">
        <r>  0.1755  0.0000  0.0738  0.0000  0.0000  0.0000  0.0000  0.0000  0.0000 </r>
        <r>  0.1755  0.0000  0.0738  0.0000  0.0000  0.0000  0.0000  0.0000  0.0000 </r>
       </set>
       <set comment="band 3">
        <r>  0.0000  0.0961  0.0000  0.0961  0.0000  0.0000  0.0000  0.0000  0.0000 </r>
        <r>  0.0000  0.0961  0.0000  0.0961  0.0000  0.0000  0.0000  0.0000  0.0000 </r>
       </set>
       <set comment="band 4">
        <r>  0.0000  0.0961  0.0000  0.0961  0.0000  0.0000  0.0000  0.0000  0.0000 </r>
        <r>  0.0000  0.0961  0.0000  0.0961  0.0000  0.0000  0.0000  0.0000  0.0000 </r>
       </set>
       <set comment="band 5">
        <r>  0.0490  0.0000  0.0588  0.0000  0.0000  0.0000  0.0000  0.0000  0.0000 </r>
        <r>  0.0490  0.0000  0.0588  0.0000  0.0000  0.0000  0.0000  0.0000  0.0000 </r>
       </set>
       <set comment="band 6">
        <r>  0.0450  0.0000  0.0340  0.0000  0.0000  0.0000  0.0000  0.0000  0.0000 </r>
        <r>  0.0450  0.0000  0.0340  0.0000  0.0000  0.0000  0.0000  0.0000  0.0000 </r>
       </set>
       <set comment="band 7">
        <r>  0.0000  0.0833  0.0000  0.0833  0.0000  0.0000  0.0000  0.0000  0.0000 </r>
        <r>  0.0000  0.0833  0.0000  0.0833  0.0000  0.0000  0.0000  0.0000  0.0000 </r>
       </set>
       <set comment="band 8">
        <r>  0.0000  0.0833  0.0000  0.0833  0.0000  0.0000  0.0000  0.0000  0.0000 </r>
        <r>  0.0000  0.0833  0.0000  0.0833  0.0000  0.0000  0.0000  0.0000  0.0000 </r>
       </set>
       <set comment="band 9">
        <r>  0.1277  0.0000  0.1346  0.0000  0.0000  0.0000  0.0000  0.0000  0.0000 </r>
        <r>  0.1277  0.0000  0.1346  0.0000  0.0000  0.0000  0.0000  0.0000  0.0000 </r>
       </set>
      </set>
      <set comment="kpoint 4">
       <set comment="band 1">
        <r>  0.2118  0.0073  0.0115  0.0073  0.0000  0.0000  0.0000  0.0000  0.0000 </r>
        <r>  0.2118  0.0073  0.0115  0.0073  0.0000  0.0000  0.0000  0.0000  0.0000 </r>
       </set>
       <set comment="band 2">
        <r>  0.1762  0.0095  0.0400  0.0095  0.0000  0.0000  0.0000  0.0000  0.0000 </r>
        <r>  0.1762  0.0095  0.0400  0.0095  0.0000  0.0000  0.0000  0.0000  0.0000 </r>
       </set>
       <set comment="band 3">
        <r>  0.0033  0.0455  0.0575  0.0455  0.0000  0.0000  0.0000  0.0000  0.0000 </r>
        <r>  0.0033  0.0455  0.0575  0.0455  0.0000  0.0000  0.0000  0.0000  0.0000 </r>
       </set>
       <set comment="band 4">
        <r>  0.0000  0.0988  0.0000  0.0988  0.0000  0.0000  0.0000  0.0000  0.0000 </r>
        <r>  0.0000  0.0988  0.0000  0.0988  0.0000  0.0000  0.0000  0.0000  0.0000 </r>
       </set>
       <set comment="band 5">
        <r>  0.0542  0.0010  0.0456  0.0010  0.0000  0.0000  0.0000  0.0000  0.0000 </r>
        <r>  0.0542  0.0010  0.0456  0.0010  0.0000  0.0000  0.0000  0.0000  0.0000 </r>
       </set>
       <set comment="band 6">
        <r>  0.0084  0.0382  0.0026  0.0382  0.0000  0.0000  0.0000  0.0000  0.0000 </r>
        <r>  0.0084  0.0382  0.0026  0.0382  0.0000  0.0000  0.0000  0.0000  0.0000 </r>
       </set>
       <set comment="band 7">
        <r>  0.0000  0.0763  0.0000  0.0763  0.0000  0.0000  0.0000  0.0000  0.0000 </r>
        <r>  0.0000  0.0763  0.0000  0.0763  0.0000  0.0000  0.0000  0.0000  0.0000 </r>
       </set>
       <set comment="band 8">
        <r>  0.0426  0.0031  0.1232  0.0031  0.0000  0.0000  0.0000  0.0000  0.0000 </r>
        <r>  0.0426  0.0031  0.1232  0.0031  0.0000  0.0000  0.0000  0.0000  0.0000 </r>
       </set>
       <set comment="band 9">
        <r>  0.0615  0.0618  0.0342  0.0618  0.0000  0.0000  0.0000  0.0000  0.0000 </r>
        <r>  0.0615  0.0618  0.0342  0.0618  0.0000  0.0000  0.0000  0.0000  0.0000 </r>
       </set>
      </set>
     </set>
    </set>
   </array>
  </projected>
 </calculation>
 <structure name="finalpos" >
  <crystal>
   <varray name="basis" >
    <v>       0.00000000       2.75277734       2.75277734 </v>
    <v>       2.75277734      -0.00000000       2.75277734 </v>
    <v>       2.75277734       2.75277734       0.00000000 </v>
   </varray>
   <i name="volume">     41.71989900 </i>
   <varray name="rec_basis" >
    <v>      -0.18163474       0.18163474       0.18163474 </v>
    <v>       0.18163474      -0.18163474       0.18163474 </v>
    <v>       0.18163474       0.18163474      -0.18163474 </v>
   </varray>
  </crystal>
  <varray name="positions" >
   <v>       0.75000000       0.75000000       0.75000000 </v>
   <v>       0.50000000       0.50000000       0.50000000 </v>
  </varray>
 </structure>
</modeling>
