 vasp.5.4.4 18Apr17 (build Mar 28 2018 15:56:00) complex

 executed on      IFC17_CrayMPICH date 2022.07.02  16:53:00
 running    1 mpi-ranks, with    1 threads/rank
 distrk:  each k-point on    1 cores,    1 groups
 distr:  one band on NCORES_PER_BAND=   1 cores,    1 groups


--------------------------------------------------------------------------------------------------------


 INCAR:
 POTCAR:    PAW_PBE Si 05Jan2001
 POTCAR:    PAW_PBE Si 05Jan2001
   VRHFIN =Si: s2p2
   LEXCH  = PE
   EATOM  =   103.0669 eV,    7.5752 Ry

   TITEL  = PAW_PBE Si 05Jan2001
   LULTRA =        F    use ultrasoft PP ?
   IUNSCR =        1    unscreen: 0-lin 1-nonlin 2-no
   RPACOR =    1.500    partial core radius
   POMASS =   28.085; ZVAL   =    4.000    mass and valenz
   RCORE  =    1.900    outmost cutoff radius
   RWIGS  =    2.480; RWIGS  =    1.312    wigner-seitz radius (au A)
   ENMAX  =  245.345; ENMIN  =  184.009 eV
   ICORE  =        2    local potential
   LCOR   =        T    correct aug charges
   LPAW   =        T    paw PP
   EAUG   =  322.069
   DEXC   =    0.000
   RMAX   =    1.950    core radius for proj-oper
   RAUG   =    1.300    factor for augmentation sphere
   RDEP   =    1.993    radius for radial grids
   RDEPT  =    1.837    core radius for aug-charge

   Atomic configuration
    6 entries
     n  l   j            E        occ.
     1  0  0.50     -1785.8828   2.0000
     2  0  0.50      -139.4969   2.0000
     2  1  1.50       -95.5546   6.0000
     3  0  0.50       -10.8127   2.0000
     3  1  0.50        -4.0811   2.0000
     3  2  1.50        -4.0817   0.0000
   Description
     l       E           TYP  RCUT    TYP  RCUT
     0    -10.8127223     23  1.900
     0     -7.6451159     23  1.900
     1     -4.0811372     23  1.900
     1      2.4879257     23  1.900
     2     -4.0817478      7  1.900
  local pseudopotential read in
  partial core-charges read in
  partial kinetic energy density read in
  atomic valenz-charges read in
  non local Contribution for L=           0  read in
    real space projection operators read in
  non local Contribution for L=           0  read in
    real space projection operators read in
  non local Contribution for L=           1  read in
    real space projection operators read in
  non local Contribution for L=           1  read in
    real space projection operators read in
    PAW grid and wavefunctions read in

   number of l-projection  operators is LMAX  =           4
   number of lm-projection operators is LMMAX =           8


 -----------------------------------------------------------------------------
|                                                                             |
|  ADVICE TO THIS USER RUNNING 'VASP/VAMP'   (HEAR YOUR MASTER'S VOICE ...):  |
|                                                                             |
|      You have a (more or less) 'small supercell' and for smaller cells      |
|      it is recommended  to use the reciprocal-space projection scheme!      |
|      The real space optimization is not  efficient for small cells and it   |
|      is also less accurate ...                                              |
|      Therefore set LREAL=.FALSE. in the  INCAR file                         |
|                                                                             |
 -----------------------------------------------------------------------------

 Optimization of the real space projectors (new method)

 maximal supplied QI-value         = 19.84
 optimisation between [QCUT,QGAM] = [  7.94, 15.87] = [ 17.64, 70.56] Ry
 Optimized for a Real-space Cutoff    1.57 Angstroem

   l    n(q)    QCUT    max X(q) W(low)/X(q) W(high)/X(q)  e(spline)
   0      7     7.937   159.560    0.16E-03    0.38E-03    0.13E-06
   0      7     7.937   115.863    0.15E-03    0.37E-03    0.13E-06
   1      7     7.937    88.339    0.42E-03    0.67E-03    0.13E-06
   1      7     7.937    48.592    0.41E-03    0.65E-03    0.13E-06

 -----------------------------------------------------------------------------
|                                                                             |
|  ADVICE TO THIS USER RUNNING 'VASP/VAMP'   (HEAR YOUR MASTER'S VOICE ...):  |
|                                                                             |
|      You enforced a specific xc-type in the INCAR file,                     |
|      a different type was found on the POTCAR file                          |
|          I HOPE YOU KNOW, WHAT YOU ARE  DOING                               |
|                                                                             |
 -----------------------------------------------------------------------------

  PAW_PBE Si 05Jan2001                  :
 energy of atom  1       EATOM= -103.0669
 kinetic energy error for atom=    0.0056 (will be added to EATOM!!)


 POSCAR: Si2
  positions in direct lattice
  No initial velocities read in
 exchange correlation table for  LEXCH =       14
   RHO(1)=    0.500       N(1)  =     2000
   RHO(2)=  100.500       N(2)  =     4000



--------------------------------------------------------------------------------------------------------


 ion  position               nearest neighbor table
   1  0.250  0.250  0.250-   2 2.37   2 2.37   2 2.37   2 2.37
   2  0.000  0.000  0.000-   1 2.37   1 2.37   1 2.37   1 2.37


IMPORTANT INFORMATION: All symmetrisations will be switched off!
NOSYMM: (Re-)initialisation of all symmetry stuff for point group C_1.




Automatic generation of k-mesh.
 generate k-points for:   10   10   10
Space group operators:
 irot       det(A)        alpha          n_x          n_y          n_z        tau_x        tau_y        tau_z
    1     1.000000     0.000000     1.000000     0.000000     0.000000     0.000000     0.000000     0.000000

 Subroutine IBZKPT returns following result:
 ===========================================

 Found    504 irreducible k-points:

 Following reciprocal coordinates:
            Coordinates               Weight
  0.000000  0.000000  0.000000      1.000000
  0.100000  0.000000  0.000000      2.000000
  0.200000  0.000000  0.000000      2.000000
  0.300000  0.000000  0.000000      2.000000
  0.400000  0.000000  0.000000      2.000000
  0.500000  0.000000  0.000000      1.000000
  0.000000  0.100000  0.000000      2.000000
  0.100000  0.100000  0.000000      2.000000
  0.200000  0.100000  0.000000      2.000000
  0.300000  0.100000  0.000000      2.000000
  0.400000  0.100000  0.000000      2.000000
  0.500000  0.100000  0.000000      2.000000
 -0.400000  0.100000  0.000000      2.000000
 -0.300000  0.100000  0.000000      2.000000
 -0.200000  0.100000  0.000000      2.000000
 -0.100000  0.100000  0.000000      2.000000
  0.000000  0.200000  0.000000      2.000000
  0.100000  0.200000  0.000000      2.000000
  0.200000  0.200000  0.000000      2.000000
  0.300000  0.200000  0.000000      2.000000
  0.400000  0.200000  0.000000      2.000000
  0.500000  0.200000  0.000000      2.000000
 -0.400000  0.200000  0.000000      2.000000
 -0.300000  0.200000  0.000000      2.000000
 -0.200000  0.200000  0.000000      2.000000
 -0.100000  0.200000  0.000000      2.000000
  0.000000  0.300000  0.000000      2.000000
  0.100000  0.300000  0.000000      2.000000
  0.200000  0.300000  0.000000      2.000000
  0.300000  0.300000  0.000000      2.000000
  0.400000  0.300000  0.000000      2.000000
  0.500000  0.300000  0.000000      2.000000
 -0.400000  0.300000  0.000000      2.000000
 -0.300000  0.300000  0.000000      2.000000
 -0.200000  0.300000  0.000000      2.000000
 -0.100000  0.300000  0.000000      2.000000
  0.000000  0.400000  0.000000      2.000000
  0.100000  0.400000  0.000000      2.000000
  0.200000  0.400000  0.000000      2.000000
  0.300000  0.400000  0.000000      2.000000
  0.400000  0.400000  0.000000      2.000000
  0.500000  0.400000  0.000000      2.000000
 -0.400000  0.400000  0.000000      2.000000
 -0.300000  0.400000  0.000000      2.000000
 -0.200000  0.400000  0.000000      2.000000
 -0.100000  0.400000  0.000000      2.000000
  0.000000  0.500000  0.000000      1.000000
  0.100000  0.500000  0.000000      2.000000
  0.200000  0.500000  0.000000      2.000000
  0.300000  0.500000  0.000000      2.000000
  0.400000  0.500000  0.000000      2.000000
  0.500000  0.500000  0.000000      1.000000
 -0.000000  0.000000  0.100000      2.000000
  0.100000  0.000000  0.100000      2.000000
  0.200000 -0.000000  0.100000      2.000000
  0.300000  0.000000  0.100000      2.000000
  0.400000  0.000000  0.100000      2.000000
  0.500000 -0.000000  0.100000      2.000000
 -0.400000 -0.000000  0.100000      2.000000
 -0.300000  0.000000  0.100000      2.000000
 -0.200000  0.000000  0.100000      2.000000
 -0.100000  0.000000  0.100000      2.000000
 -0.000000  0.100000  0.100000      2.000000
  0.100000  0.100000  0.100000      2.000000
  0.200000  0.100000  0.100000      2.000000
  0.300000  0.100000  0.100000      2.000000
  0.400000  0.100000  0.100000      2.000000
  0.500000  0.100000  0.100000      2.000000
 -0.400000  0.100000  0.100000      2.000000
 -0.300000  0.100000  0.100000      2.000000
 -0.200000  0.100000  0.100000      2.000000
 -0.100000  0.100000  0.100000      2.000000
 -0.000000  0.200000  0.100000      2.000000
  0.100000  0.200000  0.100000      2.000000
  0.200000  0.200000  0.100000      2.000000
  0.300000  0.200000  0.100000      2.000000
  0.400000  0.200000  0.100000      2.000000
  0.500000  0.200000  0.100000      2.000000
 -0.400000  0.200000  0.100000      2.000000
 -0.300000  0.200000  0.100000      2.000000
 -0.200000  0.200000  0.100000      2.000000
 -0.100000  0.200000  0.100000      2.000000
 -0.000000  0.300000  0.100000      2.000000
  0.100000  0.300000  0.100000      2.000000
  0.200000  0.300000  0.100000      2.000000
  0.300000  0.300000  0.100000      2.000000
  0.400000  0.300000  0.100000      2.000000
  0.500000  0.300000  0.100000      2.000000
 -0.400000  0.300000  0.100000      2.000000
 -0.300000  0.300000  0.100000      2.000000
 -0.200000  0.300000  0.100000      2.000000
 -0.100000  0.300000  0.100000      2.000000
 -0.000000  0.400000  0.100000      2.000000
  0.100000  0.400000  0.100000      2.000000
  0.200000  0.400000  0.100000      2.000000
  0.300000  0.400000  0.100000      2.000000
  0.400000  0.400000  0.100000      2.000000
  0.500000  0.400000  0.100000      2.000000
 -0.400000  0.400000  0.100000      2.000000
 -0.300000  0.400000  0.100000      2.000000
 -0.200000  0.400000  0.100000      2.000000
 -0.100000  0.400000  0.100000      2.000000
 -0.000000  0.500000  0.100000      2.000000
  0.100000  0.500000  0.100000      2.000000
  0.200000  0.500000  0.100000      2.000000
  0.300000  0.500000  0.100000      2.000000
  0.400000  0.500000  0.100000      2.000000
  0.500000  0.500000  0.100000      2.000000
 -0.400000  0.500000  0.100000      2.000000
 -0.300000  0.500000  0.100000      2.000000
 -0.200000  0.500000  0.100000      2.000000
 -0.100000  0.500000  0.100000      2.000000
 -0.000000 -0.400000  0.100000      2.000000
  0.100000 -0.400000  0.100000      2.000000
  0.200000 -0.400000  0.100000      2.000000
  0.300000 -0.400000  0.100000      2.000000
  0.400000 -0.400000  0.100000      2.000000
  0.500000 -0.400000  0.100000      2.000000
 -0.400000 -0.400000  0.100000      2.000000
 -0.300000 -0.400000  0.100000      2.000000
 -0.200000 -0.400000  0.100000      2.000000
 -0.100000 -0.400000  0.100000      2.000000
 -0.000000 -0.300000  0.100000      2.000000
  0.100000 -0.300000  0.100000      2.000000
  0.200000 -0.300000  0.100000      2.000000
  0.300000 -0.300000  0.100000      2.000000
  0.400000 -0.300000  0.100000      2.000000
  0.500000 -0.300000  0.100000      2.000000
 -0.400000 -0.300000  0.100000      2.000000
 -0.300000 -0.300000  0.100000      2.000000
 -0.200000 -0.300000  0.100000      2.000000
 -0.100000 -0.300000  0.100000      2.000000
 -0.000000 -0.200000  0.100000      2.000000
  0.100000 -0.200000  0.100000      2.000000
  0.200000 -0.200000  0.100000      2.000000
  0.300000 -0.200000  0.100000      2.000000
  0.400000 -0.200000  0.100000      2.000000
  0.500000 -0.200000  0.100000      2.000000
 -0.400000 -0.200000  0.100000      2.000000
 -0.300000 -0.200000  0.100000      2.000000
 -0.200000 -0.200000  0.100000      2.000000
 -0.100000 -0.200000  0.100000      2.000000
 -0.000000 -0.100000  0.100000      2.000000
  0.100000 -0.100000  0.100000      2.000000
  0.200000 -0.100000  0.100000      2.000000
  0.300000 -0.100000  0.100000      2.000000
  0.400000 -0.100000  0.100000      2.000000
  0.500000 -0.100000  0.100000      2.000000
 -0.400000 -0.100000  0.100000      2.000000
 -0.300000 -0.100000  0.100000      2.000000
 -0.200000 -0.100000  0.100000      2.000000
 -0.100000 -0.100000  0.100000      2.000000
 -0.000000  0.000000  0.200000      2.000000
  0.100000  0.000000  0.200000      2.000000
  0.200000  0.000000  0.200000      2.000000
  0.300000  0.000000  0.200000      2.000000
  0.400000  0.000000  0.200000      2.000000
  0.500000  0.000000  0.200000      2.000000
 -0.400000 -0.000000  0.200000      2.000000
 -0.300000  0.000000  0.200000      2.000000
 -0.200000  0.000000  0.200000      2.000000
 -0.100000  0.000000  0.200000      2.000000
 -0.000000  0.100000  0.200000      2.000000
  0.100000  0.100000  0.200000      2.000000
  0.200000  0.100000  0.200000      2.000000
  0.300000  0.100000  0.200000      2.000000
  0.400000  0.100000  0.200000      2.000000
  0.500000  0.100000  0.200000      2.000000
 -0.400000  0.100000  0.200000      2.000000
 -0.300000  0.100000  0.200000      2.000000
 -0.200000  0.100000  0.200000      2.000000
 -0.100000  0.100000  0.200000      2.000000
 -0.000000  0.200000  0.200000      2.000000
  0.100000  0.200000  0.200000      2.000000
  0.200000  0.200000  0.200000      2.000000
  0.300000  0.200000  0.200000      2.000000
  0.400000  0.200000  0.200000      2.000000
  0.500000  0.200000  0.200000      2.000000
 -0.400000  0.200000  0.200000      2.000000
 -0.300000  0.200000  0.200000      2.000000
 -0.200000  0.200000  0.200000      2.000000
 -0.100000  0.200000  0.200000      2.000000
 -0.000000  0.300000  0.200000      2.000000
  0.100000  0.300000  0.200000      2.000000
  0.200000  0.300000  0.200000      2.000000
  0.300000  0.300000  0.200000      2.000000
  0.400000  0.300000  0.200000      2.000000
  0.500000  0.300000  0.200000      2.000000
 -0.400000  0.300000  0.200000      2.000000
 -0.300000  0.300000  0.200000      2.000000
 -0.200000  0.300000  0.200000      2.000000
 -0.100000  0.300000  0.200000      2.000000
 -0.000000  0.400000  0.200000      2.000000
  0.100000  0.400000  0.200000      2.000000
  0.200000  0.400000  0.200000      2.000000
  0.300000  0.400000  0.200000      2.000000
  0.400000  0.400000  0.200000      2.000000
  0.500000  0.400000  0.200000      2.000000
 -0.400000  0.400000  0.200000      2.000000
 -0.300000  0.400000  0.200000      2.000000
 -0.200000  0.400000  0.200000      2.000000
 -0.100000  0.400000  0.200000      2.000000
 -0.000000  0.500000  0.200000      2.000000
  0.100000  0.500000  0.200000      2.000000
  0.200000  0.500000  0.200000      2.000000
  0.300000  0.500000  0.200000      2.000000
  0.400000  0.500000  0.200000      2.000000
  0.500000  0.500000  0.200000      2.000000
 -0.400000  0.500000  0.200000      2.000000
 -0.300000  0.500000  0.200000      2.000000
 -0.200000  0.500000  0.200000      2.000000
 -0.100000  0.500000  0.200000      2.000000
 -0.000000 -0.400000  0.200000      2.000000
  0.100000 -0.400000  0.200000      2.000000
  0.200000 -0.400000  0.200000      2.000000
  0.300000 -0.400000  0.200000      2.000000
  0.400000 -0.400000  0.200000      2.000000
  0.500000 -0.400000  0.200000      2.000000
 -0.400000 -0.400000  0.200000      2.000000
 -0.300000 -0.400000  0.200000      2.000000
 -0.200000 -0.400000  0.200000      2.000000
 -0.100000 -0.400000  0.200000      2.000000
 -0.000000 -0.300000  0.200000      2.000000
  0.100000 -0.300000  0.200000      2.000000
  0.200000 -0.300000  0.200000      2.000000
  0.300000 -0.300000  0.200000      2.000000
  0.400000 -0.300000  0.200000      2.000000
  0.500000 -0.300000  0.200000      2.000000
 -0.400000 -0.300000  0.200000      2.000000
 -0.300000 -0.300000  0.200000      2.000000
 -0.200000 -0.300000  0.200000      2.000000
 -0.100000 -0.300000  0.200000      2.000000
 -0.000000 -0.200000  0.200000      2.000000
  0.100000 -0.200000  0.200000      2.000000
  0.200000 -0.200000  0.200000      2.000000
  0.300000 -0.200000  0.200000      2.000000
  0.400000 -0.200000  0.200000      2.000000
  0.500000 -0.200000  0.200000      2.000000
 -0.400000 -0.200000  0.200000      2.000000
 -0.300000 -0.200000  0.200000      2.000000
 -0.200000 -0.200000  0.200000      2.000000
 -0.100000 -0.200000  0.200000      2.000000
 -0.000000 -0.100000  0.200000      2.000000
  0.100000 -0.100000  0.200000      2.000000
  0.200000 -0.100000  0.200000      2.000000
  0.300000 -0.100000  0.200000      2.000000
  0.400000 -0.100000  0.200000      2.000000
  0.500000 -0.100000  0.200000      2.000000
 -0.400000 -0.100000  0.200000      2.000000
 -0.300000 -0.100000  0.200000      2.000000
 -0.200000 -0.100000  0.200000      2.000000
 -0.100000 -0.100000  0.200000      2.000000
  0.000000  0.000000  0.300000      2.000000
  0.100000  0.000000  0.300000      2.000000
  0.200000  0.000000  0.300000      2.000000
  0.300000  0.000000  0.300000      2.000000
  0.400000  0.000000  0.300000      2.000000
  0.500000  0.000000  0.300000      2.000000
 -0.400000  0.000000  0.300000      2.000000
 -0.300000  0.000000  0.300000      2.000000
 -0.200000  0.000000  0.300000      2.000000
 -0.100000  0.000000  0.300000      2.000000
  0.000000  0.100000  0.300000      2.000000
  0.100000  0.100000  0.300000      2.000000
  0.200000  0.100000  0.300000      2.000000
  0.300000  0.100000  0.300000      2.000000
  0.400000  0.100000  0.300000      2.000000
  0.500000  0.100000  0.300000      2.000000
 -0.400000  0.100000  0.300000      2.000000
 -0.300000  0.100000  0.300000      2.000000
 -0.200000  0.100000  0.300000      2.000000
 -0.100000  0.100000  0.300000      2.000000
  0.000000  0.200000  0.300000      2.000000
  0.100000  0.200000  0.300000      2.000000
  0.200000  0.200000  0.300000      2.000000
  0.300000  0.200000  0.300000      2.000000
  0.400000  0.200000  0.300000      2.000000
  0.500000  0.200000  0.300000      2.000000
 -0.400000  0.200000  0.300000      2.000000
 -0.300000  0.200000  0.300000      2.000000
 -0.200000  0.200000  0.300000      2.000000
 -0.100000  0.200000  0.300000      2.000000
  0.000000  0.300000  0.300000      2.000000
  0.100000  0.300000  0.300000      2.000000
  0.200000  0.300000  0.300000      2.000000
  0.300000  0.300000  0.300000      2.000000
  0.400000  0.300000  0.300000      2.000000
  0.500000  0.300000  0.300000      2.000000
 -0.400000  0.300000  0.300000      2.000000
 -0.300000  0.300000  0.300000      2.000000
 -0.200000  0.300000  0.300000      2.000000
 -0.100000  0.300000  0.300000      2.000000
  0.000000  0.400000  0.300000      2.000000
  0.100000  0.400000  0.300000      2.000000
  0.200000  0.400000  0.300000      2.000000
  0.300000  0.400000  0.300000      2.000000
  0.400000  0.400000  0.300000      2.000000
  0.500000  0.400000  0.300000      2.000000
 -0.400000  0.400000  0.300000      2.000000
 -0.300000  0.400000  0.300000      2.000000
 -0.200000  0.400000  0.300000      2.000000
 -0.100000  0.400000  0.300000      2.000000
  0.000000  0.500000  0.300000      2.000000
  0.100000  0.500000  0.300000      2.000000
  0.200000  0.500000  0.300000      2.000000
  0.300000  0.500000  0.300000      2.000000
  0.400000  0.500000  0.300000      2.000000
  0.500000  0.500000  0.300000      2.000000
 -0.400000  0.500000  0.300000      2.000000
 -0.300000  0.500000  0.300000      2.000000
 -0.200000  0.500000  0.300000      2.000000
 -0.100000  0.500000  0.300000      2.000000
  0.000000 -0.400000  0.300000      2.000000
  0.100000 -0.400000  0.300000      2.000000
  0.200000 -0.400000  0.300000      2.000000
  0.300000 -0.400000  0.300000      2.000000
  0.400000 -0.400000  0.300000      2.000000
  0.500000 -0.400000  0.300000      2.000000
 -0.400000 -0.400000  0.300000      2.000000
 -0.300000 -0.400000  0.300000      2.000000
 -0.200000 -0.400000  0.300000      2.000000
 -0.100000 -0.400000  0.300000      2.000000
  0.000000 -0.300000  0.300000      2.000000
  0.100000 -0.300000  0.300000      2.000000
  0.200000 -0.300000  0.300000      2.000000
  0.300000 -0.300000  0.300000      2.000000
  0.400000 -0.300000  0.300000      2.000000
  0.500000 -0.300000  0.300000      2.000000
 -0.400000 -0.300000  0.300000      2.000000
 -0.300000 -0.300000  0.300000      2.000000
 -0.200000 -0.300000  0.300000      2.000000
 -0.100000 -0.300000  0.300000      2.000000
  0.000000 -0.200000  0.300000      2.000000
  0.100000 -0.200000  0.300000      2.000000
  0.200000 -0.200000  0.300000      2.000000
  0.300000 -0.200000  0.300000      2.000000
  0.400000 -0.200000  0.300000      2.000000
  0.500000 -0.200000  0.300000      2.000000
 -0.400000 -0.200000  0.300000      2.000000
 -0.300000 -0.200000  0.300000      2.000000
 -0.200000 -0.200000  0.300000      2.000000
 -0.100000 -0.200000  0.300000      2.000000
  0.000000 -0.100000  0.300000      2.000000
  0.100000 -0.100000  0.300000      2.000000
  0.200000 -0.100000  0.300000      2.000000
  0.300000 -0.100000  0.300000      2.000000
  0.400000 -0.100000  0.300000      2.000000
  0.500000 -0.100000  0.300000      2.000000
 -0.400000 -0.100000  0.300000      2.000000
 -0.300000 -0.100000  0.300000      2.000000
 -0.200000 -0.100000  0.300000      2.000000
 -0.100000 -0.100000  0.300000      2.000000
 -0.000000  0.000000  0.400000      2.000000
  0.100000  0.000000  0.400000      2.000000
  0.200000  0.000000  0.400000      2.000000
  0.300000  0.000000  0.400000      2.000000
  0.400000  0.000000  0.400000      2.000000
  0.500000  0.000000  0.400000      2.000000
 -0.400000  0.000000  0.400000      2.000000
 -0.300000  0.000000  0.400000      2.000000
 -0.200000  0.000000  0.400000      2.000000
 -0.100000  0.000000  0.400000      2.000000
 -0.000000  0.100000  0.400000      2.000000
  0.100000  0.100000  0.400000      2.000000
  0.200000  0.100000  0.400000      2.000000
  0.300000  0.100000  0.400000      2.000000
  0.400000  0.100000  0.400000      2.000000
  0.500000  0.100000  0.400000      2.000000
 -0.400000  0.100000  0.400000      2.000000
 -0.300000  0.100000  0.400000      2.000000
 -0.200000  0.100000  0.400000      2.000000
 -0.100000  0.100000  0.400000      2.000000
 -0.000000  0.200000  0.400000      2.000000
  0.100000  0.200000  0.400000      2.000000
  0.200000  0.200000  0.400000      2.000000
  0.300000  0.200000  0.400000      2.000000
  0.400000  0.200000  0.400000      2.000000
  0.500000  0.200000  0.400000      2.000000
 -0.400000  0.200000  0.400000      2.000000
 -0.300000  0.200000  0.400000      2.000000
 -0.200000  0.200000  0.400000      2.000000
 -0.100000  0.200000  0.400000      2.000000
 -0.000000  0.300000  0.400000      2.000000
  0.100000  0.300000  0.400000      2.000000
  0.200000  0.300000  0.400000      2.000000
  0.300000  0.300000  0.400000      2.000000
  0.400000  0.300000  0.400000      2.000000
  0.500000  0.300000  0.400000      2.000000
 -0.400000  0.300000  0.400000      2.000000
 -0.300000  0.300000  0.400000      2.000000
 -0.200000  0.300000  0.400000      2.000000
 -0.100000  0.300000  0.400000      2.000000
 -0.000000  0.400000  0.400000      2.000000
  0.100000  0.400000  0.400000      2.000000
  0.200000  0.400000  0.400000      2.000000
  0.300000  0.400000  0.400000      2.000000
  0.400000  0.400000  0.400000      2.000000
  0.500000  0.400000  0.400000      2.000000
 -0.400000  0.400000  0.400000      2.000000
 -0.300000  0.400000  0.400000      2.000000
 -0.200000  0.400000  0.400000      2.000000
 -0.100000  0.400000  0.400000      2.000000
 -0.000000  0.500000  0.400000      2.000000
  0.100000  0.500000  0.400000      2.000000
  0.200000  0.500000  0.400000      2.000000
  0.300000  0.500000  0.400000      2.000000
  0.400000  0.500000  0.400000      2.000000
  0.500000  0.500000  0.400000      2.000000
 -0.400000  0.500000  0.400000      2.000000
 -0.300000  0.500000  0.400000      2.000000
 -0.200000  0.500000  0.400000      2.000000
 -0.100000  0.500000  0.400000      2.000000
 -0.000000 -0.400000  0.400000      2.000000
  0.100000 -0.400000  0.400000      2.000000
  0.200000 -0.400000  0.400000      2.000000
  0.300000 -0.400000  0.400000      2.000000
  0.400000 -0.400000  0.400000      2.000000
  0.500000 -0.400000  0.400000      2.000000
 -0.400000 -0.400000  0.400000      2.000000
 -0.300000 -0.400000  0.400000      2.000000
 -0.200000 -0.400000  0.400000      2.000000
 -0.100000 -0.400000  0.400000      2.000000
 -0.000000 -0.300000  0.400000      2.000000
  0.100000 -0.300000  0.400000      2.000000
  0.200000 -0.300000  0.400000      2.000000
  0.300000 -0.300000  0.400000      2.000000
  0.400000 -0.300000  0.400000      2.000000
  0.500000 -0.300000  0.400000      2.000000
 -0.400000 -0.300000  0.400000      2.000000
 -0.300000 -0.300000  0.400000      2.000000
 -0.200000 -0.300000  0.400000      2.000000
 -0.100000 -0.300000  0.400000      2.000000
 -0.000000 -0.200000  0.400000      2.000000
  0.100000 -0.200000  0.400000      2.000000
  0.200000 -0.200000  0.400000      2.000000
  0.300000 -0.200000  0.400000      2.000000
  0.400000 -0.200000  0.400000      2.000000
  0.500000 -0.200000  0.400000      2.000000
 -0.400000 -0.200000  0.400000      2.000000
 -0.300000 -0.200000  0.400000      2.000000
 -0.200000 -0.200000  0.400000      2.000000
 -0.100000 -0.200000  0.400000      2.000000
 -0.000000 -0.100000  0.400000      2.000000
  0.100000 -0.100000  0.400000      2.000000
  0.200000 -0.100000  0.400000      2.000000
  0.300000 -0.100000  0.400000      2.000000
  0.400000 -0.100000  0.400000      2.000000
  0.500000 -0.100000  0.400000      2.000000
 -0.400000 -0.100000  0.400000      2.000000
 -0.300000 -0.100000  0.400000      2.000000
 -0.200000 -0.100000  0.400000      2.000000
 -0.100000 -0.100000  0.400000      2.000000
  0.000000  0.000000  0.500000      1.000000
  0.100000  0.000000  0.500000      2.000000
  0.200000  0.000000  0.500000      2.000000
  0.300000  0.000000  0.500000      2.000000
  0.400000  0.000000  0.500000      2.000000
  0.500000  0.000000  0.500000      1.000000
  0.000000  0.100000  0.500000      2.000000
  0.100000  0.100000  0.500000      2.000000
  0.200000  0.100000  0.500000      2.000000
  0.300000  0.100000  0.500000      2.000000
  0.400000  0.100000  0.500000      2.000000
  0.500000  0.100000  0.500000      2.000000
 -0.400000  0.100000  0.500000      2.000000
 -0.300000  0.100000  0.500000      2.000000
 -0.200000  0.100000  0.500000      2.000000
 -0.100000  0.100000  0.500000      2.000000
  0.000000  0.200000  0.500000      2.000000
  0.100000  0.200000  0.500000      2.000000
  0.200000  0.200000  0.500000      2.000000
  0.300000  0.200000  0.500000      2.000000
  0.400000  0.200000  0.500000      2.000000
  0.500000  0.200000  0.500000      2.000000
 -0.400000  0.200000  0.500000      2.000000
 -0.300000  0.200000  0.500000      2.000000
 -0.200000  0.200000  0.500000      2.000000
 -0.100000  0.200000  0.500000      2.000000
  0.000000  0.300000  0.500000      2.000000
  0.100000  0.300000  0.500000      2.000000
  0.200000  0.300000  0.500000      2.000000
  0.300000  0.300000  0.500000      2.000000
  0.400000  0.300000  0.500000      2.000000
  0.500000  0.300000  0.500000      2.000000
 -0.400000  0.300000  0.500000      2.000000
 -0.300000  0.300000  0.500000      2.000000
 -0.200000  0.300000  0.500000      2.000000
 -0.100000  0.300000  0.500000      2.000000
  0.000000  0.400000  0.500000      2.000000
  0.100000  0.400000  0.500000      2.000000
  0.200000  0.400000  0.500000      2.000000
  0.300000  0.400000  0.500000      2.000000
  0.400000  0.400000  0.500000      2.000000
  0.500000  0.400000  0.500000      2.000000
 -0.400000  0.400000  0.500000      2.000000
 -0.300000  0.400000  0.500000      2.000000
 -0.200000  0.400000  0.500000      2.000000
 -0.100000  0.400000  0.500000      2.000000
  0.000000  0.500000  0.500000      1.000000
  0.100000  0.500000  0.500000      2.000000
  0.200000  0.500000  0.500000      2.000000
  0.300000  0.500000  0.500000      2.000000
  0.400000  0.500000  0.500000      2.000000
  0.500000  0.500000  0.500000      1.000000

 Following cartesian coordinates:
            Coordinates               Weight
  0.000000  0.000000  0.000000      1.000000
  0.029861 -0.010557  0.000000      2.000000
  0.059721 -0.021115  0.000000      2.000000
  0.089582 -0.031672  0.000000      2.000000
  0.119442 -0.042229  0.000000      2.000000
  0.149303 -0.052786  0.000000      1.000000
  0.000000  0.031672  0.000000      2.000000
  0.029861  0.021115  0.000000      2.000000
  0.059721  0.010557  0.000000      2.000000
  0.089582  0.000000  0.000000      2.000000
  0.119442 -0.010557  0.000000      2.000000
  0.149303 -0.021115  0.000000      2.000000
 -0.119442  0.073901  0.000000      2.000000
 -0.089582  0.063344  0.000000      2.000000
 -0.059721  0.052787  0.000000      2.000000
 -0.029861  0.042229  0.000000      2.000000
  0.000000  0.063344  0.000000      2.000000
  0.029861  0.052787  0.000000      2.000000
  0.059721  0.042229  0.000000      2.000000
  0.089582  0.031672  0.000000      2.000000
  0.119442  0.021115  0.000000      2.000000
  0.149303  0.010557  0.000000      2.000000
 -0.119442  0.105573  0.000000      2.000000
 -0.089582  0.095016  0.000000      2.000000
 -0.059721  0.084458  0.000000      2.000000
 -0.029861  0.073901  0.000000      2.000000
  0.000000  0.095016  0.000000      2.000000
  0.029861  0.084458  0.000000      2.000000
  0.059721  0.073901  0.000000      2.000000
  0.089582  0.063344  0.000000      2.000000
  0.119442  0.052787  0.000000      2.000000
  0.149303  0.042229  0.000000      2.000000
 -0.119442  0.137245  0.000000      2.000000
 -0.089582  0.126688  0.000000      2.000000
 -0.059721  0.116130  0.000000      2.000000
 -0.029861  0.105573  0.000000      2.000000
  0.000000  0.126688  0.000000      2.000000
  0.029861  0.116130  0.000000      2.000000
  0.059721  0.105573  0.000000      2.000000
  0.089582  0.095016  0.000000      2.000000
  0.119442  0.084458  0.000000      2.000000
  0.149303  0.073901  0.000000      2.000000
 -0.119442  0.168917  0.000000      2.000000
 -0.089582  0.158360  0.000000      2.000000
 -0.059721  0.147802  0.000000      2.000000
 -0.029861  0.137245  0.000000      2.000000
  0.000000  0.158360  0.000000      1.000000
  0.029861  0.147802  0.000000      2.000000
  0.059721  0.137245  0.000000      2.000000
  0.089582  0.126688  0.000000      2.000000
  0.119442  0.116130  0.000000      2.000000
  0.149303  0.105573  0.000000      1.000000
 -0.014930 -0.010557  0.025860      2.000000
  0.014930 -0.021115  0.025860      2.000000
  0.044791 -0.031672  0.025860      2.000000
  0.074651 -0.042229  0.025860      2.000000
  0.104512 -0.052787  0.025860      2.000000
  0.134373 -0.063344  0.025860      2.000000
 -0.134373  0.031672  0.025860      2.000000
 -0.104512  0.021115  0.025860      2.000000
 -0.074651  0.010557  0.025860      2.000000
 -0.044791 -0.000000  0.025860      2.000000
 -0.014930  0.021115  0.025860      2.000000
  0.014930  0.010557  0.025860      2.000000
  0.044791  0.000000  0.025860      2.000000
  0.074651 -0.010557  0.025860      2.000000
  0.104512 -0.021115  0.025860      2.000000
  0.134373 -0.031672  0.025860      2.000000
 -0.134373  0.063344  0.025860      2.000000
 -0.104512  0.052787  0.025860      2.000000
 -0.074651  0.042229  0.025860      2.000000
 -0.044791  0.031672  0.025860      2.000000
 -0.014930  0.052787  0.025860      2.000000
  0.014930  0.042229  0.025860      2.000000
  0.044791  0.031672  0.025860      2.000000
  0.074651  0.021115  0.025860      2.000000
  0.104512  0.010557  0.025860      2.000000
  0.134373  0.000000  0.025860      2.000000
 -0.134373  0.095016  0.025860      2.000000
 -0.104512  0.084458  0.025860      2.000000
 -0.074651  0.073901  0.025860      2.000000
 -0.044791  0.063344  0.025860      2.000000
 -0.014930  0.084458  0.025860      2.000000
  0.014930  0.073901  0.025860      2.000000
  0.044791  0.063344  0.025860      2.000000
  0.074651  0.052787  0.025860      2.000000
  0.104512  0.042229  0.025860      2.000000
  0.134373  0.031672  0.025860      2.000000
 -0.134373  0.126688  0.025860      2.000000
 -0.104512  0.116130  0.025860      2.000000
 -0.074651  0.105573  0.025860      2.000000
 -0.044791  0.095016  0.025860      2.000000
 -0.014930  0.116130  0.025860      2.000000
  0.014930  0.105573  0.025860      2.000000
  0.044791  0.095016  0.025860      2.000000
  0.074651  0.084458  0.025860      2.000000
  0.104512  0.073901  0.025860      2.000000
  0.134373  0.063344  0.025860      2.000000
 -0.134373  0.158360  0.025860      2.000000
 -0.104512  0.147802  0.025860      2.000000
 -0.074651  0.137245  0.025860      2.000000
 -0.044791  0.126688  0.025860      2.000000
 -0.014930  0.147802  0.025860      2.000000
  0.014930  0.137245  0.025860      2.000000
  0.044791  0.126688  0.025860      2.000000
  0.074651  0.116130  0.025860      2.000000
  0.104512  0.105573  0.025860      2.000000
  0.134373  0.095016  0.025860      2.000000
 -0.134373  0.190031  0.025860      2.000000
 -0.104512  0.179474  0.025860      2.000000
 -0.074651  0.168917  0.025860      2.000000
 -0.044791  0.158360  0.025860      2.000000
 -0.014930 -0.137245  0.025860      2.000000
  0.014930 -0.147802  0.025860      2.000000
  0.044791 -0.158360  0.025860      2.000000
  0.074651 -0.168917  0.025860      2.000000
  0.104512 -0.179474  0.025860      2.000000
  0.134373 -0.190031  0.025860      2.000000
 -0.134373 -0.095016  0.025860      2.000000
 -0.104512 -0.105573  0.025860      2.000000
 -0.074651 -0.116130  0.025860      2.000000
 -0.044791 -0.126688  0.025860      2.000000
 -0.014930 -0.105573  0.025860      2.000000
  0.014930 -0.116130  0.025860      2.000000
  0.044791 -0.126688  0.025860      2.000000
  0.074651 -0.137245  0.025860      2.000000
  0.104512 -0.147802  0.025860      2.000000
  0.134373 -0.158360  0.025860      2.000000
 -0.134373 -0.063344  0.025860      2.000000
 -0.104512 -0.073901  0.025860      2.000000
 -0.074651 -0.084458  0.025860      2.000000
 -0.044791 -0.095016  0.025860      2.000000
 -0.014930 -0.073901  0.025860      2.000000
  0.014930 -0.084458  0.025860      2.000000
  0.044791 -0.095016  0.025860      2.000000
  0.074651 -0.105573  0.025860      2.000000
  0.104512 -0.116130  0.025860      2.000000
  0.134373 -0.126688  0.025860      2.000000
 -0.134373 -0.031672  0.025860      2.000000
 -0.104512 -0.042229  0.025860      2.000000
 -0.074651 -0.052787  0.025860      2.000000
 -0.044791 -0.063344  0.025860      2.000000
 -0.014930 -0.042229  0.025860      2.000000
  0.014930 -0.052787  0.025860      2.000000
  0.044791 -0.063344  0.025860      2.000000
  0.074651 -0.073901  0.025860      2.000000
  0.104512 -0.084458  0.025860      2.000000
  0.134373 -0.095016  0.025860      2.000000
 -0.134373 -0.000000  0.025860      2.000000
 -0.104512 -0.010557  0.025860      2.000000
 -0.074651 -0.021115  0.025860      2.000000
 -0.044791 -0.031672  0.025860      2.000000
 -0.029861 -0.021115  0.051720      2.000000
  0.000000 -0.031672  0.051720      2.000000
  0.029861 -0.042229  0.051720      2.000000
  0.059721 -0.052787  0.051720      2.000000
  0.089582 -0.063344  0.051720      2.000000
  0.119442 -0.073901  0.051720      2.000000
 -0.149303  0.021115  0.051720      2.000000
 -0.119442  0.010557  0.051720      2.000000
 -0.089582 -0.000000  0.051720      2.000000
 -0.059721 -0.010557  0.051720      2.000000
 -0.029861  0.010557  0.051720      2.000000
  0.000000  0.000000  0.051720      2.000000
  0.029861 -0.010557  0.051720      2.000000
  0.059721 -0.021115  0.051720      2.000000
  0.089582 -0.031672  0.051720      2.000000
  0.119442 -0.042229  0.051720      2.000000
 -0.149303  0.052787  0.051720      2.000000
 -0.119442  0.042229  0.051720      2.000000
 -0.089582  0.031672  0.051720      2.000000
 -0.059721  0.021115  0.051720      2.000000
 -0.029861  0.042229  0.051720      2.000000
  0.000000  0.031672  0.051720      2.000000
  0.029861  0.021115  0.051720      2.000000
  0.059721  0.010557  0.051720      2.000000
  0.089582  0.000000  0.051720      2.000000
  0.119442 -0.010557  0.051720      2.000000
 -0.149303  0.084458  0.051720      2.000000
 -0.119442  0.073901  0.051720      2.000000
 -0.089582  0.063344  0.051720      2.000000
 -0.059721  0.052787  0.051720      2.000000
 -0.029861  0.073901  0.051720      2.000000
  0.000000  0.063344  0.051720      2.000000
  0.029861  0.052787  0.051720      2.000000
  0.059721  0.042229  0.051720      2.000000
  0.089582  0.031672  0.051720      2.000000
  0.119442  0.021115  0.051720      2.000000
 -0.149303  0.116130  0.051720      2.000000
 -0.119442  0.105573  0.051720      2.000000
 -0.089582  0.095016  0.051720      2.000000
 -0.059721  0.084458  0.051720      2.000000
 -0.029861  0.105573  0.051720      2.000000
  0.000000  0.095016  0.051720      2.000000
  0.029861  0.084458  0.051720      2.000000
  0.059721  0.073901  0.051720      2.000000
  0.089582  0.063344  0.051720      2.000000
  0.119442  0.052787  0.051720      2.000000
 -0.149303  0.147802  0.051720      2.000000
 -0.119442  0.137245  0.051720      2.000000
 -0.089582  0.126688  0.051720      2.000000
 -0.059721  0.116130  0.051720      2.000000
 -0.029861  0.137245  0.051720      2.000000
  0.000000  0.126688  0.051720      2.000000
  0.029861  0.116130  0.051720      2.000000
  0.059721  0.105573  0.051720      2.000000
  0.089582  0.095016  0.051720      2.000000
  0.119442  0.084458  0.051720      2.000000
 -0.149303  0.179474  0.051720      2.000000
 -0.119442  0.168917  0.051720      2.000000
 -0.089582  0.158360  0.051720      2.000000
 -0.059721  0.147802  0.051720      2.000000
 -0.029861 -0.147802  0.051720      2.000000
  0.000000 -0.158360  0.051720      2.000000
  0.029861 -0.168917  0.051720      2.000000
  0.059721 -0.179474  0.051720      2.000000
  0.089582 -0.190031  0.051720      2.000000
  0.119442 -0.200589  0.051720      2.000000
 -0.149303 -0.105573  0.051720      2.000000
 -0.119442 -0.116130  0.051720      2.000000
 -0.089582 -0.126688  0.051720      2.000000
 -0.059721 -0.137245  0.051720      2.000000
 -0.029861 -0.116130  0.051720      2.000000
  0.000000 -0.126688  0.051720      2.000000
  0.029861 -0.137245  0.051720      2.000000
  0.059721 -0.147802  0.051720      2.000000
  0.089582 -0.158360  0.051720      2.000000
  0.119442 -0.168917  0.051720      2.000000
 -0.149303 -0.073901  0.051720      2.000000
 -0.119442 -0.084458  0.051720      2.000000
 -0.089582 -0.095016  0.051720      2.000000
 -0.059721 -0.105573  0.051720      2.000000
 -0.029861 -0.084458  0.051720      2.000000
  0.000000 -0.095016  0.051720      2.000000
  0.029861 -0.105573  0.051720      2.000000
  0.059721 -0.116130  0.051720      2.000000
  0.089582 -0.126688  0.051720      2.000000
  0.119442 -0.137245  0.051720      2.000000
 -0.149303 -0.042229  0.051720      2.000000
 -0.119442 -0.052787  0.051720      2.000000
 -0.089582 -0.063344  0.051720      2.000000
 -0.059721 -0.073901  0.051720      2.000000
 -0.029861 -0.052787  0.051720      2.000000
  0.000000 -0.063344  0.051720      2.000000
  0.029861 -0.073901  0.051720      2.000000
  0.059721 -0.084458  0.051720      2.000000
  0.089582 -0.095016  0.051720      2.000000
  0.119442 -0.105573  0.051720      2.000000
 -0.149303 -0.010557  0.051720      2.000000
 -0.119442 -0.021115  0.051720      2.000000
 -0.089582 -0.031672  0.051720      2.000000
 -0.059721 -0.042229  0.051720      2.000000
 -0.044791 -0.031672  0.077580      2.000000
 -0.014930 -0.042229  0.077580      2.000000
  0.014930 -0.052787  0.077580      2.000000
  0.044791 -0.063344  0.077580      2.000000
  0.074651 -0.073901  0.077580      2.000000
  0.104512 -0.084458  0.077580      2.000000
 -0.164233  0.010557  0.077580      2.000000
 -0.134373 -0.000000  0.077580      2.000000
 -0.104512 -0.010557  0.077580      2.000000
 -0.074651 -0.021115  0.077580      2.000000
 -0.044791  0.000000  0.077580      2.000000
 -0.014930 -0.010557  0.077580      2.000000
  0.014930 -0.021115  0.077580      2.000000
  0.044791 -0.031672  0.077580      2.000000
  0.074651 -0.042229  0.077580      2.000000
  0.104512 -0.052786  0.077580      2.000000
 -0.164233  0.042229  0.077580      2.000000
 -0.134373  0.031672  0.077580      2.000000
 -0.104512  0.021115  0.077580      2.000000
 -0.074651  0.010557  0.077580      2.000000
 -0.044791  0.031672  0.077580      2.000000
 -0.014930  0.021115  0.077580      2.000000
  0.014930  0.010557  0.077580      2.000000
  0.044791  0.000000  0.077580      2.000000
  0.074651 -0.010557  0.077580      2.000000
  0.104512 -0.021115  0.077580      2.000000
 -0.164233  0.073901  0.077580      2.000000
 -0.134373  0.063344  0.077580      2.000000
 -0.104512  0.052787  0.077580      2.000000
 -0.074651  0.042229  0.077580      2.000000
 -0.044791  0.063344  0.077580      2.000000
 -0.014930  0.052787  0.077580      2.000000
  0.014930  0.042229  0.077580      2.000000
  0.044791  0.031672  0.077580      2.000000
  0.074651  0.021115  0.077580      2.000000
  0.104512  0.010557  0.077580      2.000000
 -0.164233  0.105573  0.077580      2.000000
 -0.134373  0.095016  0.077580      2.000000
 -0.104512  0.084458  0.077580      2.000000
 -0.074651  0.073901  0.077580      2.000000
 -0.044791  0.095016  0.077580      2.000000
 -0.014930  0.084458  0.077580      2.000000
  0.014930  0.073901  0.077580      2.000000
  0.044791  0.063344  0.077580      2.000000
  0.074651  0.052787  0.077580      2.000000
  0.104512  0.042229  0.077580      2.000000
 -0.164233  0.137245  0.077580      2.000000
 -0.134373  0.126688  0.077580      2.000000
 -0.104512  0.116130  0.077580      2.000000
 -0.074651  0.105573  0.077580      2.000000
 -0.044791  0.126688  0.077580      2.000000
 -0.014930  0.116130  0.077580      2.000000
  0.014930  0.105573  0.077580      2.000000
  0.044791  0.095016  0.077580      2.000000
  0.074651  0.084458  0.077580      2.000000
  0.104512  0.073901  0.077580      2.000000
 -0.164233  0.168917  0.077580      2.000000
 -0.134373  0.158360  0.077580      2.000000
 -0.104512  0.147802  0.077580      2.000000
 -0.074651  0.137245  0.077580      2.000000
 -0.044791 -0.158360  0.077580      2.000000
 -0.014930 -0.168917  0.077580      2.000000
  0.014930 -0.179474  0.077580      2.000000
  0.044791 -0.190031  0.077580      2.000000
  0.074651 -0.200589  0.077580      2.000000
  0.104512 -0.211146  0.077580      2.000000
 -0.164233 -0.116130  0.077580      2.000000
 -0.134373 -0.126688  0.077580      2.000000
 -0.104512 -0.137245  0.077580      2.000000
 -0.074651 -0.147802  0.077580      2.000000
 -0.044791 -0.126688  0.077580      2.000000
 -0.014930 -0.137245  0.077580      2.000000
  0.014930 -0.147802  0.077580      2.000000
  0.044791 -0.158360  0.077580      2.000000
  0.074651 -0.168917  0.077580      2.000000
  0.104512 -0.179474  0.077580      2.000000
 -0.164233 -0.084458  0.077580      2.000000
 -0.134373 -0.095016  0.077580      2.000000
 -0.104512 -0.105573  0.077580      2.000000
 -0.074651 -0.116130  0.077580      2.000000
 -0.044791 -0.095016  0.077580      2.000000
 -0.014930 -0.105573  0.077580      2.000000
  0.014930 -0.116130  0.077580      2.000000
  0.044791 -0.126688  0.077580      2.000000
  0.074651 -0.137245  0.077580      2.000000
  0.104512 -0.147802  0.077580      2.000000
 -0.164233 -0.052787  0.077580      2.000000
 -0.134373 -0.063344  0.077580      2.000000
 -0.104512 -0.073901  0.077580      2.000000
 -0.074651 -0.084458  0.077580      2.000000
 -0.044791 -0.063344  0.077580      2.000000
 -0.014930 -0.073901  0.077580      2.000000
  0.014930 -0.084458  0.077580      2.000000
  0.044791 -0.095016  0.077580      2.000000
  0.074651 -0.105573  0.077580      2.000000
  0.104512 -0.116130  0.077580      2.000000
 -0.164233 -0.021115  0.077580      2.000000
 -0.134373 -0.031672  0.077580      2.000000
 -0.104512 -0.042229  0.077580      2.000000
 -0.074651 -0.052787  0.077580      2.000000
 -0.059721 -0.042229  0.103440      2.000000
 -0.029861 -0.052787  0.103440      2.000000
  0.000000 -0.063344  0.103440      2.000000
  0.029861 -0.073901  0.103440      2.000000
  0.059721 -0.084458  0.103440      2.000000
  0.089582 -0.095016  0.103440      2.000000
 -0.179163 -0.000000  0.103440      2.000000
 -0.149303 -0.010557  0.103440      2.000000
 -0.119442 -0.021115  0.103440      2.000000
 -0.089582 -0.031672  0.103440      2.000000
 -0.059721 -0.010557  0.103440      2.000000
 -0.029861 -0.021115  0.103440      2.000000
  0.000000 -0.031672  0.103440      2.000000
  0.029861 -0.042229  0.103440      2.000000
  0.059721 -0.052786  0.103440      2.000000
  0.089582 -0.063344  0.103440      2.000000
 -0.179163  0.031672  0.103440      2.000000
 -0.149303  0.021115  0.103440      2.000000
 -0.119442  0.010557  0.103440      2.000000
 -0.089582  0.000000  0.103440      2.000000
 -0.059721  0.021115  0.103440      2.000000
 -0.029861  0.010557  0.103440      2.000000
  0.000000  0.000000  0.103440      2.000000
  0.029861 -0.010557  0.103440      2.000000
  0.059721 -0.021115  0.103440      2.000000
  0.089582 -0.031672  0.103440      2.000000
 -0.179163  0.063344  0.103440      2.000000
 -0.149303  0.052787  0.103440      2.000000
 -0.119442  0.042229  0.103440      2.000000
 -0.089582  0.031672  0.103440      2.000000
 -0.059721  0.052787  0.103440      2.000000
 -0.029861  0.042229  0.103440      2.000000
  0.000000  0.031672  0.103440      2.000000
  0.029861  0.021115  0.103440      2.000000
  0.059721  0.010557  0.103440      2.000000
  0.089582  0.000000  0.103440      2.000000
 -0.179163  0.095016  0.103440      2.000000
 -0.149303  0.084458  0.103440      2.000000
 -0.119442  0.073901  0.103440      2.000000
 -0.089582  0.063344  0.103440      2.000000
 -0.059721  0.084458  0.103440      2.000000
 -0.029861  0.073901  0.103440      2.000000
  0.000000  0.063344  0.103440      2.000000
  0.029861  0.052787  0.103440      2.000000
  0.059721  0.042229  0.103440      2.000000
  0.089582  0.031672  0.103440      2.000000
 -0.179163  0.126688  0.103440      2.000000
 -0.149303  0.116130  0.103440      2.000000
 -0.119442  0.105573  0.103440      2.000000
 -0.089582  0.095016  0.103440      2.000000
 -0.059721  0.116130  0.103440      2.000000
 -0.029861  0.105573  0.103440      2.000000
  0.000000  0.095016  0.103440      2.000000
  0.029861  0.084458  0.103440      2.000000
  0.059721  0.073901  0.103440      2.000000
  0.089582  0.063344  0.103440      2.000000
 -0.179163  0.158360  0.103440      2.000000
 -0.149303  0.147802  0.103440      2.000000
 -0.119442  0.137245  0.103440      2.000000
 -0.089582  0.126688  0.103440      2.000000
 -0.059721 -0.168917  0.103440      2.000000
 -0.029861 -0.179474  0.103440      2.000000
  0.000000 -0.190031  0.103440      2.000000
  0.029861 -0.200589  0.103440      2.000000
  0.059721 -0.211146  0.103440      2.000000
  0.089582 -0.221703  0.103440      2.000000
 -0.179163 -0.126688  0.103440      2.000000
 -0.149303 -0.137245  0.103440      2.000000
 -0.119442 -0.147802  0.103440      2.000000
 -0.089582 -0.158360  0.103440      2.000000
 -0.059721 -0.137245  0.103440      2.000000
 -0.029861 -0.147802  0.103440      2.000000
  0.000000 -0.158360  0.103440      2.000000
  0.029861 -0.168917  0.103440      2.000000
  0.059721 -0.179474  0.103440      2.000000
  0.089582 -0.190031  0.103440      2.000000
 -0.179163 -0.095016  0.103440      2.000000
 -0.149303 -0.105573  0.103440      2.000000
 -0.119442 -0.116130  0.103440      2.000000
 -0.089582 -0.126688  0.103440      2.000000
 -0.059721 -0.105573  0.103440      2.000000
 -0.029861 -0.116130  0.103440      2.000000
  0.000000 -0.126688  0.103440      2.000000
  0.029861 -0.137245  0.103440      2.000000
  0.059721 -0.147802  0.103440      2.000000
  0.089582 -0.158360  0.103440      2.000000
 -0.179163 -0.063344  0.103440      2.000000
 -0.149303 -0.073901  0.103440      2.000000
 -0.119442 -0.084458  0.103440      2.000000
 -0.089582 -0.095016  0.103440      2.000000
 -0.059721 -0.073901  0.103440      2.000000
 -0.029861 -0.084458  0.103440      2.000000
  0.000000 -0.095016  0.103440      2.000000
  0.029861 -0.105573  0.103440      2.000000
  0.059721 -0.116130  0.103440      2.000000
  0.089582 -0.126688  0.103440      2.000000
 -0.179163 -0.031672  0.103440      2.000000
 -0.149303 -0.042229  0.103440      2.000000
 -0.119442 -0.052787  0.103440      2.000000
 -0.089582 -0.063344  0.103440      2.000000
 -0.074651 -0.052787  0.129300      1.000000
 -0.044791 -0.063344  0.129300      2.000000
 -0.014930 -0.073901  0.129300      2.000000
  0.014930 -0.084458  0.129300      2.000000
  0.044791 -0.095016  0.129300      2.000000
  0.074651 -0.105573  0.129300      1.000000
 -0.074651 -0.021115  0.129300      2.000000
 -0.044791 -0.031672  0.129300      2.000000
 -0.014930 -0.042229  0.129300      2.000000
  0.014930 -0.052787  0.129300      2.000000
  0.044791 -0.063344  0.129300      2.000000
  0.074651 -0.073901  0.129300      2.000000
 -0.194094  0.021115  0.129300      2.000000
 -0.164233  0.010557  0.129300      2.000000
 -0.134373 -0.000000  0.129300      2.000000
 -0.104512 -0.010557  0.129300      2.000000
 -0.074651  0.010557  0.129300      2.000000
 -0.044791  0.000000  0.129300      2.000000
 -0.014930 -0.010557  0.129300      2.000000
  0.014930 -0.021115  0.129300      2.000000
  0.044791 -0.031672  0.129300      2.000000
  0.074651 -0.042229  0.129300      2.000000
 -0.194094  0.052787  0.129300      2.000000
 -0.164233  0.042229  0.129300      2.000000
 -0.134373  0.031672  0.129300      2.000000
 -0.104512  0.021115  0.129300      2.000000
 -0.074651  0.042229  0.129300      2.000000
 -0.044791  0.031672  0.129300      2.000000
 -0.014930  0.021115  0.129300      2.000000
  0.014930  0.010557  0.129300      2.000000
  0.044791  0.000000  0.129300      2.000000
  0.074651 -0.010557  0.129300      2.000000
 -0.194094  0.084458  0.129300      2.000000
 -0.164233  0.073901  0.129300      2.000000
 -0.134373  0.063344  0.129300      2.000000
 -0.104512  0.052787  0.129300      2.000000
 -0.074651  0.073901  0.129300      2.000000
 -0.044791  0.063344  0.129300      2.000000
 -0.014930  0.052787  0.129300      2.000000
  0.014930  0.042229  0.129300      2.000000
  0.044791  0.031672  0.129300      2.000000
  0.074651  0.021115  0.129300      2.000000
 -0.194094  0.116130  0.129300      2.000000
 -0.164233  0.105573  0.129300      2.000000
 -0.134373  0.095016  0.129300      2.000000
 -0.104512  0.084458  0.129300      2.000000
 -0.074651  0.105573  0.129300      1.000000
 -0.044791  0.095016  0.129300      2.000000
 -0.014930  0.084458  0.129300      2.000000
  0.014930  0.073901  0.129300      2.000000
  0.044791  0.063344  0.129300      2.000000
  0.074651  0.052787  0.129300      1.000000



--------------------------------------------------------------------------------------------------------




 Dimension of arrays:
   k-points           NKPTS =    504   k-points in BZ     NKDIM =    504   number of bands    NBANDS=      8
   number of dos      NEDOS =    301   number of ions     NIONS =      2
   non local maximal  LDIM  =      4   non local SUM 2l+1 LMDIM =      8
   total plane-waves  NPLWV =   4096
   max r-space proj   IRMAX =   1662   max aug-charges    IRDMAX=  26991
   dimension x,y,z NGX =    16 NGY =   16 NGZ =   16
   dimension x,y,z NGXF=    32 NGYF=   32 NGZF=   32
   support grid    NGXF=    64 NGYF=   64 NGZF=   64
   ions per type =               2
   NGX,Y,Z   is equivalent  to a cutoff of   6.88,  6.88,  6.88 a.u.
   NGXF,Y,Z  is equivalent  to a cutoff of  13.76, 13.76, 13.76 a.u.

 SYSTEM =  unknown system
 POSCAR =  Si2

 Startparameter for this run:
   NWRITE =      2    write-flag & timer
   PREC   = normal    normal or accurate (medium, high low for compatibility)
   ISTART =      0    job   : 0-new  1-cont  2-samecut
   ICHARG =      2    charge: 1-file 2-atom 10-const
   ISPIN  =      1    spin polarized calculation?
   LNONCOLLINEAR =      F non collinear calculations
   LSORBIT =      F    spin-orbit coupling
   INIWAV =      1    electr: 0-lowe 1-rand  2-diag
   LASPH  =      T    aspherical Exc in radial PAW
   METAGGA=      F    non-selfconsistent MetaGGA calc.

 Electronic Relaxation 1
   ENCUT  =  245.3 eV  18.03 Ry    4.25 a.u.   4.94  4.94  4.94*2*pi/ulx,y,z
   ENINI  =  245.3     initial cutoff
   ENAUG  = 1360.0 eV  augmentation charge cutoff
   NELM   =    500;   NELMIN=  4; NELMDL= -5     # of ELM steps
   EDIFF  = 0.1E-04   stopping-criterion for ELM
   LREAL  =      T    real-space projection
   NLSPLINE    = F    spline interpolate recip. space projectors
   LCOMPAT=      F    compatible to vasp.4.4
   GGA_COMPAT  = T    GGA compatible to vasp.4.4-vasp.4.6
   LMAXPAW     = -100 max onsite density
   LMAXMIX     =    2 max onsite mixed and CHGCAR
   VOSKOWN=      0    Vosko Wilk Nusair interpolation
   ROPT   =   -0.00050
 Ionic relaxation
   EDIFFG = -.2E-01   stopping-criterion for IOM
   NSW    =      3    number of steps for IOM
   NBLOCK =      1;   KBLOCK =      1    inner block; outer block
   IBRION =      0    ionic relax: 0-MD 1-quasi-New 2-CG
   NFREE  =      0    steps in history (QN), initial steepest desc. (CG)
   ISIF   =      2    stress and relaxation
   IWAVPR =     12    prediction:  0-non 1-charg 2-wave 3-comb
   ISYM   =      0    0-nonsym 1-usesym 2-fastsym
   LCORR  =      T    Harris-Foulkes like correction to forces

   POTIM  = 2.0000    time-step for ionic-motion
   TEIN   =  300.0    initial temperature
   TEBEG  =  300.0;   TEEND  = 300.0 temperature during run
   SMASS  =   0.02    Nose mass-parameter (am)
   estimated Nose-frequenzy (Omega)   =  0.79E+14 period in steps = 40.00 mass=   0.185E-29a.u.
   SCALEE = 1.0000    scale energy and forces
   NPACO  =    256;   APACO  = 16.0  distance and # of slots for P.C.
   PSTRESS=    0.0 pullay stress

  Mass of Ions in am
   POMASS =  28.09
  Ionic Valenz
   ZVAL   =   4.00
  Atomic Wigner-Seitz radii
   RWIGS  =  -1.00
  virtual crystal weights
   VCA    =   1.00
   NELECT =       8.0000    total number of electrons
   NUPDOWN=      -1.0000    fix difference up-down

 DOS related values:
   EMIN   =  10.00;   EMAX   =-10.00  energy-range for DOS
   EFERMI =   0.00
   ISMEAR =     0;   SIGMA  =   0.20  broadening in eV -4-tet -1-fermi 0-gaus

 Electronic relaxation 2 (details)
   IALGO  =     68    algorithm
   LDIAG  =      T    sub-space diagonalisation (order eigenvalues)
   LSUBROT=      F    optimize rotation matrix (better conditioning)
   TURBO    =      0    0=normal 1=particle mesh
   IRESTART =      0    0=no restart 2=restart with 2 vectors
   NREBOOT  =      0    no. of reboots
   NMIN     =      0    reboot dimension
   EREF     =   0.00    reference energy to select bands
   IMIX   =      4    mixing-type and parameters
     AMIX     =   0.40;   BMIX     =  1.00
     AMIX_MAG =   1.60;   BMIX_MAG =  1.00
     AMIN     =   0.10
     WC   =   100.;   INIMIX=   1;  MIXPRE=   1;  MAXMIX=  20

 Intra band minimization:
   WEIMIN = 0.0010     energy-eigenvalue tresh-hold
   EBREAK =  0.31E-06  absolut break condition
   DEPER  =   0.30     relativ break condition

   TIME   =   0.40     timestep for ELM

  volume/ion in A,a.u.               =      20.44       137.96
  Fermi-wavevector in a.u.,A,eV,Ry     =   0.950397  1.795990 12.289528  0.903255
  Thomas-Fermi vector in A             =   2.078770

 Write flags
   LWAVE        =      T    write WAVECAR
   LDOWNSAMPLE  =      F    k-point downsampling of WAVECAR
   LCHARG       =      F    write CHGCAR
   LVTOT        =      T    write LOCPOT, total local potential
   LVHAR        =      F    write LOCPOT, Hartree potential only
   LELF         =      F    write electronic localiz. function (ELF)
   LORBIT       =     11    0 simple, 1 ext, 2 COOP (PROOUT), +10 PAW based schemes


 Dipole corrections
   LMONO  =      F    monopole corrections only (constant potential shift)
   LDIPOL =      F    correct potential (dipole corrections)
   IDIPOL =      0    1-x, 2-y, 3-z, 4-all directions
   EPSILON=  1.0000000 bulk dielectric constant

 Exchange correlation treatment:
   GGA     =    PS    GGA type
   LEXCH   =    14    internal setting for exchange type
   VOSKOWN=      0    Vosko Wilk Nusair interpolation
   LHFCALC =     F    Hartree Fock is set to
   LHFONE  =     F    Hartree Fock one center treatment
   AEXX    =    0.0000 exact exchange contribution

 Linear response parameters
   LEPSILON=     F    determine dielectric tensor
   LRPA    =     F    only Hartree local field effects (RPA)
   LNABLA  =     F    use nabla operator in PAW spheres
   LVEL    =     F    velocity operator in full k-point grid
   LINTERFAST=   F  fast interpolation
   KINTER  =     0    interpolate to denser k-point grid
   CSHIFT  =0.1000    complex shift for real part using Kramers Kronig
   OMEGAMAX=  -1.0    maximum frequency
   DEG_THRESHOLD= 0.2000000E-02 threshold for treating states as degnerate
   RTIME   =   -0.100 relaxation time in fs
  (WPLASMAI=    0.000 imaginary part of plasma frequency in eV, 0.658/RTIME)
   DFIELD  = 0.0000000 0.0000000 0.0000000 field for delta impulse in time

 Orbital magnetization related:
   ORBITALMAG=     F  switch on orbital magnetization
   LCHIMAG   =     F  perturbation theory with respect to B field
   DQ        =  0.001000  dq finite difference perturbation B field
   LLRAUG    =     F  two centre corrections for induced B field



--------------------------------------------------------------------------------------------------------


 molecular dynamics for ions
   using nose mass (canonical ensemble)
 charge density and potential will be updated during run
 non-spin polarized calculation
 RMM-DIIS sequential band-by-band and
  variant of blocked Davidson during initial phase
 perform sub-space diagonalisation
    before iterative eigenvector-optimisation
 modified Broyden-mixing scheme, WC =      100.0
 initial mixing is a Kerker type mixing with AMIX =  0.4000 and BMIX =      1.0000
 Hartree-type preconditioning will be used
 using additional bands            4
 real space projection scheme for non local part
 use partial core corrections
 calculate Harris-corrections to forces
   (improved forces if not selfconsistent)
 use gradient corrections
 use of overlap-Matrix (Vanderbilt PP)
 Gauss-broadening in eV      SIGMA  =   0.20


--------------------------------------------------------------------------------------------------------


  energy-cutoff  :      245.34
  volume of cell :       40.89
      direct lattice vectors                 reciprocal lattice vectors
     3.348898000  0.000000000  1.933487000     0.298605691 -0.105573000  0.000000000
     1.116299000  3.157372000  1.933487000     0.000000000  0.316719094  0.000000000
     0.000000000  0.000000000  3.866975000    -0.149302807 -0.105573020  0.258600069

  length of vectors
     3.866974243  3.866974707  3.866975000     0.316719145  0.316719094  0.316719096



 k-points in units of 2pi/SCALE and weight: read from INCAR
   0.00000000  0.00000000  0.00000000       0.001
   0.02986057 -0.01055730  0.00000000       0.002
   0.05972114 -0.02111460  0.00000000       0.002
   0.08958171 -0.03167190  0.00000000       0.002
   0.11944228 -0.04222920  0.00000000       0.002
   0.14930285 -0.05278650  0.00000000       0.001
   0.00000000  0.03167191  0.00000000       0.002
   0.02986057  0.02111461  0.00000000       0.002
   0.05972114  0.01055731  0.00000000       0.002
   0.08958171  0.00000001  0.00000000       0.002
   0.11944228 -0.01055729  0.00000000       0.002
   0.14930285 -0.02111459  0.00000000       0.002
  -0.11944228  0.07390111  0.00000000       0.002
  -0.08958171  0.06334381  0.00000000       0.002
  -0.05972114  0.05278651  0.00000000       0.002
  -0.02986057  0.04222921  0.00000000       0.002
   0.00000000  0.06334382  0.00000000       0.002
   0.02986057  0.05278652  0.00000000       0.002
   0.05972114  0.04222922  0.00000000       0.002
   0.08958171  0.03167192  0.00000000       0.002
   0.11944228  0.02111462  0.00000000       0.002
   0.14930285  0.01055732  0.00000000       0.002
  -0.11944228  0.10557302  0.00000000       0.002
  -0.08958171  0.09501572  0.00000000       0.002
  -0.05972114  0.08445842  0.00000000       0.002
  -0.02986057  0.07390112  0.00000000       0.002
   0.00000000  0.09501573  0.00000000       0.002
   0.02986057  0.08445843  0.00000000       0.002
   0.05972114  0.07390113  0.00000000       0.002
   0.08958171  0.06334383  0.00000000       0.002
   0.11944228  0.05278653  0.00000000       0.002
   0.14930285  0.04222923  0.00000000       0.002
  -0.11944228  0.13724493  0.00000000       0.002
  -0.08958171  0.12668763  0.00000000       0.002
  -0.05972114  0.11613033  0.00000000       0.002
  -0.02986057  0.10557303  0.00000000       0.002
   0.00000000  0.12668764  0.00000000       0.002
   0.02986057  0.11613034  0.00000000       0.002
   0.05972114  0.10557304  0.00000000       0.002
   0.08958171  0.09501574  0.00000000       0.002
   0.11944228  0.08445844  0.00000000       0.002
   0.14930285  0.07390114  0.00000000       0.002
  -0.11944228  0.16891684  0.00000000       0.002
  -0.08958171  0.15835954  0.00000000       0.002
  -0.05972114  0.14780224  0.00000000       0.002
  -0.02986057  0.13724494  0.00000000       0.002
   0.00000000  0.15835955  0.00000000       0.001
   0.02986057  0.14780225  0.00000000       0.002
   0.05972114  0.13724495  0.00000000       0.002
   0.08958171  0.12668765  0.00000000       0.002
   0.11944228  0.11613035  0.00000000       0.002
   0.14930285  0.10557305  0.00000000       0.001
  -0.01493028 -0.01055730  0.02586001       0.002
   0.01493029 -0.02111460  0.02586001       0.002
   0.04479086 -0.03167190  0.02586001       0.002
   0.07465143 -0.04222920  0.02586001       0.002
   0.10451200 -0.05278650  0.02586001       0.002
   0.13437256 -0.06334380  0.02586001       0.002
  -0.13437256  0.03167190  0.02586001       0.002
  -0.10451199  0.02111460  0.02586001       0.002
  -0.07465142  0.01055730  0.02586001       0.002
  -0.04479085 -0.00000000  0.02586001       0.002
  -0.01493028  0.02111461  0.02586001       0.002
   0.01493029  0.01055731  0.02586001       0.002
   0.04479086  0.00000001  0.02586001       0.002
   0.07465143 -0.01055729  0.02586001       0.002
   0.10451200 -0.02111459  0.02586001       0.002
   0.13437256 -0.03167189  0.02586001       0.002
  -0.13437256  0.06334381  0.02586001       0.002
  -0.10451199  0.05278651  0.02586001       0.002
  -0.07465142  0.04222921  0.02586001       0.002
  -0.04479085  0.03167191  0.02586001       0.002
  -0.01493028  0.05278652  0.02586001       0.002
   0.01493029  0.04222922  0.02586001       0.002
   0.04479086  0.03167192  0.02586001       0.002
   0.07465143  0.02111462  0.02586001       0.002
   0.10451200  0.01055732  0.02586001       0.002
   0.13437256  0.00000002  0.02586001       0.002
  -0.13437256  0.09501572  0.02586001       0.002
  -0.10451199  0.08445842  0.02586001       0.002
  -0.07465142  0.07390112  0.02586001       0.002
  -0.04479085  0.06334382  0.02586001       0.002
  -0.01493028  0.08445843  0.02586001       0.002
   0.01493029  0.07390113  0.02586001       0.002
   0.04479086  0.06334383  0.02586001       0.002
   0.07465143  0.05278653  0.02586001       0.002
   0.10451200  0.04222923  0.02586001       0.002
   0.13437256  0.03167193  0.02586001       0.002
  -0.13437256  0.12668763  0.02586001       0.002
  -0.10451199  0.11613033  0.02586001       0.002
  -0.07465142  0.10557303  0.02586001       0.002
  -0.04479085  0.09501573  0.02586001       0.002
  -0.01493028  0.11613034  0.02586001       0.002
   0.01493029  0.10557304  0.02586001       0.002
   0.04479086  0.09501574  0.02586001       0.002
   0.07465143  0.08445844  0.02586001       0.002
   0.10451200  0.07390114  0.02586001       0.002
   0.13437256  0.06334384  0.02586001       0.002
  -0.13437256  0.15835954  0.02586001       0.002
  -0.10451199  0.14780224  0.02586001       0.002
  -0.07465142  0.13724494  0.02586001       0.002
  -0.04479085  0.12668764  0.02586001       0.002
  -0.01493028  0.14780225  0.02586001       0.002
   0.01493029  0.13724495  0.02586001       0.002
   0.04479086  0.12668765  0.02586001       0.002
   0.07465143  0.11613035  0.02586001       0.002
   0.10451200  0.10557305  0.02586001       0.002
   0.13437256  0.09501575  0.02586001       0.002
  -0.13437256  0.19003145  0.02586001       0.002
  -0.10451199  0.17947415  0.02586001       0.002
  -0.07465142  0.16891685  0.02586001       0.002
  -0.04479085  0.15835955  0.02586001       0.002
  -0.01493028 -0.13724494  0.02586001       0.002
   0.01493029 -0.14780224  0.02586001       0.002
   0.04479086 -0.15835954  0.02586001       0.002
   0.07465143 -0.16891684  0.02586001       0.002
   0.10451200 -0.17947414  0.02586001       0.002
   0.13437256 -0.19003144  0.02586001       0.002
  -0.13437256 -0.09501574  0.02586001       0.002
  -0.10451199 -0.10557304  0.02586001       0.002
  -0.07465142 -0.11613034  0.02586001       0.002
  -0.04479085 -0.12668764  0.02586001       0.002
  -0.01493028 -0.10557303  0.02586001       0.002
   0.01493029 -0.11613033  0.02586001       0.002
   0.04479086 -0.12668763  0.02586001       0.002
   0.07465143 -0.13724493  0.02586001       0.002
   0.10451200 -0.14780223  0.02586001       0.002
   0.13437256 -0.15835953  0.02586001       0.002
  -0.13437256 -0.06334383  0.02586001       0.002
  -0.10451199 -0.07390113  0.02586001       0.002
  -0.07465142 -0.08445843  0.02586001       0.002
  -0.04479085 -0.09501573  0.02586001       0.002
  -0.01493028 -0.07390112  0.02586001       0.002
   0.01493029 -0.08445842  0.02586001       0.002
   0.04479086 -0.09501572  0.02586001       0.002
   0.07465143 -0.10557302  0.02586001       0.002
   0.10451200 -0.11613032  0.02586001       0.002
   0.13437256 -0.12668762  0.02586001       0.002
  -0.13437256 -0.03167192  0.02586001       0.002
  -0.10451199 -0.04222922  0.02586001       0.002
  -0.07465142 -0.05278652  0.02586001       0.002
  -0.04479085 -0.06334382  0.02586001       0.002
  -0.01493028 -0.04222921  0.02586001       0.002
   0.01493029 -0.05278651  0.02586001       0.002
   0.04479086 -0.06334381  0.02586001       0.002
   0.07465143 -0.07390111  0.02586001       0.002
   0.10451200 -0.08445841  0.02586001       0.002
   0.13437256 -0.09501571  0.02586001       0.002
  -0.13437256 -0.00000001  0.02586001       0.002
  -0.10451199 -0.01055731  0.02586001       0.002
  -0.07465142 -0.02111461  0.02586001       0.002
  -0.04479085 -0.03167191  0.02586001       0.002
  -0.02986056 -0.02111460  0.05172001       0.002
   0.00000001 -0.03167190  0.05172001       0.002
   0.02986058 -0.04222920  0.05172001       0.002
   0.05972115 -0.05278650  0.05172001       0.002
   0.08958171 -0.06334380  0.05172001       0.002
   0.11944228 -0.07390110  0.05172001       0.002
  -0.14930284  0.02111460  0.05172001       0.002
  -0.11944227  0.01055730  0.05172001       0.002
  -0.08958170 -0.00000000  0.05172001       0.002
  -0.05972113 -0.01055730  0.05172001       0.002
  -0.02986056  0.01055731  0.05172001       0.002
   0.00000001  0.00000001  0.05172001       0.002
   0.02986058 -0.01055729  0.05172001       0.002
   0.05972115 -0.02111459  0.05172001       0.002
   0.08958171 -0.03167189  0.05172001       0.002
   0.11944228 -0.04222919  0.05172001       0.002
  -0.14930284  0.05278651  0.05172001       0.002
  -0.11944227  0.04222921  0.05172001       0.002
  -0.08958170  0.03167191  0.05172001       0.002
  -0.05972113  0.02111461  0.05172001       0.002
  -0.02986056  0.04222921  0.05172001       0.002
   0.00000001  0.03167191  0.05172001       0.002
   0.02986058  0.02111461  0.05172001       0.002
   0.05972115  0.01055731  0.05172001       0.002
   0.08958171  0.00000001  0.05172001       0.002
   0.11944228 -0.01055729  0.05172001       0.002
  -0.14930284  0.08445841  0.05172001       0.002
  -0.11944227  0.07390111  0.05172001       0.002
  -0.08958170  0.06334381  0.05172001       0.002
  -0.05972113  0.05278651  0.05172001       0.002
  -0.02986056  0.07390112  0.05172001       0.002
   0.00000001  0.06334382  0.05172001       0.002
   0.02986058  0.05278652  0.05172001       0.002
   0.05972115  0.04222922  0.05172001       0.002
   0.08958171  0.03167192  0.05172001       0.002
   0.11944228  0.02111462  0.05172001       0.002
  -0.14930284  0.11613032  0.05172001       0.002
  -0.11944227  0.10557302  0.05172001       0.002
  -0.08958170  0.09501572  0.05172001       0.002
  -0.05972113  0.08445842  0.05172001       0.002
  -0.02986056  0.10557303  0.05172001       0.002
   0.00000001  0.09501573  0.05172001       0.002
   0.02986058  0.08445843  0.05172001       0.002
   0.05972115  0.07390113  0.05172001       0.002
   0.08958171  0.06334383  0.05172001       0.002
   0.11944228  0.05278653  0.05172001       0.002
  -0.14930284  0.14780223  0.05172001       0.002
  -0.11944227  0.13724493  0.05172001       0.002
  -0.08958170  0.12668763  0.05172001       0.002
  -0.05972113  0.11613033  0.05172001       0.002
  -0.02986056  0.13724494  0.05172001       0.002
   0.00000001  0.12668764  0.05172001       0.002
   0.02986058  0.11613034  0.05172001       0.002
   0.05972115  0.10557304  0.05172001       0.002
   0.08958171  0.09501574  0.05172001       0.002
   0.11944228  0.08445844  0.05172001       0.002
  -0.14930284  0.17947414  0.05172001       0.002
  -0.11944227  0.16891684  0.05172001       0.002
  -0.08958170  0.15835954  0.05172001       0.002
  -0.05972113  0.14780224  0.05172001       0.002
  -0.02986056 -0.14780224  0.05172001       0.002
   0.00000001 -0.15835954  0.05172001       0.002
   0.02986058 -0.16891684  0.05172001       0.002
   0.05972115 -0.17947414  0.05172001       0.002
   0.08958171 -0.19003144  0.05172001       0.002
   0.11944228 -0.20058874  0.05172001       0.002
  -0.14930284 -0.10557304  0.05172001       0.002
  -0.11944227 -0.11613034  0.05172001       0.002
  -0.08958170 -0.12668764  0.05172001       0.002
  -0.05972113 -0.13724494  0.05172001       0.002
  -0.02986056 -0.11613033  0.05172001       0.002
   0.00000001 -0.12668763  0.05172001       0.002
   0.02986058 -0.13724493  0.05172001       0.002
   0.05972115 -0.14780223  0.05172001       0.002
   0.08958171 -0.15835953  0.05172001       0.002
   0.11944228 -0.16891683  0.05172001       0.002
  -0.14930284 -0.07390113  0.05172001       0.002
  -0.11944227 -0.08445843  0.05172001       0.002
  -0.08958170 -0.09501573  0.05172001       0.002
  -0.05972113 -0.10557303  0.05172001       0.002
  -0.02986056 -0.08445842  0.05172001       0.002
   0.00000001 -0.09501572  0.05172001       0.002
   0.02986058 -0.10557302  0.05172001       0.002
   0.05972115 -0.11613032  0.05172001       0.002
   0.08958171 -0.12668762  0.05172001       0.002
   0.11944228 -0.13724492  0.05172001       0.002
  -0.14930284 -0.04222922  0.05172001       0.002
  -0.11944227 -0.05278652  0.05172001       0.002
  -0.08958170 -0.06334382  0.05172001       0.002
  -0.05972113 -0.07390112  0.05172001       0.002
  -0.02986056 -0.05278651  0.05172001       0.002
   0.00000001 -0.06334381  0.05172001       0.002
   0.02986058 -0.07390111  0.05172001       0.002
   0.05972115 -0.08445841  0.05172001       0.002
   0.08958171 -0.09501571  0.05172001       0.002
   0.11944228 -0.10557301  0.05172001       0.002
  -0.14930284 -0.01055731  0.05172001       0.002
  -0.11944227 -0.02111461  0.05172001       0.002
  -0.08958170 -0.03167191  0.05172001       0.002
  -0.05972113 -0.04222921  0.05172001       0.002
  -0.04479084 -0.03167191  0.07758002       0.002
  -0.01493027 -0.04222921  0.07758002       0.002
   0.01493030 -0.05278651  0.07758002       0.002
   0.04479087 -0.06334381  0.07758002       0.002
   0.07465143 -0.07390111  0.07758002       0.002
   0.10451200 -0.08445841  0.07758002       0.002
  -0.16423312  0.01055729  0.07758002       0.002
  -0.13437255 -0.00000001  0.07758002       0.002
  -0.10451198 -0.01055731  0.07758002       0.002
  -0.07465141 -0.02111461  0.07758002       0.002
  -0.04479084  0.00000000  0.07758002       0.002
  -0.01493027 -0.01055730  0.07758002       0.002
   0.01493030 -0.02111460  0.07758002       0.002
   0.04479087 -0.03167190  0.07758002       0.002
   0.07465143 -0.04222920  0.07758002       0.002
   0.10451200 -0.05278650  0.07758002       0.002
  -0.16423312  0.04222920  0.07758002       0.002
  -0.13437255  0.03167190  0.07758002       0.002
  -0.10451198  0.02111460  0.07758002       0.002
  -0.07465141  0.01055730  0.07758002       0.002
  -0.04479084  0.03167191  0.07758002       0.002
  -0.01493027  0.02111461  0.07758002       0.002
   0.01493030  0.01055731  0.07758002       0.002
   0.04479087  0.00000001  0.07758002       0.002
   0.07465143 -0.01055729  0.07758002       0.002
   0.10451200 -0.02111459  0.07758002       0.002
  -0.16423312  0.07390111  0.07758002       0.002
  -0.13437255  0.06334381  0.07758002       0.002
  -0.10451198  0.05278651  0.07758002       0.002
  -0.07465141  0.04222921  0.07758002       0.002
  -0.04479084  0.06334382  0.07758002       0.002
  -0.01493027  0.05278652  0.07758002       0.002
   0.01493030  0.04222922  0.07758002       0.002
   0.04479087  0.03167192  0.07758002       0.002
   0.07465143  0.02111462  0.07758002       0.002
   0.10451200  0.01055732  0.07758002       0.002
  -0.16423312  0.10557302  0.07758002       0.002
  -0.13437255  0.09501572  0.07758002       0.002
  -0.10451198  0.08445842  0.07758002       0.002
  -0.07465141  0.07390112  0.07758002       0.002
  -0.04479084  0.09501573  0.07758002       0.002
  -0.01493027  0.08445843  0.07758002       0.002
   0.01493030  0.07390113  0.07758002       0.002
   0.04479087  0.06334383  0.07758002       0.002
   0.07465143  0.05278653  0.07758002       0.002
   0.10451200  0.04222923  0.07758002       0.002
  -0.16423312  0.13724493  0.07758002       0.002
  -0.13437255  0.12668763  0.07758002       0.002
  -0.10451198  0.11613033  0.07758002       0.002
  -0.07465141  0.10557303  0.07758002       0.002
  -0.04479084  0.12668764  0.07758002       0.002
  -0.01493027  0.11613034  0.07758002       0.002
   0.01493030  0.10557304  0.07758002       0.002
   0.04479087  0.09501574  0.07758002       0.002
   0.07465143  0.08445844  0.07758002       0.002
   0.10451200  0.07390114  0.07758002       0.002
  -0.16423312  0.16891684  0.07758002       0.002
  -0.13437255  0.15835954  0.07758002       0.002
  -0.10451198  0.14780224  0.07758002       0.002
  -0.07465141  0.13724494  0.07758002       0.002
  -0.04479084 -0.15835954  0.07758002       0.002
  -0.01493027 -0.16891684  0.07758002       0.002
   0.01493030 -0.17947414  0.07758002       0.002
   0.04479087 -0.19003144  0.07758002       0.002
   0.07465143 -0.20058874  0.07758002       0.002
   0.10451200 -0.21114604  0.07758002       0.002
  -0.16423312 -0.11613034  0.07758002       0.002
  -0.13437255 -0.12668764  0.07758002       0.002
  -0.10451198 -0.13724494  0.07758002       0.002
  -0.07465141 -0.14780224  0.07758002       0.002
  -0.04479084 -0.12668763  0.07758002       0.002
  -0.01493027 -0.13724493  0.07758002       0.002
   0.01493030 -0.14780223  0.07758002       0.002
   0.04479087 -0.15835953  0.07758002       0.002
   0.07465143 -0.16891683  0.07758002       0.002
   0.10451200 -0.17947413  0.07758002       0.002
  -0.16423312 -0.08445843  0.07758002       0.002
  -0.13437255 -0.09501573  0.07758002       0.002
  -0.10451198 -0.10557303  0.07758002       0.002
  -0.07465141 -0.11613033  0.07758002       0.002
  -0.04479084 -0.09501572  0.07758002       0.002
  -0.01493027 -0.10557302  0.07758002       0.002
   0.01493030 -0.11613032  0.07758002       0.002
   0.04479087 -0.12668762  0.07758002       0.002
   0.07465143 -0.13724492  0.07758002       0.002
   0.10451200 -0.14780222  0.07758002       0.002
  -0.16423312 -0.05278652  0.07758002       0.002
  -0.13437255 -0.06334382  0.07758002       0.002
  -0.10451198 -0.07390112  0.07758002       0.002
  -0.07465141 -0.08445842  0.07758002       0.002
  -0.04479084 -0.06334382  0.07758002       0.002
  -0.01493027 -0.07390112  0.07758002       0.002
   0.01493030 -0.08445842  0.07758002       0.002
   0.04479087 -0.09501572  0.07758002       0.002
   0.07465143 -0.10557302  0.07758002       0.002
   0.10451200 -0.11613032  0.07758002       0.002
  -0.16423312 -0.02111462  0.07758002       0.002
  -0.13437255 -0.03167192  0.07758002       0.002
  -0.10451198 -0.04222922  0.07758002       0.002
  -0.07465141 -0.05278652  0.07758002       0.002
  -0.05972112 -0.04222921  0.10344003       0.002
  -0.02986055 -0.05278651  0.10344003       0.002
   0.00000002 -0.06334381  0.10344003       0.002
   0.02986058 -0.07390111  0.10344003       0.002
   0.05972115 -0.08445841  0.10344003       0.002
   0.08958172 -0.09501571  0.10344003       0.002
  -0.17916340 -0.00000001  0.10344003       0.002
  -0.14930283 -0.01055731  0.10344003       0.002
  -0.11944226 -0.02111461  0.10344003       0.002
  -0.08958169 -0.03167191  0.10344003       0.002
  -0.05972112 -0.01055730  0.10344003       0.002
  -0.02986055 -0.02111460  0.10344003       0.002
   0.00000002 -0.03167190  0.10344003       0.002
   0.02986058 -0.04222920  0.10344003       0.002
   0.05972115 -0.05278650  0.10344003       0.002
   0.08958172 -0.06334380  0.10344003       0.002
  -0.17916340  0.03167190  0.10344003       0.002
  -0.14930283  0.02111460  0.10344003       0.002
  -0.11944226  0.01055730  0.10344003       0.002
  -0.08958169  0.00000000  0.10344003       0.002
  -0.05972112  0.02111461  0.10344003       0.002
  -0.02986055  0.01055731  0.10344003       0.002
   0.00000002  0.00000001  0.10344003       0.002
   0.02986058 -0.01055729  0.10344003       0.002
   0.05972115 -0.02111459  0.10344003       0.002
   0.08958172 -0.03167189  0.10344003       0.002
  -0.17916340  0.06334381  0.10344003       0.002
  -0.14930283  0.05278651  0.10344003       0.002
  -0.11944226  0.04222921  0.10344003       0.002
  -0.08958169  0.03167191  0.10344003       0.002
  -0.05972112  0.05278652  0.10344003       0.002
  -0.02986055  0.04222922  0.10344003       0.002
   0.00000002  0.03167192  0.10344003       0.002
   0.02986058  0.02111462  0.10344003       0.002
   0.05972115  0.01055732  0.10344003       0.002
   0.08958172  0.00000002  0.10344003       0.002
  -0.17916340  0.09501572  0.10344003       0.002
  -0.14930283  0.08445842  0.10344003       0.002
  -0.11944226  0.07390112  0.10344003       0.002
  -0.08958169  0.06334382  0.10344003       0.002
  -0.05972112  0.08445843  0.10344003       0.002
  -0.02986055  0.07390113  0.10344003       0.002
   0.00000002  0.06334383  0.10344003       0.002
   0.02986058  0.05278653  0.10344003       0.002
   0.05972115  0.04222923  0.10344003       0.002
   0.08958172  0.03167193  0.10344003       0.002
  -0.17916340  0.12668763  0.10344003       0.002
  -0.14930283  0.11613033  0.10344003       0.002
  -0.11944226  0.10557303  0.10344003       0.002
  -0.08958169  0.09501573  0.10344003       0.002
  -0.05972112  0.11613034  0.10344003       0.002
  -0.02986055  0.10557304  0.10344003       0.002
   0.00000002  0.09501574  0.10344003       0.002
[...]
  134            fftwav                                1.201550                    71041   5
  135              fft3d                                 0.993404                  71041   6
  136        w1_projall                            0.810431                        20615   3
  137          rpromu                                0.792972                      20615   4
  138            crrexp_mul_wave                       0.262171                   164920   5
  139            rpromu_gemm                           0.470594                    41230   5
  140        i3                                    1.268487                        20615   3
  141          w1_dot                                0.025347                      43186   4
  142          w1_daxpy                              0.242191                      86372   4
  143          eccp                                  0.528338                     114227   4
  144          cnorma                                0.135741                     114227   4
  145            eccp_nl                               0.038691                   114227   5
  146          w1_dscal                              0.119919                      71041   4
  147          w1_copy                               0.096232                      27855   4
  148      force_and_stress                      6.498654                              3   2
  149        set_charge                            0.142462                            3   3
  150          soft_charge                           0.127929                          3   4
  151            fftwav_mpi                            0.097654                     6317   5
  152              fftwav                                0.096007                   6317   6
  153                fft3d                                 0.079361                 6317   7
  154            pw_charge                             0.027253                     6317   5
  155            fft3d_mpi                             0.000139                        3   5
  156              fftbas_plan_mpi                       0.000114                      3   6
  157                dfftw_execute                         0.000040                    9   7
  158                map_backward                          0.000022                    6   7
  159                  map_gather                            0.000015                  3   8
  160          depsum                                0.003515                          3   4
  161          fft3d_mpi                             0.004088                          3   4
  162            fftbas_plan_mpi                       0.003651                        3   5
  163              dfftw_execute                         0.001848                      9   6
  164              map_backward                          0.001747                      6   6
  165                map_gather                            0.001117                    3   7
  166        forloc                                0.001456                            3   3
  167        fornlr                                1.467759                            3   3
  168          rspher_all                            0.002969                          9   4
  169          phaser                                0.481772                       4536   4
  170          rpro_isp                              0.968434                       4536   4
  171            fftwav_mpi                            0.651319                    36288   5
  172              fftwav                                0.642117                  36288   6
  173                fft3d                                 0.543059                36288   7
  174            rpromu                                0.304142                     9072   5
  175              crrexp_mul_wave                       0.096739                  72576   6
  176              rpromu_gemm                           0.184906                  18144   6
  177        fordep                                0.057785                            3   3
  178          setdij_                               0.057754                         18   4
  179            fft3d_mpi                             0.026220                       36   5
  180              fftbas_plan_mpi                       0.023180                     36   6
  181                dfftw_execute                         0.013031                  108   7
  182                map_backward                          0.000518                   36   7
  183                  map_gather                            0.000383                 18   8
  184                map_forward                           0.009281                   36   7
  185                  map_scatter                           0.005936                 18   8
  186        setdij_                               0.188961                           60   3
  187          fft3d_mpi                             0.085937                        120   4
  188            fftbas_plan_mpi                       0.075798                      120   5
  189              dfftw_execute                         0.043340                    360   6
  190              map_backward                          0.001561                    120   6
  191                map_gather                            0.001123                   60   7
  192              map_forward                           0.029804                    120   6
  193                map_scatter                           0.019249                   60   7
  194        set_dd_paw                            0.189001                            3   3
  195          set_rsgf_all                          0.000001                          3   4
  196        strkin                                0.011309                            3   3
  197        strelo                                0.001728                            3   3
  198        strnlr                                4.403199                            3   3
  199          rspher_all                            0.008364                         27   4
  200          phaser                                1.443110                      13608   4
  201          rpro_isp                              2.902481                      13608   4
  202            fftwav_mpi                            1.950079                   108864   5
  203              fftwav                                1.922325                 108864   6
  204                fft3d                                 1.628604               108864   7
  205            rpromu                                0.913554                    27216   5
  206              crrexp_mul_wave                       0.290139                 217728   6
  207              rpromu_gemm                           0.555900                  54432   6
  208        fft3d_mpi                             0.004141                           33   3
  209          fftbas_plan_mpi                       0.003516                         33   4
  210            dfftw_execute                         0.002416                       99   5
  211            map_forward                           0.000443                       30   5
  212              map_scatter                           0.000315                     15   6
  213            map_backward                          0.000413                       36   5
  214              map_gather                            0.000283                     18   6
  215        ggaall_grid                           0.010346                            3   3
  216        forhar                                0.002864                            6   3
  217        strehar                               0.001980                            3   3
  218        chggra                                0.002730                            3   3
  219          fft3d_mpi                             0.001192                          9   4
  220            fftbas_plan_mpi                       0.001020                        9   5
  221              dfftw_execute                         0.000672                     27   6
  222              map_forward                           0.000214                     12   6
  223                map_scatter                           0.000135                    6   7
  224              map_backward                          0.000064                      6   6
  225                map_gather                            0.000042                    3   7
  226        brmix                                 0.001844                            3   3
  227          brpre                                 0.000029                          3   4
  228          setg0                                 0.000590                          3   4
  229          broyd                                 0.000911                          3   4
  230            brget                                 0.000161                      162   5
  231            brsav                                 0.000068                       42   5
  232      overl                                 0.002348                           1512   2
  233      pdssyex_zheevx                        0.068043                           1008   2
  234      lincom                                0.030965                           2016   2

 Flat profile
 ============

             routine name                   CPU           calls
 ---------------------------------------------------------------
 fft3d                                  11.452016      783531
 phaser                                  3.186504       29736
 eddav                                   1.880767           7
 total_time                              1.705628           1
 rpromu_gemm                             1.659120      141352
 fftwav                                  1.587048      548724
 set_dd_paw                              1.389220          22
 gemm                                    1.280404       67768
 crrexp_mul_wave                         0.942434      643336
 eccp                                    0.891666      190835
 crrexp_mul_work_add                     0.823882      364782
 vhamil                                  0.725449      234807
 orth1                                   0.680948       50895
 pdssyex_zheevx                          0.483002        7560
 w1_copy                                 0.375101      547173
 i2                                      0.282445       20615
 w1_daxpy                                0.267704      142082
 w1_dscal                                0.225013      154606
 rpromu                                  0.211722       70676
 w1_gaxpy                                0.193764      111426
 lincom                                  0.187090       16632
 setdij_                                 0.178644          98
 fftext_mpi                              0.174000      234807
 kinhamil                                0.161642      234807
 fftwav_mpi                              0.144601      548724
 hamiltmu                                0.141571       33884
 pw_charge                               0.135728       31523
 racc0mu                                 0.121019       33884
 i3                                      0.120719       20615
 zhegv                                   0.119118       27855
 dfftw_execute                           0.105439        1623
 apply_precond                           0.105404      232540
 cnorma                                  0.097050      114227
 overl                                   0.089756      200208
 fft3d_mpi                               0.086822      235348
 overl1                                  0.082008      238104
 ggaall_grid                             0.079929          23
 i0                                      0.075763       26663
 setup_precond                           0.075608       76608
 w1_gemv                                 0.065444      111426
 rpro_isp                                0.058105       20160
 raccmu_                                 0.055448       33884
 eddrmm                                  0.051989          12
 strnlr                                  0.049244           3
 eddiag                                  0.042194          13
 set_charge                              0.038764          15
 eccp_nl                                 0.038691      114227
 map_scatter                             0.035583         268
 w1_projall                              0.028614       30356
 w1_dot                                  0.025347       43186
 hamilt_local                            0.024224       52416
 i1                                      0.022297       20615
 map_forward                             0.019855         536
 truncate_high_frequency_w1              0.019702      258999
 depsum                                  0.017684          15
 soft_charge                             0.015056          15
 fornlr                                  0.014584           3
 rspher_all                              0.012579          40
 map_gather                              0.012275         273
 strkin                                  0.011309           3
 force_and_stress                        0.011090           3
 choleski                                0.007888        8064
 orthch                                  0.007813          16
 map_backward                            0.005693         546
 fftbas_plan_mpi                         0.005406         541
 setg0                                   0.002977          18
 forhar                                  0.002864           6
 broyd                                   0.002094          15
 strehar                                 0.001980           3
 brmix                                   0.001773          15
 strelo                                  0.001728           3
 chggra                                  0.001538           3
 forloc                                  0.001456           3
 brget                                   0.000539         537
 brsav                                   0.000238         153
 brpre                                   0.000124          15
 brgrid                                  0.000043           1
 fordep                                  0.000031           3
 set_rsgf_all                            0.000011          22
 redis_pw_over_bands                     0.000000           5
 ---------------------------------------------------------------
  summed up times    33.2400209903717

 Accumulative profile
 ====================

             routine name                   CPU           calls
 ---------------------------------------------------------------
 total_time                             33.240021           1
 fft3d                                  11.452016      783531
 eddav                                  11.037033           7
 fftwav_mpi                             10.110945      548724
 fftwav                                  9.966345      548724
 eddrmm                                  8.781277          12
 force_and_stress                        6.498654           3
 hamiltmu                                5.801981       33884
 strnlr                                  4.403199           3
 rpro_isp                                4.303779       20160
 kinhamil                                3.469590      234807
 fft3d_mpi                               3.343792      235348
 fftext_mpi                              3.307948      234807
 phaser                                  3.186504       29736
 rpromu                                  2.813276       70676
 raccmu_                                 2.342538       33884
 eddiag                                  2.333108          13
 racc0mu                                 2.225304       33884
 i2                                      2.148576       20615
 rpromu_gemm                             1.659120      141352
 w1_projall                              1.488658       30356
 fornlr                                  1.467759           3
 set_dd_paw                              1.389231          22
 i0                                      1.325646       26663
 gemm                                    1.280404       67768
 i3                                      1.268487       20615
 crrexp_mul_wave                         0.942434      643336
 hamilt_local                            0.901391       52416
 eccp                                    0.891666      190835
 crrexp_mul_work_add                     0.823882      364782
 vhamil                                  0.725449      234807
 set_charge                              0.712979          15
 orth1                                   0.680948       50895
 soft_charge                             0.634908          15
 pdssyex_zheevx                          0.483002        7560
 w1_copy                                 0.375101      547173
 setdij_                                 0.320746          98
 w1_daxpy                                0.267704      142082
 w1_dscal                                0.225013      154606
 w1_gaxpy                                0.193764      111426
 lincom                                  0.187090       16632
 fftbas_plan_mpi                         0.184252         541
 orthch                                  0.171466          16
 cnorma                                  0.135741      114227
 pw_charge                               0.135728       31523
 zhegv                                   0.119118       27855
 dfftw_execute                           0.105439        1623
 apply_precond                           0.105404      232540
 overl                                   0.089756      200208
 w1_gemv                                 0.085667      111426
 overl1                                  0.082008      238104
 ggaall_grid                             0.079929          23
 setup_precond                           0.075608       76608
 i1                                      0.059316       20615
 fordep                                  0.057785           3
 map_forward                             0.055438         536
 eccp_nl                                 0.038691      114227
 map_scatter                             0.035583         268
 w1_dot                                  0.025347       43186
 truncate_high_frequency_w1              0.019702      258999
 map_backward                            0.017969         546
 depsum                                  0.017684          15
 rspher_all                              0.012579          40
 map_gather                              0.012275         273
 strkin                                  0.011309           3
 choleski                                0.007888        8064
 brmix                                   0.007743          15
 setg0                                   0.002977          18
 broyd                                   0.002870          15
 forhar                                  0.002864           6
 chggra                                  0.002730           3
 strehar                                 0.001980           3
 strelo                                  0.001728           3
 forloc                                  0.001456           3
 brget                                   0.000539         537
 brsav                                   0.000238         153
 brpre                                   0.000124          15
 brgrid                                  0.000043           1
 set_rsgf_all                            0.000011          22
 redis_pw_over_bands                     0.000000           5
 ---------------------------------------------------------------

Profiling took   0.529838  0.385130  0.004300  0.004268 seconds
Profiling took   0.417741 seconds
