 vasp.6.2.1 16May21 (build Oct 27 2021 18:14:32) complex                        
  
 executed on             LinuxIFC date 2021.10.28  14:48:07
 running on    4 total cores
 distrk:  each k-point on    4 cores,    1 groups
 distr:  one band on NCORE=   1 cores,    4 groups


--------------------------------------------------------------------------------------------------------


 INCAR:
   ALGO = Normal
   EDIFF = 1e-05
   EDIFFG = -0.02
   ENAUG = 1360.0
   ENCUT = 680.0
   IBRION = -1
   ICHARG = 11
   ISIF = 3
   ISMEAR = -5
   ISPIN = 1
   ISYM = 2
   LAECHG = True
   LASPH = True
   LCHARG = False
   LELF = True
   LMIXTAU = True
   LORBIT = 11
   LREAL = Auto
   LVTOT = True
   LWAVE = False
   NBANDS = 15
   NEDOS = 5326
   NELM = 200
   NSW = 0
   PREC = Accurate
   SIGMA = 0.2

 POTCAR:    PAW_PBE Si 05Jan2001                  
 WARNING: For LVTOT=.TRUE., VASP.5.x writes the TOTAL local potential to the
     file LOCPOT. If you want only the Hartree contributions, use LVHAR=.TRUE.
     instead. 

 POTCAR:    PAW_PBE Si 05Jan2001                  
   VRHFIN =Si: s2p2                                                                                 
   LEXCH  = PE                                                                                      
   EATOM  =   103.0669 eV,    7.5752 Ry                                                             
                                                                                                    
   TITEL  = PAW_PBE Si 05Jan2001                                                                    
   LULTRA =        F    use ultrasoft PP ?                                                          
   IUNSCR =        1    unscreen: 0-lin 1-nonlin 2-no                                               
   RPACOR =    1.500    partial core radius                                                         
   POMASS =   28.085; ZVAL   =    4.000    mass and valenz                                          
   RCORE  =    1.900    outmost cutoff radius                                                       
   RWIGS  =    2.480; RWIGS  =    1.312    wigner-seitz radius (au A)                               
   ENMAX  =  245.345; ENMIN  =  184.009 eV                                                          
   ICORE  =        2    local potential                                                             
   LCOR   =        T    correct aug charges                                                         
   LPAW   =        T    paw PP                                                                      
   EAUG   =  322.069                                                                                
   DEXC   =    0.000                                                                                
   RMAX   =    1.950    core radius for proj-oper                                                   
   RAUG   =    1.300    factor for augmentation sphere                                              
   RDEP   =    1.993    radius for radial grids                                                     
   RDEPT  =    1.837    core radius for aug-charge                                                  
                                                                                                    
   Atomic configuration                                                                             
    6 entries                                                                                       
     n  l   j            E        occ.                                                              
     1  0  0.50     -1785.8828   2.0000                                                             
     2  0  0.50      -139.4969   2.0000                                                             
     2  1  1.50       -95.5546   6.0000                                                             
     3  0  0.50       -10.8127   2.0000                                                             
     3  1  0.50        -4.0811   2.0000                                                             
     3  2  1.50        -4.0817   0.0000                                                             
   Description                                                                                      
     l       E           TYP  RCUT    TYP  RCUT                                                     
     0    -10.8127223     23  1.900                                                                 
     0     -7.6451159     23  1.900                                                                 
     1     -4.0811372     23  1.900                                                                 
     1      2.4879257     23  1.900                                                                 
     2     -4.0817478      7  1.900                                                                 
  local pseudopotential read in
  partial core-charges read in
  partial kinetic energy density read in
  atomic valenz-charges read in
  non local Contribution for L=           0  read in
    real space projection operators read in
  non local Contribution for L=           0  read in
    real space projection operators read in
  non local Contribution for L=           1  read in
    real space projection operators read in
  non local Contribution for L=           1  read in
    real space projection operators read in
    PAW grid and wavefunctions read in
 
   number of l-projection  operators is LMAX  =           4
   number of lm-projection operators is LMMAX =           8
 
 -----------------------------------------------------------------------------
|                                                                             |
|               ----> ADVICE to this user running VASP <----                  |
|                                                                             |
|     You have a (more or less) 'small supercell' and for smaller cells       |
|     it is recommended to use the reciprocal-space projection scheme!        |
|     The real-space optimization is not efficient for small cells and it     |
|     is also less accurate ...                                               |
|     Therefore, set LREAL=.FALSE. in the INCAR file.                         |
|                                                                             |
 -----------------------------------------------------------------------------

 Optimization of the real space projectors (new method)

 maximal supplied QI-value         = 19.84
 optimisation between [QCUT,QGAM] = [ 13.29, 26.59] = [ 49.49,197.96] Ry 
 Optimized for a Real-space Cutoff    1.12 Angstroem

   l    n(q)    QCUT    max X(q) W(low)/X(q) W(high)/X(q)  e(spline) 
   0      9    13.294   159.560    0.23E-03    0.88E-04    0.53E-07
   0      9    13.294   115.863    0.22E-03    0.87E-04    0.52E-07
   1      8    13.294    88.339    0.81E-04    0.17E-03    0.12E-06
   1      8    13.294    48.592    0.79E-04    0.17E-03    0.12E-06
  PAW_PBE Si 05Jan2001                  :
 energy of atom  1       EATOM= -103.0669
 kinetic energy error for atom=    0.0003 (will be added to EATOM!!)
 
 
 POSCAR: Si2
  positions in direct lattice
  No initial velocities read in
 exchange correlation table for  LEXCH =        8
   RHO(1)=    0.500       N(1)  =     2000
   RHO(2)=  100.500       N(2)  =     4000
 


--------------------------------------------------------------------------------------------------------


 ion  position               nearest neighbor table
   1  0.250  0.250  0.250-   2 2.37   2 2.37   2 2.37   2 2.37
   2  0.000  0.000  0.000-   1 2.37   1 2.37   1 2.37   1 2.37
 
  LATTYP: Found a face centered cubic cell.
 ALAT       =     5.4687280757
  
  Lattice vectors:
  
 A1 = (   3.3488980000,   0.0000000000,   1.9334870000)
 A2 = (   1.1162990000,   3.1573720000,   1.9334870000)
 A3 = (   0.0000000000,   0.0000000000,   3.8669750000)


Analysis of symmetry for initial positions (statically):
=====================================================================
 Subroutine PRICEL returns:
 Original cell was already a primitive cell.
 

 Routine SETGRP: Setting up the symmetry group for a 
 face centered cubic supercell.


 Subroutine GETGRP returns: Found 48 space group operations
 (whereof 24 operations were pure point group operations)
 out of a pool of 48 trial point group operations.


The static configuration has the point symmetry T_d .
 The point group associated with its full space group is O_h .


Analysis of symmetry for dynamics (positions and initial velocities):
=====================================================================
 Subroutine PRICEL returns:
 Original cell was already a primitive cell.
 

 Routine SETGRP: Setting up the symmetry group for a 
 face centered cubic supercell.


 Subroutine GETGRP returns: Found 48 space group operations
 (whereof 24 operations were pure point group operations)
 out of a pool of 48 trial point group operations.


The dynamic configuration has the point symmetry T_d .
 The point group associated with its full space group is O_h .


 Subroutine INISYM returns: Found 48 space group operations
 (whereof 24 operations are pure point group operations),
 and found     1 'primitive' translations


----------------------------------------------------------------------------------------

                                     Primitive cell                                     

  volume of cell :      40.8883

  direct lattice vectors                    reciprocal lattice vectors
     3.348898000  0.000000000  1.933487000     0.298605691 -0.105573000  0.000000000
     1.116299000  3.157372000  1.933487000     0.000000000  0.316719094  0.000000000
     0.000000000  0.000000000  3.866975000    -0.149302807 -0.105573020  0.258600069

  length of vectors
     3.866974243  3.866974707  3.866975000     0.316719145  0.316719094  0.316719096

  position of ions in fractional coordinates (direct lattice)
     0.250000000  0.250000000  0.250000000
     0.000000000  0.000000000  0.000000000

  ion indices of the primitive-cell ions
   primitive index   ion index
                 1           1
                 2           2

----------------------------------------------------------------------------------------

 
 
 KPOINTS: pymatgen with grid density = 1213 / numb

Automatic generation of k-mesh.
 Grid dimensions read from file:
 generate k-points for:    8    8    8

 Generating k-lattice:

  Cartesian coordinates                     Fractional coordinates (reciprocal lattice)
     0.037325711 -0.013196625  0.000000000     0.125000000 -0.000000000  0.000000000
     0.000000000  0.039589887  0.000000000     0.000000000  0.125000000  0.000000000
    -0.018662851 -0.013196627  0.032325009     0.000000000  0.000000000  0.125000000

  Length of vectors
     0.039589893  0.039589887  0.039589887

  Shift w.r.t. Gamma in fractional coordinates (k-lattice)
     0.000000000  0.000000000  0.000000000

 TETIRR: Found     76 inequivalent tetrahedra from     3072
 
 Subroutine IBZKPT returns following result:
 ===========================================
 
 Found     29 irreducible k-points:
 
 Following reciprocal coordinates:
            Coordinates               Weight
  0.000000  0.000000  0.000000      1.000000
  0.125000  0.000000  0.000000      8.000000
  0.250000  0.000000  0.000000      8.000000
  0.375000  0.000000  0.000000      8.000000
  0.500000  0.000000  0.000000      4.000000
  0.125000  0.125000  0.000000      6.000000
  0.250000  0.125000  0.000000     24.000000
  0.375000  0.125000  0.000000     24.000000
  0.500000  0.125000  0.000000     24.000000
 -0.375000  0.125000  0.000000     24.000000
 -0.250000  0.125000  0.000000     24.000000
 -0.125000  0.125000  0.000000     12.000000
  0.250000  0.250000  0.000000      6.000000
  0.375000  0.250000  0.000000     24.000000
  0.500000  0.250000  0.000000     24.000000
 -0.375000  0.250000  0.000000     24.000000
 -0.250000  0.250000  0.000000     12.000000
  0.375000  0.375000  0.000000      6.000000
  0.500000  0.375000  0.000000     24.000000
 -0.375000  0.375000  0.000000     12.000000
  0.500000  0.500000  0.000000      3.000000
  0.375000  0.250000  0.125000     24.000000
  0.500000  0.250000  0.125000     48.000000
 -0.375000  0.250000  0.125000     24.000000
  0.500000  0.375000  0.125000     24.000000
 -0.375000  0.375000  0.125000     48.000000
 -0.250000  0.375000  0.125000     24.000000
 -0.375000  0.500000  0.125000     12.000000
 -0.250000  0.500000  0.250000      6.000000
 
 Following cartesian coordinates:
            Coordinates               Weight
  0.000000  0.000000  0.000000      1.000000
  0.037326 -0.013197  0.000000      8.000000
  0.074651 -0.026393  0.000000      8.000000
  0.111977 -0.039590  0.000000      8.000000
  0.149303 -0.052786  0.000000      4.000000
  0.037326  0.026393  0.000000      6.000000
  0.074651  0.013197  0.000000     24.000000
  0.111977  0.000000  0.000000     24.000000
  0.149303 -0.013197  0.000000     24.000000
 -0.111977  0.079180  0.000000     24.000000
 -0.074651  0.065983  0.000000     24.000000
 -0.037326  0.052787  0.000000     12.000000
  0.074651  0.052787  0.000000      6.000000
  0.111977  0.039590  0.000000     24.000000
  0.149303  0.026393  0.000000     24.000000
 -0.111977  0.118770  0.000000     24.000000
 -0.074651  0.105573  0.000000     12.000000
  0.111977  0.079180  0.000000      6.000000
  0.149303  0.065983  0.000000     24.000000
 -0.111977  0.158360  0.000000     12.000000
  0.149303  0.105573  0.000000      3.000000
  0.093314  0.026393  0.032325     24.000000
  0.130640  0.013197  0.032325     48.000000
 -0.130640  0.105573  0.032325     24.000000
  0.130640  0.052787  0.032325     24.000000
 -0.130640  0.145163  0.032325     48.000000
 -0.093314  0.131966  0.032325     24.000000
 -0.130640  0.184753  0.032325     12.000000
 -0.111977  0.158360  0.064650      6.000000
 
 -----------------------------------------------------------------------------
|                                                                             |
|           W    W    AA    RRRRR   N    N  II  N    N   GGGG   !!!           |
|           W    W   A  A   R    R  NN   N  II  NN   N  G    G  !!!           |
|           W    W  A    A  R    R  N N  N  II  N N  N  G       !!!           |
|           W WW W  AAAAAA  RRRRR   N  N N  II  N  N N  G  GGG   !            |
|           WW  WW  A    A  R   R   N   NN  II  N   NN  G    G                |
|           W    W  A    A  R    R  N    N  II  N    N   GGGG   !!!           |
|                                                                             |
|     The number of bands has been changed from the values supplied in        |
|     the INCAR file. This is a result of running the parallel version.       |
|     The orbitals not found in the WAVECAR file will be initialized with     |
|     random numbers, which is usually adequate. For correlated               |
|     calculations, however, you should redo the groundstate calculation.     |
|     I found NBANDS = 15. Now, NBANDS = 16.                                  |
|                                                                             |
 -----------------------------------------------------------------------------



--------------------------------------------------------------------------------------------------------




 Dimension of arrays:
   k-points           NKPTS =     29   k-points in BZ     NKDIM =     29   number of bands    NBANDS=     16
   number of dos      NEDOS =   5326   number of ions     NIONS =      2
   non local maximal  LDIM  =      4   non local SUM 2l+1 LMDIM =      8
   total plane-waves  NPLWV =  46656
   max r-space proj   IRMAX =   6824   max aug-charges    IRDMAX=  38346
   dimension x,y,z NGX =    36 NGY =   36 NGZ =   36
   dimension x,y,z NGXF=    72 NGYF=   72 NGZF=   72
   support grid    NGXF=    72 NGYF=   72 NGZF=   72
   ions per type =               2
   NGX,Y,Z   is equivalent  to a cutoff of  15.48, 15.48, 15.48 a.u.
   NGXF,Y,Z  is equivalent  to a cutoff of  30.95, 30.95, 30.95 a.u.

 SYSTEM =  unknown system                          
 POSCAR =  Si2                                     

 Startparameter for this run:
   NWRITE =      2    write-flag & timer
   PREC   = accura    normal or accurate (medium, high low for compatibility)
   ISTART =      0    job   : 0-new  1-cont  2-samecut
   ICHARG =     11    charge: 1-file 2-atom 10-const
   ISPIN  =      1    spin polarized calculation?
   LNONCOLLINEAR =      F non collinear calculations
   LSORBIT =      F    spin-orbit coupling
   INIWAV =      1    electr: 0-lowe 1-rand  2-diag
   LASPH  =      T    aspherical Exc in radial PAW
 Electronic Relaxation 1
   ENCUT  =  680.0 eV  49.98 Ry    7.07 a.u.   8.22  8.22  8.22*2*pi/ulx,y,z
   ENINI  =  680.0     initial cutoff
   ENAUG  = 1360.0 eV  augmentation charge cutoff
   NELM   =    200;   NELMIN=  2; NELMDL= -5     # of ELM steps 
   EDIFF  = 0.1E-04   stopping-criterion for ELM
   LREAL  =      T    real-space projection
   NLSPLINE    = F    spline interpolate recip. space projectors
   LCOMPAT=      F    compatible to vasp.4.4
   GGA_COMPAT  = T    GGA compatible to vasp.4.4-vasp.4.6
   LMAXPAW     = -100 max onsite density
   LMAXMIX     =    2 max onsite mixed and CHGCAR
   VOSKOWN=      0    Vosko Wilk Nusair interpolation
   ROPT   =   -0.00025
 Ionic relaxation
   EDIFFG = -.2E-01   stopping-criterion for IOM
   NSW    =      0    number of steps for IOM
   NBLOCK =      1;   KBLOCK =      1    inner block; outer block 
   IBRION =     -1    ionic relax: 0-MD 1-quasi-New 2-CG
   NFREE  =      0    steps in history (QN), initial steepest desc. (CG)
   ISIF   =      3    stress and relaxation
   IWAVPR =     10    prediction:  0-non 1-charg 2-wave 3-comb
   ISYM   =      2    0-nonsym 1-usesym 2-fastsym
   LCORR  =      T    Harris-Foulkes like correction to forces

   POTIM  = 0.5000    time-step for ionic-motion
   TEIN   =    0.0    initial temperature
   TEBEG  =    0.0;   TEEND  =   0.0 temperature during run
   SMASS  =  -3.00    Nose mass-parameter (am)
   estimated Nose-frequenzy (Omega)   =  0.10E-29 period in steps = 0.13E+47 mass=  -0.342E-27a.u.
   SCALEE = 1.0000    scale energy and forces
   NPACO  =    256;   APACO  = 16.0  distance and # of slots for P.C.
   PSTRESS=    0.0 pullay stress

  Mass of Ions in am
   POMASS =  28.09
  Ionic Valenz
   ZVAL   =   4.00
  Atomic Wigner-Seitz radii
   RWIGS  =  -1.00
  virtual crystal weights 
   VCA    =   1.00
   NELECT =       8.0000    total number of electrons
   NUPDOWN=      -1.0000    fix difference up-down

 DOS related values:
   EMIN   =  10.00;   EMAX   =-10.00  energy-range for DOS
   EFERMI =   0.00
   ISMEAR =    -5;   SIGMA  =   0.20  broadening in eV -4-tet -1-fermi 0-gaus

 Electronic relaxation 2 (details)
   IALGO  =     38    algorithm
   LDIAG  =      T    sub-space diagonalisation (order eigenvalues)
   LSUBROT=      F    optimize rotation matrix (better conditioning)
   TURBO    =      0    0=normal 1=particle mesh
   IRESTART =      0    0=no restart 2=restart with 2 vectors
   NREBOOT  =      0    no. of reboots
   NMIN     =      0    reboot dimension
   EREF     =   0.00    reference energy to select bands
   IMIX   =      4    mixing-type and parameters
     AMIX     =   0.40;   BMIX     =  1.00
     AMIX_MAG =   1.60;   BMIX_MAG =  1.00
     AMIN     =   0.10
     WC   =   100.;   INIMIX=   1;  MIXPRE=   1;  MAXMIX= -45

 Intra band minimization:
   WEIMIN = 0.0000     energy-eigenvalue tresh-hold
   EBREAK =  0.16E-06  absolut break condition
   DEPER  =   0.30     relativ break condition  

   TIME   =   0.40     timestep for ELM

  volume/ion in A,a.u.               =      20.44       137.96
  Fermi-wavevector in a.u.,A,eV,Ry     =   0.950397  1.795990 12.289528  0.903255
  Thomas-Fermi vector in A             =   2.078770
 
 Write flags
   LWAVE        =      F    write WAVECAR
   LDOWNSAMPLE  =      F    k-point downsampling of WAVECAR
   LCHARG       =      F    write CHGCAR
   LVTOT        =      T    write LOCPOT, total local potential
   LVHAR        =      F    write LOCPOT, Hartree potential only
   LELF         =      T    write electronic localiz. function (ELF)
   LORBIT       =     11    0 simple, 1 ext, 2 COOP (PROOUT), +10 PAW based schemes


 Dipole corrections
   LMONO  =      F    monopole corrections only (constant potential shift)
   LDIPOL =      F    correct potential (dipole corrections)
   IDIPOL =      0    1-x, 2-y, 3-z, 4-all directions 
   EPSILON=  1.0000000 bulk dielectric constant

 Exchange correlation treatment:
   GGA     =    --    GGA type
   LEXCH   =     8    internal setting for exchange type
   VOSKOWN=      0    Vosko Wilk Nusair interpolation
   LHFCALC =     F    Hartree Fock is set to
   LHFONE  =     F    Hartree Fock one center treatment
   AEXX    =    0.0000 exact exchange contribution

 Linear response parameters
   LEPSILON=     F    determine dielectric tensor
   LRPA    =     F    only Hartree local field effects (RPA)
   LNABLA  =     F    use nabla operator in PAW spheres
   LVEL    =     F    velocity operator in full k-point grid
   LINTERFAST=   F  fast interpolation
   KINTER  =     0    interpolate to denser k-point grid
   CSHIFT  =0.1000    complex shift for real part using Kramers Kronig
   OMEGAMAX=  -1.0    maximum frequency
   DEG_THRESHOLD= 0.2000000E-02 threshold for treating states as degnerate
   RTIME   =   -0.100 relaxation time in fs
  (WPLASMAI=    0.000 imaginary part of plasma frequency in eV, 0.658/RTIME)
   DFIELD  = 0.0000000 0.0000000 0.0000000 field for delta impulse in time
 
 Orbital magnetization related:
   ORBITALMAG=     F  switch on orbital magnetization
   LCHIMAG   =     F  perturbation theory with respect to B field
   DQ        =  0.001000  dq finite difference perturbation B field
   LLRAUG    =     F  two centre corrections for induced B field



--------------------------------------------------------------------------------------------------------


 Static calculation
 charge density and potential remain constant during run
 non-spin polarized calculation
 Variant of blocked Davidson
 Davidson routine will perform the subspace rotation
 perform sub-space diagonalisation
    after iterative eigenvector-optimisation
 no mixing
 using additional bands           12
 real space projection scheme for non local part
 use partial core corrections
 calculate Harris-corrections to forces 
   (improved forces if not selfconsistent)
 use gradient corrections 
 WARNING: stress and forces are not correct
  (second derivative of E(xc) not defined)
 use of overlap-Matrix (Vanderbilt PP)
 Fermi weights with tetrahedron method with Bloechl corrections


--------------------------------------------------------------------------------------------------------


  energy-cutoff  :      680.00
  volume of cell :       40.89
      direct lattice vectors                 reciprocal lattice vectors
     3.348898000  0.000000000  1.933487000     0.298605691 -0.105573000  0.000000000
     1.116299000  3.157372000  1.933487000     0.000000000  0.316719094  0.000000000
     0.000000000  0.000000000  3.866975000    -0.149302807 -0.105573020  0.258600069

  length of vectors
     3.866974243  3.866974707  3.866975000     0.316719145  0.316719094  0.316719096


 
 k-points in units of 2pi/SCALE and weight: pymatgen with grid density = 1213 / numb
   0.00000000  0.00000000  0.00000000       0.002
   0.03732571 -0.01319662  0.00000000       0.016
   0.07465142 -0.02639325  0.00000000       0.016
   0.11197713 -0.03958987  0.00000000       0.016
   0.14930285 -0.05278650  0.00000000       0.008
   0.03732571  0.02639326  0.00000000       0.012
   0.07465142  0.01319664  0.00000000       0.047
   0.11197713  0.00000001  0.00000000       0.047
   0.14930285 -0.01319661  0.00000000       0.047
  -0.11197713  0.07917976  0.00000000       0.047
  -0.07465142  0.06598314  0.00000000       0.047
  -0.03732571  0.05278651  0.00000000       0.023
   0.07465142  0.05278652  0.00000000       0.012
   0.11197713  0.03958990  0.00000000       0.047
   0.14930285  0.02639327  0.00000000       0.047
  -0.11197713  0.11876965  0.00000000       0.047
  -0.07465142  0.10557302  0.00000000       0.023
   0.11197713  0.07917979  0.00000000       0.012
   0.14930285  0.06598316  0.00000000       0.047
  -0.11197713  0.15835954  0.00000000       0.023
   0.14930285  0.10557305  0.00000000       0.006
   0.09331428  0.02639327  0.03232501       0.047
   0.13063999  0.01319665  0.03232501       0.094
  -0.13063998  0.10557302  0.03232501       0.047
   0.13063999  0.05278653  0.03232501       0.047
  -0.13063998  0.14516291  0.03232501       0.094
  -0.09331427  0.13196628  0.03232501       0.047
  -0.13063998  0.18475279  0.03232501       0.023
  -0.11197712  0.15835954  0.06465002       0.012
 
 k-points in reciprocal lattice and weights: pymatgen with grid density = 1213 / numb
   0.00000000  0.00000000  0.00000000       0.002
   0.12500000  0.00000000  0.00000000       0.016
   0.25000000  0.00000000  0.00000000       0.016
   0.37500000  0.00000000  0.00000000       0.016
   0.50000000  0.00000000  0.00000000       0.008
   0.12500000  0.12500000  0.00000000       0.012
   0.25000000  0.12500000  0.00000000       0.047
   0.37500000  0.12500000  0.00000000       0.047
   0.50000000  0.12500000  0.00000000       0.047
  -0.37500000  0.12500000  0.00000000       0.047
  -0.25000000  0.12500000  0.00000000       0.047
  -0.12500000  0.12500000  0.00000000       0.023
   0.25000000  0.25000000  0.00000000       0.012
   0.37500000  0.25000000  0.00000000       0.047
   0.50000000  0.25000000  0.00000000       0.047
  -0.37500000  0.25000000  0.00000000       0.047
  -0.25000000  0.25000000  0.00000000       0.023
   0.37500000  0.37500000  0.00000000       0.012
   0.50000000  0.37500000  0.00000000       0.047
  -0.37500000  0.37500000  0.00000000       0.023
   0.50000000  0.50000000  0.00000000       0.006
   0.37500000  0.25000000  0.12500000       0.047
   0.50000000  0.25000000  0.12500000       0.094
  -0.37500000  0.25000000  0.12500000       0.047
   0.50000000  0.37500000  0.12500000       0.047
  -0.37500000  0.37500000  0.12500000       0.094
  -0.25000000  0.37500000  0.12500000       0.047
  -0.37500000  0.50000000  0.12500000       0.023
  -0.25000000  0.50000000  0.25000000       0.012
 
 position of ions in fractional coordinates (direct lattice) 
   0.25000000  0.25000000  0.25000000
   0.00000000  0.00000000  0.00000000
 
 position of ions in cartesian coordinates  (Angst):
   1.11629925  0.78934300  1.93348725
   0.00000000  0.00000000  0.00000000
 


--------------------------------------------------------------------------------------------------------


 k-point   1 :   0.0000 0.0000 0.0000  plane waves:    1639
 k-point   2 :   0.1250 0.0000 0.0000  plane waves:    1654
 k-point   3 :   0.2500 0.0000 0.0000  plane waves:    1642
 k-point   4 :   0.3750 0.0000 0.0000  plane waves:    1640
 k-point   5 :   0.5000 0.0000 0.0000  plane waves:    1676
 k-point   6 :   0.1250 0.1250 0.0000  plane waves:    1647
 k-point   7 :   0.2500 0.1250 0.0000  plane waves:    1647
 k-point   8 :   0.3750 0.1250 0.0000  plane waves:    1639
 k-point   9 :   0.5000 0.1250 0.0000  plane waves:    1650
 k-point  10 :  -0.3750 0.1250 0.0000  plane waves:    1643
 k-point  11 :  -0.2500 0.1250 0.0000  plane waves:    1642
 k-point  12 :  -0.1250 0.1250 0.0000  plane waves:    1650
 k-point  13 :   0.2500 0.2500 0.0000  plane waves:    1636
 k-point  14 :   0.3750 0.2500 0.0000  plane waves:    1654
 k-point  15 :   0.5000 0.2500 0.0000  plane waves:    1651
 k-point  16 :  -0.3750 0.2500 0.0000  plane waves:    1646
 k-point  17 :  -0.2500 0.2500 0.0000  plane waves:    1634
 k-point  18 :   0.3750 0.3750 0.0000  plane waves:    1652
 k-point  19 :   0.5000 0.3750 0.0000  plane waves:    1648
 k-point  20 :  -0.3750 0.3750 0.0000  plane waves:    1666
 k-point  21 :   0.5000 0.5000 0.0000  plane waves:    1660
 k-point  22 :   0.3750 0.2500 0.1250  plane waves:    1648
 k-point  23 :   0.5000 0.2500 0.1250  plane waves:    1636
 k-point  24 :  -0.3750 0.2500 0.1250  plane waves:    1644
 k-point  25 :   0.5000 0.3750 0.1250  plane waves:    1654
 k-point  26 :  -0.3750 0.3750 0.1250  plane waves:    1651
 k-point  27 :  -0.2500 0.3750 0.1250  plane waves:    1643
 k-point  28 :  -0.3750 0.5000 0.1250  plane waves:    1648
 k-point  29 :  -0.2500 0.5000 0.2500  plane waves:    1628

 maximum and minimum number of plane-waves per node :      1676     1628

 maximum number of plane-waves:      1676
 maximum index in each direction: 
   IXMAX=    8   IYMAX=    8   IZMAX=    8
   IXMIN=   -8   IYMIN=   -8   IZMIN=   -8


 serial   3D FFT for wavefunctions
 parallel 3D FFT for charge:
    minimum data exchange during FFTs selected (reduces bandwidth)


 total amount of memory used by VASP MPI-rank0    44163. kBytes
=======================================================================

   base      :      30000. kBytes
   nonlr-proj:       1161. kBytes
   fftplans  :       3408. kBytes
   grid      :       6448. kBytes
   one-center:          6. kBytes
   wavefun   :       3140. kBytes
 
     INWAV:  cpu time    0.0000: real time    0.0000
 initial charge density was supplied:
 number of electron       8.0000000 magnetization 
 keeping initial charge density in first step


--------------------------------------------------------------------------------------------------------


 Maximum index for non-local projection operator         6603
 Maximum index for augmentation-charges         9303 (set IRDMAX)


--------------------------------------------------------------------------------------------------------


 First call to EWALD:  gamma=   0.514
 Maximum number of real-space cells 3x 3x 3
 Maximum number of reciprocal cells 3x 3x 3

    FEWALD:  cpu time    0.0010: real time    0.0010


--------------------------------------- Iteration      1(   1)  ---------------------------------------


    POTLOK:  cpu time    0.0397: real time    0.0412
    SETDIJ:  cpu time    0.0368: real time    0.0369
     EDDAV:  cpu time    0.9348: real time    0.9366
 BZINTS: Fermi energy:    9.115608;    8.000000 electrons
         Band energy: 0.239400E+02;  BLOECHL correction:   -0.071288
       DOS:  cpu time    0.0026: real time    0.0026
    --------------------------------------------
      LOOP:  cpu time    1.0139: real time    1.0173

 eigenvalue-minimisations  :   928
 total energy-change (2. order) : 0.8167791E+01  (-0.3506858E+03)
 number of electron       8.0000000 magnetization 
 augmentation part        8.0000000 magnetization 

 Free energy of the ion-electron system (eV)
  ---------------------------------------------------
  alpha Z        PSCENC =         3.29317992
  Ewald energy   TEWEN  =      -226.94489173
  -Hartree energ DENC   =       -15.17364114
  -exchange      EXHF   =         0.00000000
  -V(xc)+E(xc)   XCENC  =       -18.06134870
  PAW double counting   =       828.15318592     -793.17190106
  entropy T*S    EENTRO =         0.00000000
  eigenvalues    EBANDS =        23.93998561
  atomic energy  EATOM  =       206.13322186
  Solvation  Ediel_sol  =         0.00000000
  ---------------------------------------------------
  free energy    TOTEN  =         8.16779067 eV

  energy without entropy =        8.16779067  energy(sigma->0) =        8.16779067


--------------------------------------------------------------------------------------------------------




--------------------------------------- Iteration      1(   2)  ---------------------------------------


     EDDAV:  cpu time    1.1526: real time    1.1554
 BZINTS: Fermi energy:    6.328178;    8.000000 electrons
         Band energy: 0.550011E+01;  BLOECHL correction:   -0.000000
       DOS:  cpu time    0.0018: real time    0.0018
    --------------------------------------------
      LOOP:  cpu time    1.1544: real time    1.1572

 eigenvalue-minimisations  :  1232
 total energy-change (2. order) :-0.1843988E+02  (-0.1774768E+02)
 number of electron       8.0000000 magnetization 
 augmentation part        8.0000000 magnetization 

 Free energy of the ion-electron system (eV)
  ---------------------------------------------------
  alpha Z        PSCENC =         3.29317992
  Ewald energy   TEWEN  =      -226.94489173
  -Hartree energ DENC   =       -15.17364114
  -exchange      EXHF   =         0.00000000
  -V(xc)+E(xc)   XCENC  =       -18.06134870
  PAW double counting   =       828.15318592     -793.17190106
  entropy T*S    EENTRO =         0.00000000
  eigenvalues    EBANDS =         5.50010693
  atomic energy  EATOM  =       206.13322186
  Solvation  Ediel_sol  =         0.00000000
  ---------------------------------------------------
  free energy    TOTEN  =       -10.27208802 eV

  energy without entropy =      -10.27208802  energy(sigma->0) =      -10.27208802


--------------------------------------------------------------------------------------------------------




--------------------------------------- Iteration      1(   3)  ---------------------------------------


     EDDAV:  cpu time    1.1573: real time    1.1582
 BZINTS: Fermi energy:    6.266826;    8.000000 electrons
         Band energy: 0.492802E+01;  BLOECHL correction:    0.000000
       DOS:  cpu time    0.0025: real time    0.0025
    --------------------------------------------
      LOOP:  cpu time    1.1598: real time    1.1607

 eigenvalue-minimisations  :  1232
 total energy-change (2. order) :-0.5720852E+00  (-0.5711939E+00)
 number of electron       8.0000000 magnetization 
 augmentation part        8.0000000 magnetization 

 Free energy of the ion-electron system (eV)
  ---------------------------------------------------
  alpha Z        PSCENC =         3.29317992
  Ewald energy   TEWEN  =      -226.94489173
  -Hartree energ DENC   =       -15.17364114
  -exchange      EXHF   =         0.00000000
  -V(xc)+E(xc)   XCENC  =       -18.06134870
  PAW double counting   =       828.15318592     -793.17190106
  entropy T*S    EENTRO =         0.00000000
  eigenvalues    EBANDS =         4.92802168
  atomic energy  EATOM  =       206.13322186
  Solvation  Ediel_sol  =         0.00000000
  ---------------------------------------------------
  free energy    TOTEN  =       -10.84417327 eV

  energy without entropy =      -10.84417327  energy(sigma->0) =      -10.84417327


--------------------------------------------------------------------------------------------------------




--------------------------------------- Iteration      1(   4)  ---------------------------------------


     EDDAV:  cpu time    1.0962: real time    1.1004
 BZINTS: Fermi energy:    6.266701;    8.000000 electrons
         Band energy: 0.492498E+01;  BLOECHL correction:   -0.000000
       DOS:  cpu time    0.0018: real time    0.0018
    --------------------------------------------
      LOOP:  cpu time    1.0980: real time    1.1022

 eigenvalue-minimisations  :  1160
 total energy-change (2. order) :-0.3045169E-02  (-0.3044993E-02)
 number of electron       8.0000000 magnetization 
 augmentation part        8.0000000 magnetization 

 Free energy of the ion-electron system (eV)
  ---------------------------------------------------
  alpha Z        PSCENC =         3.29317992
  Ewald energy   TEWEN  =      -226.94489173
  -Hartree energ DENC   =       -15.17364114
  -exchange      EXHF   =         0.00000000
  -V(xc)+E(xc)   XCENC  =       -18.06134870
  PAW double counting   =       828.15318592     -793.17190106
  entropy T*S    EENTRO =         0.00000000
  eigenvalues    EBANDS =         4.92497651
  atomic energy  EATOM  =       206.13322186
  Solvation  Ediel_sol  =         0.00000000
  ---------------------------------------------------
  free energy    TOTEN  =       -10.84721844 eV

  energy without entropy =      -10.84721844  energy(sigma->0) =      -10.84721844


--------------------------------------------------------------------------------------------------------




--------------------------------------- Iteration      1(   5)  ---------------------------------------


     EDDAV:  cpu time    1.3499: real time    1.3576
 BZINTS: Fermi energy:    6.266347;    8.000000 electrons
         Band energy: 0.492495E+01;  BLOECHL correction:    0.000000
       DOS:  cpu time    0.0018: real time    0.0018
    --------------------------------------------
      LOOP:  cpu time    1.3517: real time    1.3594

 eigenvalue-minimisations  :  1264
 total energy-change (2. order) :-0.2479843E-04  (-0.2480100E-04)
 number of electron       8.0000000 magnetization 
 augmentation part        8.0000000 magnetization 

 Free energy of the ion-electron system (eV)
  ---------------------------------------------------
  alpha Z        PSCENC =         3.29317992
  Ewald energy   TEWEN  =      -226.94489173
  -Hartree energ DENC   =       -15.17364114
  -exchange      EXHF   =         0.00000000
  -V(xc)+E(xc)   XCENC  =       -18.06134870
  PAW double counting   =       828.15318592     -793.17190106
  entropy T*S    EENTRO =         0.00000000
  eigenvalues    EBANDS =         4.92495171
  atomic energy  EATOM  =       206.13322186
  Solvation  Ediel_sol  =         0.00000000
  ---------------------------------------------------
  free energy    TOTEN  =       -10.84724323 eV

  energy without entropy =      -10.84724323  energy(sigma->0) =      -10.84724323


--------------------------------------------------------------------------------------------------------




--------------------------------------- Iteration      1(   6)  ---------------------------------------


     EDDAV:  cpu time    1.0344: real time    1.0357
 BZINTS: Fermi energy:    6.266398;    8.000000 electrons
         Band energy: 0.492495E+01;  BLOECHL correction:    0.000000
       DOS:  cpu time    0.0018: real time    0.0018
    --------------------------------------------
      LOOP:  cpu time    1.0362: real time    1.0375

 eigenvalue-minimisations  :  1088
 total energy-change (2. order) :-0.2616488E-06  (-0.2616675E-06)
 number of electron       8.0000000 magnetization 
 augmentation part        8.0000000 magnetization 

 Free energy of the ion-electron system (eV)
  ---------------------------------------------------
  alpha Z        PSCENC =         3.29317992
  Ewald energy   TEWEN  =      -226.94489173
  -Hartree energ DENC   =       -15.17364114
  -exchange      EXHF   =         0.00000000
  -V(xc)+E(xc)   XCENC  =       -18.06134870
  PAW double counting   =       828.15318592     -793.17190106
  entropy T*S    EENTRO =         0.00000000
  eigenvalues    EBANDS =         4.92495145
  atomic energy  EATOM  =       206.13322186
  Solvation  Ediel_sol  =         0.00000000
  ---------------------------------------------------
  free energy    TOTEN  =       -10.84724350 eV

  energy without entropy =      -10.84724350  energy(sigma->0) =      -10.84724350


--------------------------------------------------------------------------------------------------------




 average (electrostatic) potential at core
  the test charge radii are     0.9892
  (the norm of the test charge is              1.0000)
       1 -83.4834       2 -83.4834
 
 
 
 E-fermi :   6.2664     XC(G=0):  -9.3272     alpha+bet :-11.7317

 Fermi energy:         6.2663978142

 k-point     1 :       0.0000    0.0000    0.0000
  band No.  band energies     occupation 
      1      -6.1987      2.00000
      2       5.6162      2.00000
      3       5.6162      2.00000
      4       5.6162      2.00000
      5       8.1731      0.00000
      6       8.1731      0.00000
      7       8.1731      0.00000
      8       8.7493      0.00000
      9      13.3253      0.00000
     10      13.3253      0.00000
     11      13.4934      0.00000
     12      16.7985      0.00000
     13      16.7985      0.00000
     14      16.7985      0.00000
     15      20.8898      0.00000
     16      28.4714      0.00000

 k-point     2 :       0.1250    0.0000    0.0000
  band No.  band energies     occupation 
      1      -5.9982      2.00000
      2       4.0254      2.00000
      3       5.3338      2.00000
      4       5.3338      2.00000
      5       8.0592      0.00000
      6       8.5885      0.00000
      7       8.5886      0.00000
      8      10.1486      0.00000
      9      12.8524      0.00000
     10      12.8524      0.00000
     11      14.2692      0.00000
     12      16.2448      0.00000
     13      17.9436      0.00000
     14      17.9436      0.00000
     15      22.1040      0.00000
     16      26.4937      0.00000

 k-point     3 :       0.2500    0.0000    0.0000
  band No.  band energies     occupation 
      1      -5.4138      2.00000
      2       1.7299      2.00000
      3       4.8712      2.00000
      4       4.8712      2.00000
      5       7.5753      0.00000
      6       9.1064      0.00000
      7       9.1064      0.00000
      8      12.3672      0.00000
      9      12.8034      0.00000
     10      12.8034      0.00000
     11      14.5459      0.00000
     12      17.3280      0.00000
     13      20.1304      0.00000
     14      20.1304      0.00000
     15      23.2959      0.00000
     16      23.3411      0.00000

 k-point     4 :       0.3750    0.0000    0.0000
  band No.  band energies     occupation 
      1      -4.5393      2.00000
      2      -0.2545      2.00000
      3       4.5484      2.00000
      4       4.5485      2.00000
      5       7.2107      0.00000
      6       9.0693      0.00000
      7       9.0693      0.00000
      8      13.4538      0.00000
      9      14.1555      0.00000
     10      14.1555      0.00000
     11      15.1283      0.00000
     12      19.2373      0.00000
     13      19.2373      0.00000
     14      19.4789      0.00000
     15      22.0771      0.00000
     16      23.9889      0.00000

 k-point     5 :       0.5000    0.0000    0.0000
  band No.  band energies     occupation 
      1      -3.9201      2.00000
      2      -1.2525      2.00000
      3       4.4378      2.00000
      4       4.4378      2.00000
      5       7.0825      0.00000
      6       8.9657      0.00000
      7       8.9657      0.00000
      8      13.3183      0.00000
      9      16.1114      0.00000
     10      16.1114      0.00000
     11      16.7975      0.00000
     12      16.8361      0.00000
     13      16.8361      0.00000
     14      18.3565      0.00000
     15      24.7563      0.00000
     16      25.3648      0.00000

 k-point     6 :       0.1250    0.1250    0.0000
  band No.  band energies     occupation 
      1      -5.9306      2.00000
      2       4.2639      2.00000
      3       4.8297      2.00000
      4       4.8297      2.00000
      5       7.6318      0.00000
      6       9.2880      0.00000
      7       9.2880      0.00000
      8       9.8360      0.00000
      9      12.1004      0.00000
     10      13.6236      0.00000
     11      14.5637      0.00000
     12      17.2650      0.00000
     13      17.2650      0.00000
     14      17.7432      0.00000
     15      22.6809      0.00000
     16      25.9817      0.00000

 k-point     7 :       0.2500    0.1250    0.0000
  band No.  band energies     occupation 
      1      -5.4706      2.00000
      2       2.4104      2.00000
      3       4.3274      2.00000
      4       4.3910      2.00000
      5       7.7612      0.00000
      6       9.2412      0.00000
      7      10.0436      0.00000
      8      10.3549      0.00000
      9      12.9768      0.00000
     10      13.7847      0.00000
     11      15.5515      0.00000
     12      17.1135      0.00000
     13      18.6574      0.00000
     14      19.9055      0.00000
     15      23.0295      0.00000
     16      23.4910      0.00000

 k-point     8 :       0.3750    0.1250    0.0000
  band No.  band energies     occupation 
      1      -4.6720      2.00000
      2       0.3885      2.00000
      3       3.8077      2.00000
      4       4.0625      2.00000
      5       7.8443      0.00000
      6       9.2089      0.00000
      7      10.0578      0.00000
      8      11.0556      0.00000
      9      14.8859      0.00000
     10      14.8973      0.00000
     11      15.4067      0.00000
     12      18.8873      0.00000
     13      18.8996      0.00000
     14      20.6559      0.00000
     15      22.1544      0.00000
     16      23.0608      0.00000

 k-point     9 :       0.5000    0.1250    0.0000
  band No.  band energies     occupation 
      1      -3.8331      2.00000
      2      -1.0419      2.00000
      3       3.3707      2.00000
      4       4.0845      2.00000
      5       7.7792      0.00000
      6       9.1049      0.00000
      7       9.7098      0.00000
      8      12.9208      0.00000
      9      14.5595      0.00000
     10      16.0329      0.00000
     11      17.0180      0.00000
     12      17.1547      0.00000
     13      17.9408      0.00000
     14      20.4489      0.00000
     15      23.7208      0.00000
     16      25.0815      0.00000

 k-point    10 :      -0.3750    0.1250    0.0000
  band No.  band energies     occupation 
      1      -4.0703      2.00000
      2      -0.6807      2.00000
      3       3.1955      2.00000
      4       4.3737      2.00000
      5       7.9287      0.00000
      6       9.2239      0.00000
      7       9.4803      0.00000
      8      13.4439      0.00000
      9      13.6750      0.00000
     10      14.7509      0.00000
     11      16.6934      0.00000
     12      17.8982      0.00000
     13      19.7431      0.00000
     14      20.1017      0.00000
     15      22.3094      0.00000
     16      24.0745      0.00000

 k-point    11 :      -0.2500    0.1250    0.0000
  band No.  band energies     occupation 
      1      -4.9720      2.00000
      2       1.0348      2.00000
      3       3.3498      2.00000
      4       4.8549      2.00000
      5       8.2719      0.00000
      6       9.2778      0.00000
      7       9.4517      0.00000
      8      11.8276      0.00000
      9      12.0923      0.00000
     10      15.3614      0.00000
     11      15.5749      0.00000
     12      17.9189      0.00000
     13      19.4690      0.00000
     14      20.9135      0.00000
     15      21.8429      0.00000
     16      23.4240      0.00000

 k-point    12 :      -0.1250    0.1250    0.0000
  band No.  band energies     occupation 
      1      -5.6682      2.00000
      2       2.9416      2.00000
      3       4.0272      2.00000
      4       5.3265      2.00000
      5       8.5849      0.00000
      6       8.7255      0.00000
      7       8.9470      0.00000
      8      11.0464      0.00000
      9      11.9721      0.00000
     10      13.5819      0.00000
     11      15.2718      0.00000
     12      16.7305      0.00000
     13      17.8949      0.00000
     14      19.9749      0.00000
     15      23.1345      0.00000
     16      23.5815      0.00000

 k-point    13 :       0.2500    0.2500    0.0000
  band No.  band energies     occupation 
      1      -5.1362      2.00000
      2       2.0976      2.00000
      3       3.7677      2.00000
      4       3.7677      2.00000
      5       6.7677      0.00000
      6       8.7520      0.00000
      7      11.3059      0.00000
      8      11.3059      0.00000
      9      13.4846      0.00000
     10      14.5167      0.00000
     11      16.9174      0.00000
     12      18.5339      0.00000
     13      18.5339      0.00000
     14      19.2449      0.00000
     15      22.8358      0.00000
     16      22.8360      0.00000

 k-point    14 :       0.3750    0.2500    0.0000
  band No.  band energies     occupation 
      1      -4.4397      2.00000
      2       0.7008      2.00000
      3       3.0017      2.00000
      4       3.4546      2.00000
      5       6.9872      0.00000
      6       8.5193      0.00000
      7      11.5249      0.00000
      8      11.8233      0.00000
      9      15.5400      0.00000
     10      15.5869      0.00000
     11      17.1637      0.00000
     12      18.7026      0.00000
     13      19.2495      0.00000
     14      20.2912      0.00000
     15      21.3757      0.00000
     16      22.5683      0.00000

 k-point    15 :       0.5000    0.2500    0.0000
  band No.  band energies     occupation 
      1      -3.5347      2.00000
      2      -0.7074      2.00000
      3       2.1538      2.00000
      4       3.4566      2.00000
      5       7.1580      0.00000
      6      10.0481      0.00000
      7      11.2626      0.00000
      8      11.4932      0.00000
      9      15.7027      0.00000
     10      16.0768      0.00000
     11      17.6656      0.00000
     12      18.1377      0.00000
     13      18.4921      0.00000
     14      22.2710      0.00000
     15      23.1728      0.00000
     16      23.9840      0.00000

 k-point    16 :      -0.3750    0.2500    0.0000
  band No.  band energies     occupation 
      1      -3.3376      2.00000
      2      -0.9574      2.00000
      3       1.7064      2.00000
      4       3.7678      2.00000
      5       7.4721      0.00000
      6      11.0176      0.00000
      7      11.0589      0.00000
      8      12.4998      0.00000
      9      13.5093      0.00000
     10      13.5640      0.00000
     11      18.0950      0.00000
     12      20.2982      0.00000
     13      20.5112      0.00000
     14      21.4416      0.00000
     15      21.8950      0.00000
     16      23.7974      0.00000

 k-point    17 :      -0.2500    0.2500    0.0000
  band No.  band energies     occupation 
      1      -4.1946      2.00000
      2       0.1767      2.00000
      3       1.9471      2.00000
      4       4.3140      2.00000
      5       8.0540      0.00000
      6      10.3650      0.00000
      7      10.6995      0.00000
      8      11.6577      0.00000
      9      12.0700      0.00000
     10      15.1382      0.00000
     11      18.1106      0.00000
     12      18.6461      0.00000
     13      18.9606      0.00000
     14      22.1221      0.00000
     15      22.5001      0.00000
     16      22.8192      0.00000

 k-point    18 :       0.3750    0.3750    0.0000
  band No.  band energies     occupation 
      1      -3.8477      2.00000
      2      -0.0961      2.00000
      3       3.0636      2.00000
      4       3.0636      2.00000
      5       6.2665      0.00000
      6       7.1920      0.00000
      7      13.5535      0.00000
      8      13.5535      0.00000
      9      15.9991      0.00000
     10      16.0987      0.00000
     11      18.5006      0.00000
     12      18.5006      0.00000
     13      19.0787      0.00000
     14      20.6737      0.00000
     15      21.4609      0.00000
     16      22.3053      0.00000

 k-point    19 :       0.5000    0.3750    0.0000
  band No.  band energies     occupation 
      1      -2.9684      2.00000
      2      -1.1626      2.00000
      3       2.2581      2.00000
      4       2.9884      2.00000
      5       6.5470      0.00000
      6       7.6012      0.00000
      7      13.7907      0.00000
      8      13.8464      0.00000
      9      16.2348      0.00000
     10      16.3358      0.00000
     11      17.8325      0.00000
     12      18.2543      0.00000
     13      20.3579      0.00000
     14      20.4220      0.00000
     15      21.4152      0.00000
     16      24.1515      0.00000

 k-point    20 :      -0.3750    0.3750    0.0000
  band No.  band energies     occupation 
      1      -2.5451      2.00000
      2      -1.5479      2.00000
      3       1.4158      2.00000
      4       3.2406      2.00000
      5       6.8503      0.00000
      6       9.7283      0.00000
      7      12.9971      0.00000
      8      13.5325      0.00000
      9      13.6991      0.00000
     10      14.0966      0.00000
     11      20.1180      0.00000
     12      20.3821      0.00000
     13      20.9106      0.00000
     14      21.1468      0.00000
     15      21.3552      0.00000
     16      22.4606      0.00000

 k-point    21 :       0.5000    0.5000    0.0000
  band No.  band energies     occupation 
      1      -2.1302      2.00000
      2      -2.1302      2.00000
      3       2.8222      2.00000
      4       2.8222      2.00000
      5       6.3677      0.00000
      6       6.3677      0.00000
      7      15.5527      0.00000
      8      15.5527      0.00000
      9      16.5233      0.00000
     10      16.5233      0.00000
     11      18.0593      0.00000
     12      18.0593      0.00000
     13      18.4187      0.00000
     14      18.4187      0.00000
     15      24.2924      0.00000
     16      24.2925      0.00000

 k-point    22 :       0.3750    0.2500    0.1250
  band No.  band energies     occupation 
      1      -4.8938      2.00000
      2       1.3479      2.00000
      3       2.9642      2.00000
      4       4.2161      2.00000
      5       8.0595      0.00000
      6       9.4435      0.00000
      7       9.8193      0.00000
      8      11.0573      0.00000
      9      13.3295      0.00000
     10      15.7220      0.00000
     11      16.5813      0.00000
     12      17.6492      0.00000
     13      19.3585      0.00000
     14      20.5585      0.00000
     15      21.3205      0.00000
     16      23.6330      0.00000

 k-point    23 :       0.5000    0.2500    0.1250
  band No.  band energies     occupation 
      1      -4.0244      2.00000
      2      -0.1717      2.00000
      3       2.3602      2.00000
      4       3.7287      2.00000
      5       8.4807      0.00000
      6       9.1462      0.00000
      7      10.5942      0.00000
      8      11.4948      0.00000
      9      14.5475      0.00000
     10      15.2435      0.00000
     11      17.5192      0.00000
     12      18.3660      0.00000
     13      19.6887      0.00000
     14      20.6083      0.00000
     15      22.7131      0.00000
     16      23.6177      0.00000

 k-point    24 :      -0.3750    0.2500    0.1250
  band No.  band energies     occupation 
      1      -3.3902      2.00000
      2      -1.0912      2.00000
      3       2.2288      2.00000
      4       3.5057      2.00000
      5       8.6401      0.00000
      6       8.7627      0.00000
      7      11.4634      0.00000
      8      12.6826      0.00000
      9      12.9239      0.00000
     10      16.1245      0.00000
     11      17.1701      0.00000
     12      17.8912      0.00000
     13      20.9037      0.00000
     14      21.0155      0.00000
     15      23.5313      0.00000
     16      23.8732      0.00000

 k-point    25 :       0.5000    0.3750    0.1250
  band No.  band energies     occupation 
      1      -3.6543      2.00000
      2      -0.3114      2.00000
      3       2.3284      2.00000
      4       2.9203      2.00000
      5       7.5721      0.00000
      6       8.2751      0.00000
      7      11.3016      0.00000
      8      13.5049      0.00000
      9      15.6724      0.00000
     10      15.7266      0.00000
     11      18.3016      0.00000
     12      18.8047      0.00000
     13      19.6858      0.00000
     14      20.1374      0.00000
     15      22.1131      0.00000
     16      22.5123      0.00000

 k-point    26 :      -0.3750    0.3750    0.1250
  band No.  band energies     occupation 
      1      -2.8008      2.00000
      2      -1.2599      2.00000
      3       1.6482      2.00000
      4       2.7244      2.00000
      5       8.0115      0.00000
      6       9.8853      0.00000
      7      10.8291      0.00000
      8      12.9685      0.00000
      9      13.9245      0.00000
     10      16.5771      0.00000
     11      17.6890      0.00000
     12      19.8028      0.00000
     13      20.8033      0.00000
     14      21.4026      0.00000
     15      22.9789      0.00000
     16      23.8008      0.00000

 k-point    27 :      -0.2500    0.3750    0.1250
  band No.  band energies     occupation 
      1      -3.1444      2.00000
      2      -0.9020      2.00000
      3       1.4858      2.00000
      4       3.0910      2.00000
      5       8.4809      0.00000
      6      10.1309      0.00000
      7      10.7826      0.00000
      8      12.5796      0.00000
      9      13.3828      0.00000
     10      14.7634      0.00000
     11      19.5536      0.00000
     12      19.7567      0.00000
     13      20.0916      0.00000
     14      21.6990      0.00000
     15      21.9591      0.00000
     16      23.7546      0.00000

 k-point    28 :      -0.3750    0.5000    0.1250
  band No.  band energies     occupation 
      1      -2.0565      2.00000
      2      -2.0565      2.00000
      3       2.2771      2.00000
      4       2.2771      2.00000
      5       7.6022      0.00000
      6       7.6022      0.00000
      7      13.3684      0.00000
      8      13.3684      0.00000
      9      16.0703      0.00000
     10      16.0703      0.00000
     11      18.3377      0.00000
     12      18.3377      0.00000
     13      20.9936      0.00000
     14      20.9936      0.00000
     15      22.8452      0.00000
     16      22.8452      0.00000

 k-point    29 :      -0.2500    0.5000    0.2500
  band No.  band energies     occupation 
      1      -1.9757      2.00000
      2      -1.9757      2.00000
      3       1.8552      2.00000
      4       1.8552      2.00000
      5       9.8864      0.00000
      6       9.8864      0.00000
      7      10.5480      0.00000
      8      10.5480      0.00000
      9      16.0680      0.00000
     10      16.0680      0.00000
     11      18.4872      0.00000
     12      18.4872      0.00000
     13      21.9181      0.00000
     14      21.9181      0.00000
     15      24.0194      0.00000
     16      24.0195      0.00000


--------------------------------------------------------------------------------------------------------


 soft charge-density along one line, spin component           1
         0         1         2         3         4         5         6         7         8         9
 total charge-density along one line
 
 pseudopotential strength for first ion, spin component:           1
 18.437  25.723  -0.000  -0.000   0.000  -0.000  -0.000   0.000
 25.723  35.893  -0.000  -0.000   0.000  -0.000  -0.000   0.000
 -0.000  -0.000   4.181   0.000  -0.000   7.791   0.000  -0.000
 -0.000  -0.000   0.000   4.181   0.000   0.000   7.791   0.000
  0.000   0.000  -0.000   0.000   4.181  -0.000   0.000   7.791
 -0.000  -0.000   7.791   0.000  -0.000  14.528   0.000  -0.000
 -0.000  -0.000   0.000   7.791   0.000   0.000  14.528   0.000
  0.000   0.000  -0.000   0.000   7.791  -0.000   0.000  14.528
 total augmentation occupancy for first ion, spin component:           1
  2.000   0.000   0.000   0.000   0.000   0.000   0.000   0.000
  0.000   0.000   0.000   0.000   0.000   0.000   0.000   0.000
  0.000   0.000   0.667  -0.000  -0.000   0.000   0.000   0.000
  0.000   0.000  -0.000   0.667  -0.000   0.000   0.000   0.000
  0.000   0.000  -0.000  -0.000   0.667   0.000   0.000   0.000
  0.000   0.000   0.000   0.000   0.000   0.000   0.000   0.000
  0.000   0.000   0.000   0.000   0.000   0.000   0.000   0.000
  0.000   0.000   0.000   0.000   0.000   0.000   0.000   0.000


------------------------ aborting loop because EDIFF is reached ----------------------------------------





 total charge

# of ion       s       p       d       tot
------------------------------------------
    1        0.750   0.929   0.000   1.679
    2        0.750   0.929   0.000   1.679
--------------------------------------------------
tot          1.500   1.857   0.000   3.358
 
    CHARGE:  cpu time    0.0225: real time    0.0225
    FORLOC:  cpu time    0.0014: real time    0.0014
    FORNL :  cpu time    0.2687: real time    0.2689
    STRESS:  cpu time    0.8248: real time    0.8252
    FORCOR:  cpu time    0.0354: real time    0.0355
    FORHAR:  cpu time    0.0079: real time    0.0079
    OFIELD:  cpu time    0.0003: real time    0.0003

  FORCE on cell =-STRESS in cart. coord.  units (eV):
  Direction    XX          YY          ZZ          XY          YZ          ZX
  --------------------------------------------------------------------------------------
  Alpha Z     3.29318     3.29318     3.29318
  Ewald     -75.64832   -75.64835   -75.64832    -0.00001     0.00001     0.00001
  Hartree     5.06224     5.06224     5.06224    -0.00000     0.00000     0.00000
  E(xc)     -25.24675   -25.24675   -25.24675    -0.00000    -0.00000    -0.00000
  Local     -29.50901   -29.50901   -29.50902     0.00001    -0.00000    -0.00000
  n-local    73.79781    77.13957    81.35781    -0.94187    -0.70984    -0.01035
  augment   -11.64402   -11.64402   -11.64402    -0.00000    -0.00000    -0.00000
  Kinetic    53.02959    55.09096    60.67710     0.82801     1.03689    -0.53867
  Fock        0.00000     0.00000     0.00000     0.00000     0.00000     0.00000
  -------------------------------------------------------------------------------------
  Total       0.00491     0.00491     0.00491    -0.00000    -0.00000    -0.00000
  in kB       0.19243     0.19243     0.19243    -0.00000    -0.00000    -0.00000
  external pressure =        0.19 kB  Pullay stress =        0.00 kB


 VOLUME and BASIS-vectors are now :
 -----------------------------------------------------------------------------
  energy-cutoff  :      680.00
  volume of cell :       40.89
      direct lattice vectors                 reciprocal lattice vectors
     3.348898000  0.000000000  1.933487000     0.298605691 -0.105573000  0.000000000
     1.116299000  3.157372000  1.933487000     0.000000000  0.316719094  0.000000000
     0.000000000  0.000000000  3.866975000    -0.149302807 -0.105573020  0.258600069

  length of vectors
     3.866974243  3.866974707  3.866975000     0.316719145  0.316719094  0.316719096


 FORCES acting on ions
    electron-ion (+dipol)            ewald-force                    non-local-force                 convergence-correction
 -----------------------------------------------------------------------------------------------
   0.371E-05 -.681E-05 -.831E-05   -.634E-05 0.116E-04 0.142E-04   -.516E-16 -.202E-16 -.815E-16   -.494E-09 0.930E-09 0.114E-08
   -.371E-05 0.681E-05 0.831E-05   0.634E-05 -.116E-04 -.142E-04   0.595E-16 0.105E-16 0.868E-16   0.494E-09 -.930E-09 -.114E-08
 -----------------------------------------------------------------------------------------------
   -.346E-13 0.293E-13 0.112E-12   0.718E-18 -.107E-15 0.148E-15   0.788E-17 -.961E-17 0.530E-17   0.185E-13 -.145E-13 -.638E-15
 
 
 POSITION                                       TOTAL-FORCE (eV/Angst)
 -----------------------------------------------------------------------------------
      1.11630      0.78934      1.93349        -0.000000      0.000000     -0.000000
      0.00000      0.00000      0.00000         0.000000     -0.000000      0.000000
 -----------------------------------------------------------------------------------
    total drift:                               -0.000000      0.000000      0.000000


--------------------------------------------------------------------------------------------------------



  FREE ENERGIE OF THE ION-ELECTRON SYSTEM (eV)
  ---------------------------------------------------
  free  energy   TOTEN  =       -10.84724350 eV

  energy  without entropy=      -10.84724350  energy(sigma->0) =      -10.84724350
 


--------------------------------------------------------------------------------------------------------


    POTLOK:  cpu time    0.0722: real time    0.0722


--------------------------------------------------------------------------------------------------------


     LOOP+:  cpu time    8.0927: real time    8.1137
    4ORBIT:  cpu time    0.0000: real time    0.0000



 total charge

# of ion       s       p       d       tot
------------------------------------------
    1        0.750   0.929   0.000   1.679
    2        0.750   0.929   0.000   1.679
--------------------------------------------------
tot          1.500   1.857   0.000   3.358
 
 BZINTS: Fermi energy:    6.266398;    8.000000 electrons
         Band energy: 0.492495E+01;  BLOECHL correction:    0.000000

 total amount of memory used by VASP MPI-rank0    44163. kBytes
=======================================================================

   base      :      30000. kBytes
   nonlr-proj:       1161. kBytes
   fftplans  :       3408. kBytes
   grid      :       6448. kBytes
   one-center:          6. kBytes
   wavefun   :       3140. kBytes
 
  
  
 General timing and accounting informations for this job:
 ========================================================
  
                  Total CPU time used (sec):       11.755
                            User time (sec):       10.529
                          System time (sec):        1.227
                         Elapsed time (sec):       11.802
  
                   Maximum memory used (kb):    46563328.
                   Average memory used (kb):          N/A
  
                          Minor page faults:        15732
                          Major page faults:          112
                 Voluntary context switches:            8
