<?xml version="1.0" encoding="ISO-8859-1"?>
<modeling>
 <generator>
  <i name="program" type="string">vasp </i>
  <i name="version" type="string">6.2.1  </i>
  <i name="subversion" type="string">16May21 (build Oct 27 2021 18:14:32) complex                          parallel </i>
  <i name="platform" type="string">LinuxIFC </i>
  <i name="date" type="string">2021 10 28 </i>
  <i name="time" type="string">14:48:07 </i>
 </generator>
 <incar>
  <i type="string" name="PREC">Accurate</i>
  <i type="string" name="ALGO">Normal</i>
  <i type="int" name="ISPIN">     1</i>
  <i type="int" name="ICHARG">    11</i>
  <i type="int" name="NELM">   200</i>
  <i type="int" name="IBRION">    -1</i>
  <i name="EDIFF">      0.00001000</i>
  <i name="EDIFFG">     -0.02000000</i>
  <i type="int" name="NSW">     0</i>
  <i type="int" name="ISIF">     3</i>
  <i type="int" name="ISYM">     2</i>
  <i name="ENCUT">    680.00000000</i>
  <i name="ENAUG">   1360.00000000</i>
  <i type="int" name="NBANDS">    15</i>
  <i type="int" name="NEDOS">  5326</i>
  <i type="string" name="LREAL">Auto</i>
  <i type="int" name="ISMEAR">    -5</i>
  <i name="SIGMA">      0.20000000</i>
  <i type="logical" name="LWAVE"> F  </i>
  <i type="logical" name="LCHARG"> F  </i>
  <i type="logical" name="LVTOT"> T  </i>
  <i type="int" name="LORBIT">    11</i>
  <i type="logical" name="LELF"> T  </i>
  <i type="logical" name="LASPH"> T  </i>
  <i type="logical" name="LAECHG"> T  </i>
  <i type="logical" name="LMIXTAU"> T  </i>
 </incar>
 <primitive_cell>
  <structure name="primitive_cell" >
   <crystal>
    <varray name="basis" >
     <v>       3.34889800       0.00000000       1.93348700 </v>
     <v>       1.11629900       3.15737200       1.93348700 </v>
     <v>       0.00000000       0.00000000       3.86697500 </v>
    </varray>
    <i name="volume">     40.88829843 </i>
    <varray name="rec_basis" >
     <v>       0.29860569      -0.10557300       0.00000000 </v>
     <v>       0.00000000       0.31671909       0.00000000 </v>
     <v>      -0.14930281      -0.10557302       0.25860007 </v>
    </varray>
   </crystal>
   <varray name="positions" >
    <v>       0.25000000       0.25000000       0.25000000 </v>
    <v>       0.00000000       0.00000000       0.00000000 </v>
   </varray>
  </structure>
  <varray name="primitive_index" >
   <v type="int" >        1 </v>
   <v type="int" >        2 </v>
  </varray>
 </primitive_cell>
 <kpoints>
  <generation param="Gamma">
   <v type="int" name="divisions">       8        8        8 </v>
   <v name="usershift">      0.00000000       0.00000000       0.00000000 </v>
   <v name="genvec1">      0.12500000      -0.00000000       0.00000000 </v>
   <v name="genvec2">      0.00000000       0.12500000       0.00000000 </v>
   <v name="genvec3">      0.00000000       0.00000000       0.12500000 </v>
   <v name="shift">      0.00000000       0.00000000       0.00000000 </v>
  </generation>
  <varray name="kpointlist" >
   <v>       0.00000000       0.00000000       0.00000000 </v>
   <v>       0.12500000       0.00000000       0.00000000 </v>
   <v>       0.25000000       0.00000000       0.00000000 </v>
   <v>       0.37500000       0.00000000       0.00000000 </v>
   <v>       0.50000000       0.00000000       0.00000000 </v>
   <v>       0.12500000       0.12500000       0.00000000 </v>
   <v>       0.25000000       0.12500000       0.00000000 </v>
   <v>       0.37500000       0.12500000       0.00000000 </v>
   <v>       0.50000000       0.12500000       0.00000000 </v>
   <v>      -0.37500000       0.12500000       0.00000000 </v>
   <v>      -0.25000000       0.12500000       0.00000000 </v>
   <v>      -0.12500000       0.12500000       0.00000000 </v>
   <v>       0.25000000       0.25000000       0.00000000 </v>
   <v>       0.37500000       0.25000000       0.00000000 </v>
   <v>       0.50000000       0.25000000       0.00000000 </v>
   <v>      -0.37500000       0.25000000       0.00000000 </v>
   <v>      -0.25000000       0.25000000       0.00000000 </v>
   <v>       0.37500000       0.37500000       0.00000000 </v>
   <v>       0.50000000       0.37500000       0.00000000 </v>
   <v>      -0.37500000       0.37500000       0.00000000 </v>
   <v>       0.50000000       0.50000000       0.00000000 </v>
   <v>       0.37500000       0.25000000       0.12500000 </v>
   <v>       0.50000000       0.25000000       0.12500000 </v>
   <v>      -0.37500000       0.25000000       0.12500000 </v>
   <v>       0.50000000       0.37500000       0.12500000 </v>
   <v>      -0.37500000       0.37500000       0.12500000 </v>
   <v>      -0.25000000       0.37500000       0.12500000 </v>
   <v>      -0.37500000       0.50000000       0.12500000 </v>
   <v>      -0.25000000       0.50000000       0.25000000 </v>
  </varray>
  <varray name="weights" >
   <v>       0.00195312 </v>
   <v>       0.01562500 </v>
   <v>       0.01562500 </v>
   <v>       0.01562500 </v>
   <v>       0.00781250 </v>
   <v>       0.01171875 </v>
   <v>       0.04687500 </v>
   <v>       0.04687500 </v>
   <v>       0.04687500 </v>
   <v>       0.04687500 </v>
   <v>       0.04687500 </v>
   <v>       0.02343750 </v>
   <v>       0.01171875 </v>
   <v>       0.04687500 </v>
   <v>       0.04687500 </v>
   <v>       0.04687500 </v>
   <v>       0.02343750 </v>
   <v>       0.01171875 </v>
   <v>       0.04687500 </v>
   <v>       0.02343750 </v>
   <v>       0.00585938 </v>
   <v>       0.04687500 </v>
   <v>       0.09375000 </v>
   <v>       0.04687500 </v>
   <v>       0.04687500 </v>
   <v>       0.09375000 </v>
   <v>       0.04687500 </v>
   <v>       0.02343750 </v>
   <v>       0.01171875 </v>
  </varray>
  <varray name="tetrahedronlist"  type="int" >
   <v type="int" >       24        1        2        2        6 </v>
   <v type="int" >       48        2        6        7       12 </v>
   <v type="int" >       48        2        3        7       12 </v>
   <v type="int" >       24        2        2        6       12 </v>
   <v type="int" >       48        3        7        8       11 </v>
   <v type="int" >       48        3        4        8       11 </v>
   <v type="int" >       48        3        7       11       12 </v>
   <v type="int" >       48        4        8        9       10 </v>
   <v type="int" >       48        4        5        9       10 </v>
   <v type="int" >       48        4        8       10       11 </v>
   <v type="int" >       48        5        9        9       10 </v>
   <v type="int" >       24        6        7        7       13 </v>
   <v type="int" >       24        6        7        7       12 </v>
   <v type="int" >       48        7       13       14       22 </v>
   <v type="int" >       48        7        8       14       22 </v>
   <v type="int" >       48        7        8       11       22 </v>
   <v type="int" >       24        7        7       13       22 </v>
   <v type="int" >       24        7        7       12       22 </v>
   <v type="int" >       48        7       11       12       22 </v>
   <v type="int" >       48        8       14       15       23 </v>
   <v type="int" >       48        8        9       15       23 </v>
   <v type="int" >       48        8        9       10       23 </v>
   <v type="int" >       48        8       14       22       23 </v>
   <v type="int" >       48        8       11       22       23 </v>
   <v type="int" >       48        8       10       11       23 </v>
   <v type="int" >       48        9       15       16       24 </v>
   <v type="int" >       48        9       10       16       24 </v>
   <v type="int" >       48        9        9       10       24 </v>
   <v type="int" >       48        9       15       23       24 </v>
   <v type="int" >       48        9       10       23       24 </v>
   <v type="int" >       48       10       16       17       23 </v>
   <v type="int" >       48       10       11       17       23 </v>
   <v type="int" >       48       10       16       23       24 </v>
   <v type="int" >       24       11       11       17       22 </v>
   <v type="int" >       24       11       11       12       22 </v>
   <v type="int" >       48       11       17       22       23 </v>
   <v type="int" >       24       13       14       14       18 </v>
   <v type="int" >       24       13       14       14       22 </v>
   <v type="int" >       48       14       18       19       25 </v>
   <v type="int" >       48       14       15       19       25 </v>
   <v type="int" >       48       14       15       23       25 </v>
   <v type="int" >       24       14       14       18       25 </v>
   <v type="int" >       24       14       14       22       25 </v>
   <v type="int" >       48       14       22       23       25 </v>
   <v type="int" >       48       15       19       20       26 </v>
   <v type="int" >       48       15       16       20       26 </v>
   <v type="int" >       48       15       16       24       26 </v>
   <v type="int" >       48       15       19       25       26 </v>
   <v type="int" >       48       15       23       25       26 </v>
   <v type="int" >       48       15       23       24       26 </v>
   <v type="int" >       24       16       16       20       27 </v>
   <v type="int" >       24       16       16       17       27 </v>
   <v type="int" >       48       16       17       23       27 </v>
   <v type="int" >       48       16       20       26       27 </v>
   <v type="int" >       48       16       24       26       27 </v>
   <v type="int" >       48       16       23       24       27 </v>
   <v type="int" >       24       17       23       23       27 </v>
   <v type="int" >       24       17       22       23       23 </v>
   <v type="int" >       24       18       19       19       21 </v>
   <v type="int" >       24       18       19       19       25 </v>
   <v type="int" >       48       19       19       21       28 </v>
   <v type="int" >       24       19       19       20       28 </v>
   <v type="int" >       48       19       20       26       28 </v>
   <v type="int" >       24       19       19       25       28 </v>
   <v type="int" >       48       19       25       26       28 </v>
   <v type="int" >       24       20       26       26       28 </v>
   <v type="int" >       24       20       26       26       27 </v>
   <v type="int" >       24       22       23       23       25 </v>
   <v type="int" >       48       23       25       26       27 </v>
   <v type="int" >       48       23       24       26       27 </v>
   <v type="int" >       24       23       23       25       27 </v>
   <v type="int" >       48       24       26       26       27 </v>
   <v type="int" >       24       25       26       26       28 </v>
   <v type="int" >       24       25       26       26       27 </v>
   <v type="int" >       48       26       26       28       29 </v>
   <v type="int" >       96       26       26       27       29 </v>
  </varray>
  <i name="volumeweight">      0.00032552 </i>
 </kpoints>
 <parameters>
  <separator name="general" >
   <i type="string" name="SYSTEM">unknown system</i>
   <i type="logical" name="LCOMPAT"> F  </i>
  </separator>
  <separator name="electronic" >
   <i type="string" name="PREC">accura</i>
   <i name="ENMAX">    680.00000000</i>
   <i name="ENAUG">   1360.00000000</i>
   <i name="EDIFF">      0.00001000</i>
   <i type="int" name="IALGO">    38</i>
   <i type="int" name="IWAVPR">    10</i>
   <i type="int" name="NBANDS">    16</i>
   <i type="int" name="NBANDSLOW">    -1</i>
   <i type="int" name="NBANDSHIGH">    -1</i>
   <i name="NELECT">      8.00000000</i>
   <i type="int" name="TURBO">     0</i>
   <i type="int" name="IRESTART">     0</i>
   <i type="int" name="NREBOOT">     0</i>
   <i type="int" name="NMIN">     0</i>
   <i name="EREF">      0.00000000</i>
   <separator name="electronic smearing" >
    <i type="int" name="ISMEAR">    -5</i>
    <i name="SIGMA">      0.20000000</i>
    <i name="KSPACING">      0.50000000</i>
    <i type="logical" name="KGAMMA"> T  </i>
    <i type="logical" name="KBLOWUP"> T  </i>
   </separator>
   <separator name="electronic projectors" >
    <i type="logical" name="LREAL"> T  </i>
    <v name="ROPT">     -0.00025000</v>
    <i type="int" name="LMAXPAW">  -100</i>
    <i type="int" name="LMAXMIX">     2</i>
    <i type="logical" name="NLSPLINE"> F  </i>
   </separator>
   <separator name="electronic startup" >
    <i type="int" name="ISTART">     0</i>
    <i type="int" name="ICHARG">    11</i>
    <i type="int" name="INIWAV">     1</i>
   </separator>
   <separator name="electronic spin" >
    <i type="int" name="ISPIN">     1</i>
    <i type="logical" name="LNONCOLLINEAR"> F  </i>
    <v name="MAGMOM">      1.00000000      1.00000000</v>
    <i name="NUPDOWN">     -1.00000000</i>
    <i type="logical" name="LSORBIT"> F  </i>
    <v name="SAXIS">      0.00000000      0.00000000      1.00000000</v>
    <i type="logical" name="LSPIRAL"> F  </i>
    <v name="QSPIRAL">      0.00000000      0.00000000      0.00000000</v>
    <i type="logical" name="LZEROZ"> F  </i>
   </separator>
   <separator name="electronic exchange-correlation" >
    <i type="logical" name="LASPH"> T  </i>
    <i type="logical" name="LMETAGGA"> F  </i>
   </separator>
   <separator name="electronic convergence" >
    <i type="int" name="NELM">   200</i>
    <i type="int" name="NELMDL">    -5</i>
    <i type="int" name="NELMIN">     2</i>
    <i name="ENINI">    680.00000000</i>
    <separator name="electronic convergence detail" >
     <i type="logical" name="LDIAG"> T  </i>
     <i type="logical" name="LSUBROT"> F  </i>
     <i name="WEIMIN">      0.00000000</i>
     <i name="EBREAK">      0.00000016</i>
     <i name="DEPER">      0.30000000</i>
     <i type="int" name="NRMM">     4</i>
     <i name="TIME">      0.40000000</i>
    </separator>
   </separator>
   <separator name="electronic mixer" >
    <i name="AMIX">      0.40000000</i>
    <i name="BMIX">      1.00000000</i>
    <i name="AMIN">      0.10000000</i>
    <i name="AMIX_MAG">      1.60000000</i>
    <i name="BMIX_MAG">      1.00000000</i>
    <separator name="electronic mixer details" >
     <i type="int" name="IMIX">     4</i>
     <i type="logical" name="MIXFIRST"> F  </i>
     <i type="int" name="MAXMIX">   -45</i>
     <i name="WC">    100.00000000</i>
     <i type="int" name="INIMIX">     1</i>
     <i type="int" name="MIXPRE">     1</i>
     <i type="int" name="MREMOVE">     5</i>
    </separator>
   </separator>
   <separator name="electronic dipolcorrection" >
    <i type="logical" name="LDIPOL"> F  </i>
    <i type="logical" name="LMONO"> F  </i>
    <i type="int" name="IDIPOL">     0</i>
    <i name="EPSILON">      1.00000000</i>
    <v name="DIPOL">   -100.00000000   -100.00000000   -100.00000000</v>
    <i name="EFIELD">      0.00000000</i>
   </separator>
  </separator>
  <separator name="grids" >
   <i type="int" name="NGX">    36</i>
   <i type="int" name="NGY">    36</i>
   <i type="int" name="NGZ">    36</i>
   <i type="int" name="NGXF">    72</i>
   <i type="int" name="NGYF">    72</i>
   <i type="int" name="NGZF">    72</i>
   <i type="logical" name="ADDGRID"> F  </i>
  </separator>
  <separator name="ionic" >
   <i type="int" name="NSW">     0</i>
   <i type="int" name="IBRION">    -1</i>
   <i type="int" name="MDALGO">     0</i>
   <i type="int" name="ISIF">     3</i>
   <i name="PSTRESS">      0.00000000</i>
   <i name="EDIFFG">     -0.02000000</i>
   <i type="int" name="NFREE">     0</i>
   <i name="POTIM">      0.50000000</i>
   <i name="SMASS">     -3.00000000</i>
   <i name="SCALEE">      1.00000000</i>
  </separator>
  <separator name="ionic md" >
   <i name="TEBEG">      0.00010000</i>
   <i name="TEEND">      0.00010000</i>
   <i type="int" name="NBLOCK">     1</i>
   <i type="int" name="KBLOCK">     1</i>
   <i type="int" name="NPACO">   256</i>
   <i name="APACO">     16.00000000</i>
  </separator>
  <separator name="symmetry" >
   <i type="int" name="ISYM">     2</i>
   <i name="SYMPREC">      0.00001000</i>
  </separator>
  <separator name="dos" >
   <i type="int" name="LORBIT">    11</i>
   <v name="RWIGS">     -1.00000000</v>
   <i type="int" name="NEDOS">  5326</i>
   <i name="EMIN">     10.00000000</i>
   <i name="EMAX">    -10.00000000</i>
   <i name="EFERMI">      0.00000000</i>
  </separator>
  <separator name="writing" >
   <i type="int" name="NWRITE">     2</i>
   <i type="logical" name="LWAVE"> F  </i>
   <i type="logical" name="LDOWNSAMPLE"> F  </i>
   <i type="logical" name="LCHARG"> F  </i>
   <i type="logical" name="LPARD"> F  </i>
   <i type="logical" name="LVTOT"> T  </i>
   <i type="logical" name="LVHAR"> F  </i>
   <i type="logical" name="LELF"> T  </i>
   <i type="logical" name="LOPTICS"> F  </i>
   <v name="STM">      0.00000000      0.00000000      0.00000000      0.00000000      0.00000000      0.00000000      0.00000000</v>
  </separator>
  <separator name="performance" >
   <i type="int" name="NPAR">     4</i>
   <i type="int" name="NSIM">     4</i>
   <i type="int" name="NBLK">    -1</i>
   <i type="logical" name="LPLANE"> T  </i>
   <i type="logical" name="LSCALAPACK"> F  </i>
   <i type="logical" name="LSCAAWARE"> F  </i>
   <i type="logical" name="LSCALU"> F  </i>
   <i type="logical" name="LASYNC"> F  </i>
   <i type="logical" name="LORBITALREAL"> F  </i>
  </separator>
  <separator name="miscellaneous" >
   <i type="int" name="IDIOT">     3</i>
   <i type="int" name="PHON_NSTRUCT">    -1</i>
   <i type="logical" name="LMUSIC"> F  </i>
   <v name="POMASS">     28.08500000</v>
   <v name="DARWINR">      0.00000000</v>
   <v name="DARWINV">      1.00000000</v>
   <i type="logical" name="LCORR"> T  </i>
  </separator>
  <i type="logical" name="GGA_COMPAT"> T  </i>
  <i type="logical" name="LBERRY"> F  </i>
  <i type="int" name="ICORELEVEL">     0</i>
  <i type="logical" name="LDAU"> F  </i>
  <i type="int" name="I_CONSTRAINED_M">     0</i>
  <separator name="electronic exchange-correlation" >
   <i type="string" name="GGA">--</i>
   <i type="int" name="VOSKOWN">     0</i>
   <i type="logical" name="LHFCALC"> F  </i>
   <i type="string" name="PRECFOCK"></i>
   <i type="logical" name="LSYMGRAD"> F  </i>
   <i type="logical" name="LHFONE"> F  </i>
   <i type="logical" name="LRHFCALC"> F  </i>
   <i type="logical" name="LTHOMAS"> F  </i>
   <i type="logical" name="LMODELHF"> F  </i>
   <i type="logical" name="LFOCKACE"> F  </i>
   <i name="ENCUT4O">     -1.00000000</i>
   <i type="int" name="EXXOEP">     0</i>
   <i type="int" name="FOURORBIT">     0</i>
   <i name="AEXX">      0.00000000</i>
   <i name="HFALPHA">      0.00000000</i>
   <i name="MCALPHA">      0.00000000</i>
   <i name="ALDAX">      1.00000000</i>
   <i name="AGGAX">      1.00000000</i>
   <i name="ALDAC">      1.00000000</i>
   <i name="AGGAC">      1.00000000</i>
   <i type="int" name="NKREDX">     1</i>
   <i type="int" name="NKREDY">     1</i>
   <i type="int" name="NKREDZ">     1</i>
   <i type="logical" name="SHIFTRED"> F  </i>
   <i type="logical" name="ODDONLY"> F  </i>
   <i type="logical" name="EVENONLY"> F  </i>
   <i type="int" name="LMAXFOCK">     0</i>
   <i type="int" name="NMAXFOCKAE">     0</i>
   <i type="logical" name="LFOCKAEDFT"> F  </i>
   <i name="HFSCREEN">      0.00000000</i>
   <i name="HFSCREENC">      0.00000000</i>
   <i type="int" name="NBANDSGWLOW">     0</i>
  </separator>
  <separator name="vdW DFT" >
   <i type="logical" name="LUSE_VDW"> F  </i>
   <i name="Zab_VDW">     -0.84910000</i>
   <i name="PARAM1">      0.12340000</i>
   <i name="PARAM2">      1.00000000</i>
   <i name="PARAM3">      0.00000000</i>
  </separator>
  <separator name="model GW" >
   <i type="int" name="MODEL_GW">     0</i>
   <i name="MODEL_EPS0">     12.26648953</i>
   <i name="MODEL_ALPHA">      1.00000000</i>
  </separator>
  <separator name="linear response parameters" >
   <i type="logical" name="LEPSILON"> F  </i>
   <i type="logical" name="LRPA"> F  </i>
   <i type="logical" name="LNABLA"> F  </i>
   <i type="logical" name="LVEL"> F  </i>
   <i type="int" name="KINTER">     0</i>
   <i name="CSHIFT">      0.10000000</i>
   <i name="OMEGAMAX">     -1.00000000</i>
   <i name="DEG_THRESHOLD">      0.00200000</i>
   <i name="RTIME">     -0.10000000</i>
   <i name="WPLASMAI">      0.00000000</i>
   <v name="DFIELD">      0.00000000      0.00000000      0.00000000</v>
   <v name="WPLASMA">      0.00000000      0.00000000      0.00000000      0.00000000      0.00000000      0.00000000      0.00000000      0.00000000      0.00000000</v>
  </separator>
  <separator name="orbital magnetization" >
   <i type="logical" name="NUCIND"> F  </i>
   <v name="MAGPOS">      0.00000000      0.00000000      0.00000000</v>
   <i type="logical" name="LNICSALL"> T  </i>
   <i type="logical" name="ORBITALMAG"> F  </i>
   <i type="logical" name="LMAGBLOCH"> F  </i>
   <i type="logical" name="LCHIMAG"> F  </i>
   <i type="logical" name="LGAUGE"> T  </i>
   <i type="int" name="MAGATOM">     0</i>
   <v name="MAGDIPOL">      0.00000000      0.00000000      0.00000000</v>
   <v name="AVECCONST">      0.00000000      0.00000000      0.00000000</v>
  </separator>
  <separator name="response functions" >
   <i type="logical" name="LFINITE_TEMPERATURE"> F  </i>
   <i type="logical" name="LADDER"> F  </i>
   <i type="logical" name="LRPAFORCE"> F  </i>
   <i type="logical" name="LFXC"> F  </i>
   <i type="logical" name="LHARTREE"> T  </i>
   <i type="int" name="IBSE">     0</i>
   <v type="int" name="KPOINT">    -1     0     0     0</v>
   <i type="logical" name="LTCTC"> F  </i>
   <i type="logical" name="LTCTE"> F  </i>
   <i type="logical" name="LTETE"> F  </i>
   <i type="logical" name="LTRIPLET"> F  </i>
   <i type="logical" name="LFXCEPS"> F  </i>
   <i type="logical" name="LFXHEG"> F  </i>
   <i type="int" name="NATURALO">     2</i>
   <i type="logical" name="LHOLEGF"> F  </i>
   <i type="logical" name="L2ORDER"> F  </i>
   <i type="logical" name="LDMP1"> F  </i>
   <i type="logical" name="LMP2LT"> F  </i>
   <i type="logical" name="LSMP2LT"> F  </i>
   <i type="logical" name="LGWLF"> F  </i>
   <i name="ENCUTGW">     -2.00000000</i>
   <i name="ENCUTGWSOFT">     -2.00000000</i>
   <i name="ENCUTLF">     -1.00000000</i>
   <i type="logical" name="LESF_SPLINES"> F  </i>
   <i type="int" name="LMAXMP2">    -1</i>
   <i name="SCISSOR">      0.00000000</i>
   <i type="int" name="NOMEGA">     0</i>
   <i type="int" name="NOMEGAR">     0</i>
   <i type="int" name="NBANDSGW">    -1</i>
   <i type="int" name="NBANDSO">    -1</i>
   <i type="int" name="NBANDSV">    -1</i>
   <i type="int" name="NELM">   200</i>
   <i type="int" name="NELMHF">     1</i>
   <i type="int" name="DIM">     3</i>
   <i type="int" name="IESPILON">     4</i>
   <i type="int" name="ANTIRES">     0</i>
   <i name="OMEGAMAX">    -30.00000000</i>
   <i name="OMEGAMIN">    -30.00000000</i>
   <i name="OMEGATL">   -200.00000000</i>
   <i type="int" name="OMEGAGRID">     0</i>
   <i name="CSHIFT">     -0.10000000</i>
   <i type="logical" name="LSELFENERGY"> F  </i>
   <i type="logical" name="LSPECTRAL"> F  </i>
   <i type="logical" name="LSPECTRALGW"> F  </i>
   <i type="logical" name="LSINGLES"> F  </i>
   <i type="logical" name="LFERMIGW"> F  </i>
   <i type="logical" name="ODDONLYGW"> F  </i>
   <i type="logical" name="EVENONLYGW"> F  </i>
   <i type="int" name="NKREDLFX">     1</i>
   <i type="int" name="NKREDLFY">     1</i>
   <i type="int" name="NKREDLFZ">     1</i>
   <i type="int" name="MAXMEM">  2800</i>
   <i type="int" name="TELESCOPE">     0</i>
   <i type="int" name="NTAUPAR">    -1</i>
   <i type="int" name="NOMEGAPAR">    -1</i>
   <i name="DAMP_NEWTON">      0.80000001</i>
   <i name="LAMBDA">      1.00000000</i>
  </separator>
  <separator name="External order field" >
   <i name="OFIELD_KAPPA">      0.00000000</i>
   <v name="OFIELD_K">      0.00000000      0.00000000      0.00000000</v>
   <i name="OFIELD_Q6_NEAR">      0.00000000</i>
   <i name="OFIELD_Q6_FAR">      0.00000000</i>
   <i name="OFIELD_A">      0.00000000</i>
  </separator>
 </parameters>
 <atominfo>
  <atoms>       2 </atoms>
  <types>       1 </types>
  <array name="atoms" >
   <dimension dim="1">ion</dimension>
   <field type="string">element</field>
   <field type="int">atomtype</field>
   <set>
    <rc><c>Si</c><c>   1</c></rc>
    <rc><c>Si</c><c>   1</c></rc>
   </set>
  </array>
  <array name="atomtypes" >
   <dimension dim="1">type</dimension>
   <field type="int">atomspertype</field>
   <field type="string">element</field>
   <field>mass</field>
   <field>valence</field>
   <field type="string">pseudopotential</field>
   <set>
    <rc><c>   2</c><c>Si</c><c>     28.08500000</c><c>      4.00000000</c><c>  PAW_PBE Si 05Jan2001                  </c></rc>
   </set>
  </array>
 </atominfo>
 <structure name="initialpos" >
  <crystal>
   <varray name="basis" >
    <v>       3.34889800       0.00000000       1.93348700 </v>
    <v>       1.11629900       3.15737200       1.93348700 </v>
    <v>       0.00000000       0.00000000       3.86697500 </v>
   </varray>
   <i name="volume">     40.88829843 </i>
   <varray name="rec_basis" >
    <v>       0.29860569      -0.10557300       0.00000000 </v>
    <v>       0.00000000       0.31671909       0.00000000 </v>
    <v>      -0.14930281      -0.10557302       0.25860007 </v>
   </varray>
  </crystal>
  <varray name="positions" >
   <v>       0.25000000       0.25000000       0.25000000 </v>
   <v>       0.00000000       0.00000000       0.00000000 </v>
  </varray>
 </structure>
 <calculation>
  <scstep>
   <time name="dav">    0.93    0.94</time>
   <time name="total">    1.01    1.02</time>
   <energy>
    <i name="alphaZ">      3.29317992 </i>
    <i name="ewald">   -226.94489173 </i>
    <i name="hartreedc">    -15.17364114 </i>
    <i name="XCdc">    -18.06134870 </i>
    <i name="pawpsdc">    828.15318592 </i>
    <i name="pawaedc">   -793.17190106 </i>
    <i name="eentropy">      0.00000000 </i>
    <i name="bandstr">     23.93998561 </i>
    <i name="atom">    206.13322186 </i>
    <i name="e_fr_energy">      8.16779067 </i>
    <i name="e_wo_entrp">      8.16779067 </i>
    <i name="e_0_energy">      8.16779067 </i>
   </energy>
  </scstep>
  <scstep>
   <time name="dav">    1.15    1.16</time>
   <time name="total">    1.15    1.16</time>
   <energy>
    <i name="e_fr_energy">    -10.27208802 </i>
    <i name="e_wo_entrp">    -10.27208802 </i>
    <i name="e_0_energy">    -10.27208802 </i>
   </energy>
  </scstep>
  <scstep>
   <time name="dav">    1.16    1.16</time>
   <time name="total">    1.16    1.16</time>
   <energy>
    <i name="e_fr_energy">    -10.84417327 </i>
    <i name="e_wo_entrp">    -10.84417327 </i>
    <i name="e_0_energy">    -10.84417327 </i>
   </energy>
  </scstep>
  <scstep>
   <time name="dav">    1.10    1.10</time>
   <time name="total">    1.10    1.10</time>
   <energy>
    <i name="e_fr_energy">    -10.84721844 </i>
    <i name="e_wo_entrp">    -10.84721844 </i>
    <i name="e_0_energy">    -10.84721844 </i>
   </energy>
  </scstep>
  <scstep>
   <time name="dav">    1.35    1.36</time>
   <time name="total">    1.35    1.36</time>
   <energy>
    <i name="e_fr_energy">    -10.84724323 </i>
    <i name="e_wo_entrp">    -10.84724323 </i>
    <i name="e_0_energy">    -10.84724323 </i>
   </energy>
  </scstep>
  <scstep>
   <time name="dav">    1.03    1.04</time>
   <time name="total">    1.04    1.04</time>
   <energy>
    <i name="alphaZ">      3.29317992 </i>
    <i name="ewald">   -226.94489173 </i>
    <i name="hartreedc">    -15.17364114 </i>
    <i name="XCdc">    -18.06134870 </i>
    <i name="pawpsdc">    828.15318592 </i>
    <i name="pawaedc">   -793.17190106 </i>
    <i name="eentropy">      0.00000000 </i>
    <i name="bandstr">      4.92495145 </i>
    <i name="atom">    206.13322186 </i>
    <i name="e_fr_energy">    -10.84724350 </i>
    <i name="e_wo_entrp">    -10.84724350 </i>
    <i name="e_0_energy">    -10.84724350 </i>
   </energy>
  </scstep>
  <structure>
   <crystal>
    <varray name="basis" >
     <v>       3.34889800       0.00000000       1.93348700 </v>
     <v>       1.11629900       3.15737200       1.93348700 </v>
     <v>       0.00000000       0.00000000       3.86697500 </v>
    </varray>
    <i name="volume">     40.88829843 </i>
    <varray name="rec_basis" >
     <v>       0.29860569      -0.10557300       0.00000000 </v>
     <v>       0.00000000       0.31671909       0.00000000 </v>
     <v>      -0.14930281      -0.10557302       0.25860007 </v>
    </varray>
   </crystal>
   <varray name="positions" >
    <v>       0.25000000       0.25000000       0.25000000 </v>
    <v>       0.00000000       0.00000000       0.00000000 </v>
   </varray>
  </structure>
  <varray name="forces" >
   <v>      -0.00000000       0.00000000      -0.00000000 </v>
   <v>       0.00000000      -0.00000000       0.00000000 </v>
  </varray>
  <varray name="stress" >
   <v>       0.19242503      -0.00000002      -0.00000003 </v>
   <v>      -0.00000002       0.19242511      -0.00000002 </v>
   <v>      -0.00000003      -0.00000002       0.19242510 </v>
  </varray>
  <energy>
   <i name="e_fr_energy">    -10.84724350 </i>
   <i name="e_wo_entrp">    -10.84724350 </i>
   <i name="e_0_energy">    -10.84724350 </i>
  </energy>
  <time name="totalsc">    8.09    8.11</time>
  <eigenvalues>
   <array>
    <dimension dim="1">band</dimension>
    <dimension dim="2">kpoint</dimension>
    <dimension dim="3">spin</dimension>
    <field>eigene</field>
    <field>occ</field>
    <set>
     <set comment="spin 1">
      <set comment="kpoint 1">
       <r>   -6.1987    1.0000 </r>
       <r>    5.6162    1.0000 </r>
       <r>    5.6162    1.0000 </r>
       <r>    5.6162    1.0000 </r>
       <r>    8.1731    0.0000 </r>
       <r>    8.1731    0.0000 </r>
       <r>    8.1731    0.0000 </r>
       <r>    8.7493    0.0000 </r>
       <r>   13.3253    0.0000 </r>
       <r>   13.3253    0.0000 </r>
       <r>   13.4934    0.0000 </r>
       <r>   16.7985    0.0000 </r>
       <r>   16.7985    0.0000 </r>
       <r>   16.7985    0.0000 </r>
       <r>   20.8898    0.0000 </r>
       <r>   28.4714    0.0000 </r>
      </set>
      <set comment="kpoint 2">
       <r>   -5.9982    1.0000 </r>
       <r>    4.0254    1.0000 </r>
       <r>    5.3338    1.0000 </r>
       <r>    5.3338    1.0000 </r>
       <r>    8.0592    0.0000 </r>
       <r>    8.5885    0.0000 </r>
       <r>    8.5886    0.0000 </r>
       <r>   10.1486    0.0000 </r>
       <r>   12.8524    0.0000 </r>
       <r>   12.8524    0.0000 </r>
       <r>   14.2692    0.0000 </r>
       <r>   16.2448    0.0000 </r>
       <r>   17.9436    0.0000 </r>
       <r>   17.9436    0.0000 </r>
       <r>   22.1040    0.0000 </r>
       <r>   26.4937    0.0000 </r>
      </set>
      <set comment="kpoint 3">
       <r>   -5.4138    1.0000 </r>
       <r>    1.7299    1.0000 </r>
       <r>    4.8712    1.0000 </r>
       <r>    4.8712    1.0000 </r>
       <r>    7.5753    0.0000 </r>
       <r>    9.1064    0.0000 </r>
       <r>    9.1064    0.0000 </r>
       <r>   12.3672    0.0000 </r>
       <r>   12.8034    0.0000 </r>
       <r>   12.8034    0.0000 </r>
       <r>   14.5459    0.0000 </r>
       <r>   17.3280    0.0000 </r>
       <r>   20.1304    0.0000 </r>
       <r>   20.1304    0.0000 </r>
       <r>   23.2959    0.0000 </r>
       <r>   23.3411    0.0000 </r>
      </set>
      <set comment="kpoint 4">
       <r>   -4.5393    1.0000 </r>
       <r>   -0.2545    1.0000 </r>
       <r>    4.5484    1.0000 </r>
       <r>    4.5485    1.0000 </r>
       <r>    7.2107    0.0000 </r>
       <r>    9.0693    0.0000 </r>
       <r>    9.0693    0.0000 </r>
       <r>   13.4538    0.0000 </r>
       <r>   14.1555    0.0000 </r>
       <r>   14.1555    0.0000 </r>
       <r>   15.1283    0.0000 </r>
       <r>   19.2373    0.0000 </r>
       <r>   19.2373    0.0000 </r>
       <r>   19.4789    0.0000 </r>
       <r>   22.0771    0.0000 </r>
       <r>   23.9889    0.0000 </r>
      </set>
      <set comment="kpoint 5">
       <r>   -3.9201    1.0000 </r>
       <r>   -1.2525    1.0000 </r>
       <r>    4.4378    1.0000 </r>
       <r>    4.4378    1.0000 </r>
       <r>    7.0825    0.0000 </r>
       <r>    8.9657    0.0000 </r>
       <r>    8.9657    0.0000 </r>
       <r>   13.3183    0.0000 </r>
       <r>   16.1114    0.0000 </r>
       <r>   16.1114    0.0000 </r>
       <r>   16.7975    0.0000 </r>
       <r>   16.8361    0.0000 </r>
       <r>   16.8361    0.0000 </r>
       <r>   18.3565    0.0000 </r>
       <r>   24.7563    0.0000 </r>
       <r>   25.3648    0.0000 </r>
      </set>
      <set comment="kpoint 6">
       <r>   -5.9306    1.0000 </r>
       <r>    4.2639    1.0000 </r>
       <r>    4.8297    1.0000 </r>
       <r>    4.8297    1.0000 </r>
       <r>    7.6318    0.0000 </r>
       <r>    9.2880    0.0000 </r>
       <r>    9.2880    0.0000 </r>
       <r>    9.8360    0.0000 </r>
       <r>   12.1004    0.0000 </r>
       <r>   13.6236    0.0000 </r>
       <r>   14.5637    0.0000 </r>
       <r>   17.2650    0.0000 </r>
       <r>   17.2650    0.0000 </r>
       <r>   17.7432    0.0000 </r>
       <r>   22.6809    0.0000 </r>
       <r>   25.9817    0.0000 </r>
      </set>
      <set comment="kpoint 7">
       <r>   -5.4706    1.0000 </r>
       <r>    2.4104    1.0000 </r>
       <r>    4.3274    1.0000 </r>
       <r>    4.3910    1.0000 </r>
       <r>    7.7612    0.0000 </r>
       <r>    9.2412    0.0000 </r>
       <r>   10.0436    0.0000 </r>
       <r>   10.3549    0.0000 </r>
       <r>   12.9768    0.0000 </r>
       <r>   13.7847    0.0000 </r>
       <r>   15.5515    0.0000 </r>
       <r>   17.1135    0.0000 </r>
       <r>   18.6574    0.0000 </r>
       <r>   19.9055    0.0000 </r>
       <r>   23.0295    0.0000 </r>
       <r>   23.4910    0.0000 </r>
      </set>
      <set comment="kpoint 8">
       <r>   -4.6720    1.0000 </r>
       <r>    0.3885    1.0000 </r>
       <r>    3.8077    1.0000 </r>
       <r>    4.0625    1.0000 </r>
       <r>    7.8443    0.0000 </r>
       <r>    9.2089    0.0000 </r>
       <r>   10.0578    0.0000 </r>
       <r>   11.0556    0.0000 </r>
       <r>   14.8859    0.0000 </r>
       <r>   14.8973    0.0000 </r>
       <r>   15.4067    0.0000 </r>
       <r>   18.8873    0.0000 </r>
       <r>   18.8996    0.0000 </r>
       <r>   20.6559    0.0000 </r>
       <r>   22.1544    0.0000 </r>
       <r>   23.0608    0.0000 </r>
      </set>
      <set comment="kpoint 9">
       <r>   -3.8331    1.0000 </r>
       <r>   -1.0419    1.0000 </r>
       <r>    3.3707    1.0000 </r>
       <r>    4.0845    1.0000 </r>
       <r>    7.7792    0.0000 </r>
       <r>    9.1049    0.0000 </r>
       <r>    9.7098    0.0000 </r>
       <r>   12.9208    0.0000 </r>
       <r>   14.5595    0.0000 </r>
       <r>   16.0329    0.0000 </r>
       <r>   17.0180    0.0000 </r>
       <r>   17.1547    0.0000 </r>
       <r>   17.9408    0.0000 </r>
       <r>   20.4489    0.0000 </r>
       <r>   23.7208    0.0000 </r>
       <r>   25.0815    0.0000 </r>
      </set>
      <set comment="kpoint 10">
       <r>   -4.0703    1.0000 </r>
       <r>   -0.6807    1.0000 </r>
       <r>    3.1955    1.0000 </r>
       <r>    4.3737    1.0000 </r>
       <r>    7.9287    0.0000 </r>
       <r>    9.2239    0.0000 </r>
       <r>    9.4803    0.0000 </r>
       <r>   13.4439    0.0000 </r>
       <r>   13.6750    0.0000 </r>
       <r>   14.7509    0.0000 </r>
       <r>   16.6934    0.0000 </r>
       <r>   17.8982    0.0000 </r>
       <r>   19.7431    0.0000 </r>
       <r>   20.1017    0.0000 </r>
       <r>   22.3094    0.0000 </r>
       <r>   24.0745    0.0000 </r>
      </set>
      <set comment="kpoint 11">
       <r>   -4.9720    1.0000 </r>
       <r>    1.0348    1.0000 </r>
       <r>    3.3498    1.0000 </r>
       <r>    4.8549    1.0000 </r>
       <r>    8.2719    0.0000 </r>
       <r>    9.2778    0.0000 </r>
       <r>    9.4517    0.0000 </r>
       <r>   11.8276    0.0000 </r>
       <r>   12.0923    0.0000 </r>
       <r>   15.3614    0.0000 </r>
       <r>   15.5749    0.0000 </r>
       <r>   17.9189    0.0000 </r>
       <r>   19.4690    0.0000 </r>
       <r>   20.9135    0.0000 </r>
       <r>   21.8429    0.0000 </r>
       <r>   23.4240    0.0000 </r>
      </set>
      <set comment="kpoint 12">
       <r>   -5.6682    1.0000 </r>
       <r>    2.9416    1.0000 </r>
       <r>    4.0272    1.0000 </r>
       <r>    5.3265    1.0000 </r>
       <r>    8.5849    0.0000 </r>
       <r>    8.7255    0.0000 </r>
       <r>    8.9470    0.0000 </r>
       <r>   11.0464    0.0000 </r>
       <r>   11.9721    0.0000 </r>
       <r>   13.5819    0.0000 </r>
       <r>   15.2718    0.0000 </r>
       <r>   16.7305    0.0000 </r>
       <r>   17.8949    0.0000 </r>
       <r>   19.9749    0.0000 </r>
       <r>   23.1345    0.0000 </r>
       <r>   23.5815    0.0000 </r>
      </set>
      <set comment="kpoint 13">
       <r>   -5.1362    1.0000 </r>
       <r>    2.0976    1.0000 </r>
       <r>    3.7677    1.0000 </r>
       <r>    3.7677    1.0000 </r>
       <r>    6.7677    0.0000 </r>
       <r>    8.7520    0.0000 </r>
       <r>   11.3059    0.0000 </r>
       <r>   11.3059    0.0000 </r>
       <r>   13.4846    0.0000 </r>
       <r>   14.5167    0.0000 </r>
       <r>   16.9174    0.0000 </r>
       <r>   18.5339    0.0000 </r>
       <r>   18.5339    0.0000 </r>
       <r>   19.2449    0.0000 </r>
       <r>   22.8358    0.0000 </r>
       <r>   22.8360    0.0000 </r>
      </set>
      <set comment="kpoint 14">
       <r>   -4.4397    1.0000 </r>
       <r>    0.7008    1.0000 </r>
       <r>    3.0017    1.0000 </r>
       <r>    3.4546    1.0000 </r>
       <r>    6.9872    0.0000 </r>
       <r>    8.5193    0.0000 </r>
       <r>   11.5249    0.0000 </r>
       <r>   11.8233    0.0000 </r>
       <r>   15.5400    0.0000 </r>
       <r>   15.5869    0.0000 </r>
       <r>   17.1637    0.0000 </r>
       <r>   18.7026    0.0000 </r>
       <r>   19.2495    0.0000 </r>
       <r>   20.2912    0.0000 </r>
       <r>   21.3757    0.0000 </r>
       <r>   22.5683    0.0000 </r>
      </set>
      <set comment="kpoint 15">
       <r>   -3.5347    1.0000 </r>
       <r>   -0.7074    1.0000 </r>
       <r>    2.1538    1.0000 </r>
       <r>    3.4566    1.0000 </r>
       <r>    7.1580    0.0000 </r>
       <r>   10.0481    0.0000 </r>
       <r>   11.2626    0.0000 </r>
       <r>   11.4932    0.0000 </r>
       <r>   15.7027    0.0000 </r>
       <r>   16.0768    0.0000 </r>
       <r>   17.6656    0.0000 </r>
       <r>   18.1377    0.0000 </r>
       <r>   18.4921    0.0000 </r>
       <r>   22.2710    0.0000 </r>
       <r>   23.1728    0.0000 </r>
       <r>   23.9840    0.0000 </r>
      </set>
      <set comment="kpoint 16">
       <r>   -3.3376    1.0000 </r>
       <r>   -0.9574    1.0000 </r>
       <r>    1.7064    1.0000 </r>
       <r>    3.7678    1.0000 </r>
       <r>    7.4721    0.0000 </r>
       <r>   11.0176    0.0000 </r>
       <r>   11.0589    0.0000 </r>
       <r>   12.4998    0.0000 </r>
       <r>   13.5093    0.0000 </r>
       <r>   13.5640    0.0000 </r>
       <r>   18.0950    0.0000 </r>
       <r>   20.2982    0.0000 </r>
       <r>   20.5112    0.0000 </r>
       <r>   21.4416    0.0000 </r>
       <r>   21.8950    0.0000 </r>
       <r>   23.7974    0.0000 </r>
      </set>
      <set comment="kpoint 17">
       <r>   -4.1946    1.0000 </r>
       <r>    0.1767    1.0000 </r>
       <r>    1.9471    1.0000 </r>
       <r>    4.3140    1.0000 </r>
       <r>    8.0540    0.0000 </r>
       <r>   10.3650    0.0000 </r>
       <r>   10.6995    0.0000 </r>
       <r>   11.6577    0.0000 </r>
       <r>   12.0700    0.0000 </r>
       <r>   15.1382    0.0000 </r>
       <r>   18.1106    0.0000 </r>
       <r>   18.6461    0.0000 </r>
       <r>   18.9606    0.0000 </r>
       <r>   22.1221    0.0000 </r>
       <r>   22.5001    0.0000 </r>
       <r>   22.8192    0.0000 </r>
      </set>
      <set comment="kpoint 18">
       <r>   -3.8477    1.0000 </r>
       <r>   -0.0961    1.0000 </r>
       <r>    3.0636    1.0000 </r>
       <r>    3.0636    1.0000 </r>
       <r>    6.2665    0.0000 </r>
       <r>    7.1920    0.0000 </r>
       <r>   13.5535    0.0000 </r>
       <r>   13.5535    0.0000 </r>
       <r>   15.9991    0.0000 </r>
       <r>   16.0987    0.0000 </r>
       <r>   18.5006    0.0000 </r>
       <r>   18.5006    0.0000 </r>
       <r>   19.0787    0.0000 </r>
       <r>   20.6737    0.0000 </r>
       <r>   21.4609    0.0000 </r>
       <r>   22.3053    0.0000 </r>
      </set>
      <set comment="kpoint 19">
       <r>   -2.9684    1.0000 </r>
       <r>   -1.1626    1.0000 </r>
       <r>    2.2581    1.0000 </r>
       <r>    2.9884    1.0000 </r>
       <r>    6.5470    0.0000 </r>
       <r>    7.6012    0.0000 </r>
       <r>   13.7907    0.0000 </r>
       <r>   13.8464    0.0000 </r>
       <r>   16.2348    0.0000 </r>
       <r>   16.3358    0.0000 </r>
       <r>   17.8325    0.0000 </r>
       <r>   18.2543    0.0000 </r>
       <r>   20.3579    0.0000 </r>
       <r>   20.4220    0.0000 </r>
       <r>   21.4152    0.0000 </r>
       <r>   24.1515    0.0000 </r>
      </set>
      <set comment="kpoint 20">
       <r>   -2.5451    1.0000 </r>
       <r>   -1.5479    1.0000 </r>
       <r>    1.4158    1.0000 </r>
       <r>    3.2406    1.0000 </r>
       <r>    6.8503    0.0000 </r>
       <r>    9.7283    0.0000 </r>
       <r>   12.9971    0.0000 </r>
       <r>   13.5325    0.0000 </r>
       <r>   13.6991    0.0000 </r>
       <r>   14.0966    0.0000 </r>
       <r>   20.1180    0.0000 </r>
       <r>   20.3821    0.0000 </r>
       <r>   20.9106    0.0000 </r>
       <r>   21.1468    0.0000 </r>
       <r>   21.3552    0.0000 </r>
       <r>   22.4606    0.0000 </r>
      </set>
      <set comment="kpoint 21">
       <r>   -2.1302    1.0000 </r>
       <r>   -2.1302    1.0000 </r>
       <r>    2.8222    1.0000 </r>
       <r>    2.8222    1.0000 </r>
       <r>    6.3677    0.0000 </r>
       <r>    6.3677    0.0000 </r>
       <r>   15.5527    0.0000 </r>
       <r>   15.5527    0.0000 </r>
       <r>   16.5233    0.0000 </r>
       <r>   16.5233    0.0000 </r>
       <r>   18.0593    0.0000 </r>
       <r>   18.0593    0.0000 </r>
       <r>   18.4187    0.0000 </r>
       <r>   18.4187    0.0000 </r>
       <r>   24.2924    0.0000 </r>
       <r>   24.2925    0.0000 </r>
      </set>
      <set comment="kpoint 22">
       <r>   -4.8938    1.0000 </r>
       <r>    1.3479    1.0000 </r>
       <r>    2.9642    1.0000 </r>
       <r>    4.2161    1.0000 </r>
       <r>    8.0595    0.0000 </r>
       <r>    9.4435    0.0000 </r>
       <r>    9.8193    0.0000 </r>
       <r>   11.0573    0.0000 </r>
       <r>   13.3295    0.0000 </r>
       <r>   15.7220    0.0000 </r>
       <r>   16.5813    0.0000 </r>
       <r>   17.6492    0.0000 </r>
       <r>   19.3585    0.0000 </r>
       <r>   20.5585    0.0000 </r>
       <r>   21.3205    0.0000 </r>
       <r>   23.6330    0.0000 </r>
      </set>
      <set comment="kpoint 23">
       <r>   -4.0244    1.0000 </r>
       <r>   -0.1717    1.0000 </r>
       <r>    2.3602    1.0000 </r>
       <r>    3.7287    1.0000 </r>
       <r>    8.4807    0.0000 </r>
       <r>    9.1462    0.0000 </r>
       <r>   10.5942    0.0000 </r>
       <r>   11.4948    0.0000 </r>
       <r>   14.5475    0.0000 </r>
       <r>   15.2435    0.0000 </r>
       <r>   17.5192    0.0000 </r>
       <r>   18.3660    0.0000 </r>
       <r>   19.6887    0.0000 </r>
       <r>   20.6083    0.0000 </r>
       <r>   22.7131    0.0000 </r>
       <r>   23.6177    0.0000 </r>
      </set>
      <set comment="kpoint 24">
       <r>   -3.3902    1.0000 </r>
       <r>   -1.0912    1.0000 </r>
       <r>    2.2288    1.0000 </r>
       <r>    3.5057    1.0000 </r>
       <r>    8.6401    0.0000 </r>
       <r>    8.7627    0.0000 </r>
       <r>   11.4634    0.0000 </r>
       <r>   12.6826    0.0000 </r>
       <r>   12.9239    0.0000 </r>
       <r>   16.1245    0.0000 </r>
       <r>   17.1701    0.0000 </r>
       <r>   17.8912    0.0000 </r>
       <r>   20.9037    0.0000 </r>
       <r>   21.0155    0.0000 </r>
       <r>   23.5313    0.0000 </r>
       <r>   23.8732    0.0000 </r>
      </set>
      <set comment="kpoint 25">
       <r>   -3.6543    1.0000 </r>
       <r>   -0.3114    1.0000 </r>
       <r>    2.3284    1.0000 </r>
       <r>    2.9203    1.0000 </r>
       <r>    7.5721    0.0000 </r>
       <r>    8.2751    0.0000 </r>
       <r>   11.3016    0.0000 </r>
       <r>   13.5049    0.0000 </r>
       <r>   15.6724    0.0000 </r>
       <r>   15.7266    0.0000 </r>
       <r>   18.3016    0.0000 </r>
       <r>   18.8047    0.0000 </r>
       <r>   19.6858    0.0000 </r>
       <r>   20.1374    0.0000 </r>
       <r>   22.1131    0.0000 </r>
       <r>   22.5123    0.0000 </r>
      </set>
      <set comment="kpoint 26">
       <r>   -2.8008    1.0000 </r>
       <r>   -1.2599    1.0000 </r>
       <r>    1.6482    1.0000 </r>
       <r>    2.7244    1.0000 </r>
       <r>    8.0115    0.0000 </r>
       <r>    9.8853    0.0000 </r>
       <r>   10.8291    0.0000 </r>
       <r>   12.9685    0.0000 </r>
       <r>   13.9245    0.0000 </r>
       <r>   16.5771    0.0000 </r>
       <r>   17.6890    0.0000 </r>
       <r>   19.8028    0.0000 </r>
       <r>   20.8033    0.0000 </r>
       <r>   21.4026    0.0000 </r>
       <r>   22.9789    0.0000 </r>
       <r>   23.8008    0.0000 </r>
      </set>
      <set comment="kpoint 27">
       <r>   -3.1444    1.0000 </r>
       <r>   -0.9020    1.0000 </r>
       <r>    1.4858    1.0000 </r>
       <r>    3.0910    1.0000 </r>
       <r>    8.4809    0.0000 </r>
       <r>   10.1309    0.0000 </r>
       <r>   10.7826    0.0000 </r>
       <r>   12.5796    0.0000 </r>
       <r>   13.3828    0.0000 </r>
       <r>   14.7634    0.0000 </r>
       <r>   19.5536    0.0000 </r>
       <r>   19.7567    0.0000 </r>
       <r>   20.0916    0.0000 </r>
       <r>   21.6990    0.0000 </r>
       <r>   21.9591    0.0000 </r>
       <r>   23.7546    0.0000 </r>
      </set>
      <set comment="kpoint 28">
       <r>   -2.0565    1.0000 </r>
       <r>   -2.0565    1.0000 </r>
       <r>    2.2771    1.0000 </r>
       <r>    2.2771    1.0000 </r>
       <r>    7.6022    0.0000 </r>
       <r>    7.6022    0.0000 </r>
       <r>   13.3684    0.0000 </r>
       <r>   13.3684    0.0000 </r>
       <r>   16.0703    0.0000 </r>
       <r>   16.0703    0.0000 </r>
       <r>   18.3377    0.0000 </r>
       <r>   18.3377    0.0000 </r>
       <r>   20.9936    0.0000 </r>
       <r>   20.9936    0.0000 </r>
       <r>   22.8452    0.0000 </r>
       <r>   22.8452    0.0000 </r>
      </set>
      <set comment="kpoint 29">
       <r>   -1.9757    1.0000 </r>
       <r>   -1.9757    1.0000 </r>
       <r>    1.8552    1.0000 </r>
       <r>    1.8552    1.0000 </r>
       <r>    9.8864    0.0000 </r>
       <r>    9.8864    0.0000 </r>
       <r>   10.5480    0.0000 </r>
       <r>   10.5480    0.0000 </r>
       <r>   16.0680    0.0000 </r>
       <r>   16.0680    0.0000 </r>
       <r>   18.4872    0.0000 </r>
       <r>   18.4872    0.0000 </r>
       <r>   21.9181    0.0000 </r>
       <r>   21.9181    0.0000 </r>
       <r>   24.0194    0.0000 </r>
       <r>   24.0195    0.0000 </r>
      </set>
     </set>
    </set>
   </array>
  </eigenvalues>
  <separator name="orbital magnetization" >
   <v name="MAGDIPOLOUT">      0.00000000      0.00000000      0.00000000</v>
  </separator>
  <dos>
   <i name="efermi">      6.26639781 </i>
   <total>
    <array>
     <dimension dim="1">gridpoints</dimension>
     <dimension dim="2">spin</dimension>
     <field>energy</field>
     <field>total</field>
     <field>integrated</field>
     <set>
      <set comment="spin 1">
       <r>    -8.1987     0.0000     0.0000 </r>
       <r>    -8.1915     0.0000     0.0000 </r>
       <r>    -8.1842     0.0000     0.0000 </r>
       <r>    -8.1769     0.0000     0.0000 </r>
       <r>    -8.1697     0.0000     0.0000 </r>
       <r>    -8.1624     0.0000     0.0000 </r>
       <r>    -8.1551     0.0000     0.0000 </r>
       <r>    -8.1479     0.0000     0.0000 </r>
       <r>    -8.1406     0.0000     0.0000 </r>
       <r>    -8.1334     0.0000     0.0000 </r>
       <r>    -8.1261     0.0000     0.0000 </r>
       <r>    -8.1188     0.0000     0.0000 </r>
       <r>    -8.1116     0.0000     0.0000 </r>
       <r>    -8.1043     0.0000     0.0000 </r>
       <r>    -8.0970     0.0000     0.0000 </r>
       <r>    -8.0898     0.0000     0.0000 </r>
       <r>    -8.0825     0.0000     0.0000 </r>
       <r>    -8.0753     0.0000     0.0000 </r>
       <r>    -8.0680     0.0000     0.0000 </r>
       <r>    -8.0607     0.0000     0.0000 </r>
       <r>    -8.0535     0.0000     0.0000 </r>
       <r>    -8.0462     0.0000     0.0000 </r>
       <r>    -8.0390     0.0000     0.0000 </r>
       <r>    -8.0317     0.0000     0.0000 </r>
       <r>    -8.0244     0.0000     0.0000 </r>
       <r>    -8.0172     0.0000     0.0000 </r>
       <r>    -8.0099     0.0000     0.0000 </r>
       <r>    -8.0026     0.0000     0.0000 </r>
       <r>    -7.9954     0.0000     0.0000 </r>
       <r>    -7.9881     0.0000     0.0000 </r>
       <r>    -7.9809     0.0000     0.0000 </r>
       <r>    -7.9736     0.0000     0.0000 </r>
       <r>    -7.9663     0.0000     0.0000 </r>
       <r>    -7.9591     0.0000     0.0000 </r>
       <r>    -7.9518     0.0000     0.0000 </r>
       <r>    -7.9445     0.0000     0.0000 </r>
       <r>    -7.9373     0.0000     0.0000 </r>
       <r>    -7.9300     0.0000     0.0000 </r>
       <r>    -7.9228     0.0000     0.0000 </r>
       <r>    -7.9155     0.0000     0.0000 </r>
       <r>    -7.9082     0.0000     0.0000 </r>
       <r>    -7.9010     0.0000     0.0000 </r>
       <r>    -7.8937     0.0000     0.0000 </r>
       <r>    -7.8864     0.0000     0.0000 </r>
       <r>    -7.8792     0.0000     0.0000 </r>
       <r>    -7.8719     0.0000     0.0000 </r>
       <r>    -7.8647     0.0000     0.0000 </r>
       <r>    -7.8574     0.0000     0.0000 </r>
       <r>    -7.8501     0.0000     0.0000 </r>
       <r>    -7.8429     0.0000     0.0000 </r>
       <r>    -7.8356     0.0000     0.0000 </r>
       <r>    -7.8284     0.0000     0.0000 </r>
       <r>    -7.8211     0.0000     0.0000 </r>
       <r>    -7.8138     0.0000     0.0000 </r>
       <r>    -7.8066     0.0000     0.0000 </r>
       <r>    -7.7993     0.0000     0.0000 </r>
       <r>    -7.7920     0.0000     0.0000 </r>
       <r>    -7.7848     0.0000     0.0000 </r>
       <r>    -7.7775     0.0000     0.0000 </r>
       <r>    -7.7703     0.0000     0.0000 </r>
       <r>    -7.7630     0.0000     0.0000 </r>
       <r>    -7.7557     0.0000     0.0000 </r>
       <r>    -7.7485     0.0000     0.0000 </r>
       <r>    -7.7412     0.0000     0.0000 </r>
       <r>    -7.7339     0.0000     0.0000 </r>
       <r>    -7.7267     0.0000     0.0000 </r>
       <r>    -7.7194     0.0000     0.0000 </r>
       <r>    -7.7122     0.0000     0.0000 </r>
       <r>    -7.7049     0.0000     0.0000 </r>
       <r>    -7.6976     0.0000     0.0000 </r>
       <r>    -7.6904     0.0000     0.0000 </r>
       <r>    -7.6831     0.0000     0.0000 </r>
       <r>    -7.6759     0.0000     0.0000 </r>
       <r>    -7.6686     0.0000     0.0000 </r>
       <r>    -7.6613     0.0000     0.0000 </r>
       <r>    -7.6541     0.0000     0.0000 </r>
       <r>    -7.6468     0.0000     0.0000 </r>
       <r>    -7.6395     0.0000     0.0000 </r>
       <r>    -7.6323     0.0000     0.0000 </r>
       <r>    -7.6250     0.0000     0.0000 </r>
       <r>    -7.6178     0.0000     0.0000 </r>
       <r>    -7.6105     0.0000     0.0000 </r>
       <r>    -7.6032     0.0000     0.0000 </r>
       <r>    -7.5960     0.0000     0.0000 </r>
       <r>    -7.5887     0.0000     0.0000 </r>
       <r>    -7.5814     0.0000     0.0000 </r>
       <r>    -7.5742     0.0000     0.0000 </r>
       <r>    -7.5669     0.0000     0.0000 </r>
       <r>    -7.5597     0.0000     0.0000 </r>
       <r>    -7.5524     0.0000     0.0000 </r>
       <r>    -7.5451     0.0000     0.0000 </r>
       <r>    -7.5379     0.0000     0.0000 </r>
       <r>    -7.5306     0.0000     0.0000 </r>
       <r>    -7.5233     0.0000     0.0000 </r>
       <r>    -7.5161     0.0000     0.0000 </r>
       <r>    -7.5088     0.0000     0.0000 </r>
       <r>    -7.5016     0.0000     0.0000 </r>
       <r>    -7.4943     0.0000     0.0000 </r>
       <r>    -7.4870     0.0000     0.0000 </r>
       <r>    -7.4798     0.0000     0.0000 </r>
       <r>    -7.4725     0.0000     0.0000 </r>
       <r>    -7.4653     0.0000     0.0000 </r>
       <r>    -7.4580     0.0000     0.0000 </r>
       <r>    -7.4507     0.0000     0.0000 </r>
       <r>    -7.4435     0.0000     0.0000 </r>
       <r>    -7.4362     0.0000     0.0000 </r>
       <r>    -7.4289     0.0000     0.0000 </r>
       <r>    -7.4217     0.0000     0.0000 </r>
       <r>    -7.4144     0.0000     0.0000 </r>
       <r>    -7.4072     0.0000     0.0000 </r>
       <r>    -7.3999     0.0000     0.0000 </r>
       <r>    -7.3926     0.0000     0.0000 </r>
       <r>    -7.3854     0.0000     0.0000 </r>
       <r>    -7.3781     0.0000     0.0000 </r>
       <r>    -7.3708     0.0000     0.0000 </r>
       <r>    -7.3636     0.0000     0.0000 </r>
       <r>    -7.3563     0.0000     0.0000 </r>
       <r>    -7.3491     0.0000     0.0000 </r>
       <r>    -7.3418     0.0000     0.0000 </r>
       <r>    -7.3345     0.0000     0.0000 </r>
       <r>    -7.3273     0.0000     0.0000 </r>
       <r>    -7.3200     0.0000     0.0000 </r>
       <r>    -7.3128     0.0000     0.0000 </r>
       <r>    -7.3055     0.0000     0.0000 </r>
       <r>    -7.2982     0.0000     0.0000 </r>
       <r>    -7.2910     0.0000     0.0000 </r>
       <r>    -7.2837     0.0000     0.0000 </r>
       <r>    -7.2764     0.0000     0.0000 </r>
       <r>    -7.2692     0.0000     0.0000 </r>
       <r>    -7.2619     0.0000     0.0000 </r>
       <r>    -7.2547     0.0000     0.0000 </r>
       <r>    -7.2474     0.0000     0.0000 </r>
       <r>    -7.2401     0.0000     0.0000 </r>
       <r>    -7.2329     0.0000     0.0000 </r>
       <r>    -7.2256     0.0000     0.0000 </r>
       <r>    -7.2183     0.0000     0.0000 </r>
       <r>    -7.2111     0.0000     0.0000 </r>
       <r>    -7.2038     0.0000     0.0000 </r>
       <r>    -7.1966     0.0000     0.0000 </r>
       <r>    -7.1893     0.0000     0.0000 </r>
       <r>    -7.1820     0.0000     0.0000 </r>
       <r>    -7.1748     0.0000     0.0000 </r>
       <r>    -7.1675     0.0000     0.0000 </r>
       <r>    -7.1602     0.0000     0.0000 </r>
       <r>    -7.1530     0.0000     0.0000 </r>
       <r>    -7.1457     0.0000     0.0000 </r>
       <r>    -7.1385     0.0000     0.0000 </r>
       <r>    -7.1312     0.0000     0.0000 </r>
       <r>    -7.1239     0.0000     0.0000 </r>
       <r>    -7.1167     0.0000     0.0000 </r>
       <r>    -7.1094     0.0000     0.0000 </r>
       <r>    -7.1022     0.0000     0.0000 </r>
       <r>    -7.0949     0.0000     0.0000 </r>
       <r>    -7.0876     0.0000     0.0000 </r>
       <r>    -7.0804     0.0000     0.0000 </r>
       <r>    -7.0731     0.0000     0.0000 </r>
       <r>    -7.0658     0.0000     0.0000 </r>
       <r>    -7.0586     0.0000     0.0000 </r>
       <r>    -7.0513     0.0000     0.0000 </r>
       <r>    -7.0441     0.0000     0.0000 </r>
       <r>    -7.0368     0.0000     0.0000 </r>
       <r>    -7.0295     0.0000     0.0000 </r>
       <r>    -7.0223     0.0000     0.0000 </r>
       <r>    -7.0150     0.0000     0.0000 </r>
       <r>    -7.0077     0.0000     0.0000 </r>
       <r>    -7.0005     0.0000     0.0000 </r>
       <r>    -6.9932     0.0000     0.0000 </r>
       <r>    -6.9860     0.0000     0.0000 </r>
       <r>    -6.9787     0.0000     0.0000 </r>
       <r>    -6.9714     0.0000     0.0000 </r>
       <r>    -6.9642     0.0000     0.0000 </r>
       <r>    -6.9569     0.0000     0.0000 </r>
       <r>    -6.9497     0.0000     0.0000 </r>
       <r>    -6.9424     0.0000     0.0000 </r>
       <r>    -6.9351     0.0000     0.0000 </r>
       <r>    -6.9279     0.0000     0.0000 </r>
       <r>    -6.9206     0.0000     0.0000 </r>
       <r>    -6.9133     0.0000     0.0000 </r>
       <r>    -6.9061     0.0000     0.0000 </r>
       <r>    -6.8988     0.0000     0.0000 </r>
       <r>    -6.8916     0.0000     0.0000 </r>
       <r>    -6.8843     0.0000     0.0000 </r>
       <r>    -6.8770     0.0000     0.0000 </r>
       <r>    -6.8698     0.0000     0.0000 </r>
       <r>    -6.8625     0.0000     0.0000 </r>
       <r>    -6.8552     0.0000     0.0000 </r>
       <r>    -6.8480     0.0000     0.0000 </r>
       <r>    -6.8407     0.0000     0.0000 </r>
       <r>    -6.8335     0.0000     0.0000 </r>
       <r>    -6.8262     0.0000     0.0000 </r>
       <r>    -6.8189     0.0000     0.0000 </r>
       <r>    -6.8117     0.0000     0.0000 </r>
       <r>    -6.8044     0.0000     0.0000 </r>
       <r>    -6.7972     0.0000     0.0000 </r>
       <r>    -6.7899     0.0000     0.0000 </r>
       <r>    -6.7826     0.0000     0.0000 </r>
       <r>    -6.7754     0.0000     0.0000 </r>
       <r>    -6.7681     0.0000     0.0000 </r>
       <r>    -6.7608     0.0000     0.0000 </r>
       <r>    -6.7536     0.0000     0.0000 </r>
       <r>    -6.7463     0.0000     0.0000 </r>
       <r>    -6.7391     0.0000     0.0000 </r>
       <r>    -6.7318     0.0000     0.0000 </r>
       <r>    -6.7245     0.0000     0.0000 </r>
       <r>    -6.7173     0.0000     0.0000 </r>
       <r>    -6.7100     0.0000     0.0000 </r>
       <r>    -6.7027     0.0000     0.0000 </r>
       <r>    -6.6955     0.0000     0.0000 </r>
       <r>    -6.6882     0.0000     0.0000 </r>
       <r>    -6.6810     0.0000     0.0000 </r>
       <r>    -6.6737     0.0000     0.0000 </r>
       <r>    -6.6664     0.0000     0.0000 </r>
       <r>    -6.6592     0.0000     0.0000 </r>
       <r>    -6.6519     0.0000     0.0000 </r>
       <r>    -6.6446     0.0000     0.0000 </r>
       <r>    -6.6374     0.0000     0.0000 </r>
       <r>    -6.6301     0.0000     0.0000 </r>
       <r>    -6.6229     0.0000     0.0000 </r>
       <r>    -6.6156     0.0000     0.0000 </r>
       <r>    -6.6083     0.0000     0.0000 </r>
       <r>    -6.6011     0.0000     0.0000 </r>
       <r>    -6.5938     0.0000     0.0000 </r>
       <r>    -6.5866     0.0000     0.0000 </r>
       <r>    -6.5793     0.0000     0.0000 </r>
       <r>    -6.5720     0.0000     0.0000 </r>
       <r>    -6.5648     0.0000     0.0000 </r>
       <r>    -6.5575     0.0000     0.0000 </r>
       <r>    -6.5502     0.0000     0.0000 </r>
       <r>    -6.5430     0.0000     0.0000 </r>
       <r>    -6.5357     0.0000     0.0000 </r>
       <r>    -6.5285     0.0000     0.0000 </r>
       <r>    -6.5212     0.0000     0.0000 </r>
       <r>    -6.5139     0.0000     0.0000 </r>
       <r>    -6.5067     0.0000     0.0000 </r>
       <r>    -6.4994     0.0000     0.0000 </r>
       <r>    -6.4921     0.0000     0.0000 </r>
       <r>    -6.4849     0.0000     0.0000 </r>
       <r>    -6.4776     0.0000     0.0000 </r>
       <r>    -6.4704     0.0000     0.0000 </r>
       <r>    -6.4631     0.0000     0.0000 </r>
       <r>    -6.4558     0.0000     0.0000 </r>
       <r>    -6.4486     0.0000     0.0000 </r>
       <r>    -6.4413     0.0000     0.0000 </r>
       <r>    -6.4341     0.0000     0.0000 </r>
       <r>    -6.4268     0.0000     0.0000 </r>
       <r>    -6.4195     0.0000     0.0000 </r>
       <r>    -6.4123     0.0000     0.0000 </r>
       <r>    -6.4050     0.0000     0.0000 </r>
       <r>    -6.3977     0.0000     0.0000 </r>
       <r>    -6.3905     0.0000     0.0000 </r>
       <r>    -6.3832     0.0000     0.0000 </r>
       <r>    -6.3760     0.0000     0.0000 </r>
       <r>    -6.3687     0.0000     0.0000 </r>
       <r>    -6.3614     0.0000     0.0000 </r>
       <r>    -6.3542     0.0000     0.0000 </r>
       <r>    -6.3469     0.0000     0.0000 </r>
       <r>    -6.3396     0.0000     0.0000 </r>
       <r>    -6.3324     0.0000     0.0000 </r>
       <r>    -6.3251     0.0000     0.0000 </r>
       <r>    -6.3179     0.0000     0.0000 </r>
       <r>    -6.3106     0.0000     0.0000 </r>
       <r>    -6.3033     0.0000     0.0000 </r>
       <r>    -6.2961     0.0000     0.0000 </r>
       <r>    -6.2888     0.0000     0.0000 </r>
       <r>    -6.2815     0.0000     0.0000 </r>
       <r>    -6.2743     0.0000     0.0000 </r>
       <r>    -6.2670     0.0000     0.0000 </r>
       <r>    -6.2598     0.0000     0.0000 </r>
       <r>    -6.2525     0.0000     0.0000 </r>
       <r>    -6.2452     0.0000     0.0000 </r>
       <r>    -6.2380     0.0000     0.0000 </r>
       <r>    -6.2307     0.0000     0.0000 </r>
       <r>    -6.2235     0.0000     0.0000 </r>
       <r>    -6.2162     0.0000     0.0000 </r>
       <r>    -6.2089     0.0000     0.0000 </r>
       <r>    -6.2017     0.0000     0.0000 </r>
       <r>    -6.1944     0.0001     0.0000 </r>
       <r>    -6.1871     0.0006     0.0000 </r>
       <r>    -6.1799     0.0015     0.0000 </r>
       <r>    -6.1726     0.0030     0.0000 </r>
       <r>    -6.1654     0.0048     0.0001 </r>
       <r>    -6.1581     0.0072     0.0001 </r>
       <r>    -6.1508     0.0100     0.0002 </r>
       <r>    -6.1436     0.0132     0.0002 </r>
       <r>    -6.1363     0.0169     0.0004 </r>
       <r>    -6.1290     0.0211     0.0005 </r>
       <r>    -6.1218     0.0257     0.0007 </r>
       <r>    -6.1145     0.0308     0.0009 </r>
       <r>    -6.1073     0.0364     0.0011 </r>
       <r>    -6.1000     0.0424     0.0014 </r>
       <r>    -6.0927     0.0489     0.0017 </r>
       <r>    -6.0855     0.0558     0.0021 </r>
       <r>    -6.0782     0.0632     0.0025 </r>
       <r>    -6.0710     0.0710     0.0030 </r>
       <r>    -6.0637     0.0793     0.0036 </r>
       <r>    -6.0564     0.0881     0.0042 </r>
       <r>    -6.0492     0.0973     0.0049 </r>
       <r>    -6.0419     0.1070     0.0056 </r>
       <r>    -6.0346     0.1171     0.0064 </r>
       <r>    -6.0274     0.1277     0.0073 </r>
       <r>    -6.0201     0.1388     0.0083 </r>
       <r>    -6.0129     0.1503     0.0093 </r>
       <r>    -6.0056     0.1623     0.0104 </r>
       <r>    -5.9983     0.1747     0.0117 </r>
       <r>    -5.9911     0.1684     0.0129 </r>
       <r>    -5.9838     0.1629     0.0141 </r>
       <r>    -5.9765     0.1583     0.0153 </r>
       <r>    -5.9693     0.1549     0.0164 </r>
       <r>    -5.9620     0.1524     0.0175 </r>
       <r>    -5.9548     0.1510     0.0186 </r>
       <r>    -5.9475     0.1505     0.0197 </r>
       <r>    -5.9402     0.1511     0.0208 </r>
       <r>    -5.9330     0.1528     0.0219 </r>
       <r>    -5.9257     0.1552     0.0230 </r>
       <r>    -5.9185     0.1577     0.0242 </r>
       <r>    -5.9112     0.1602     0.0253 </r>
       <r>    -5.9039     0.1627     0.0265 </r>
       <r>    -5.8967     0.1653     0.0277 </r>
       <r>    -5.8894     0.1678     0.0289 </r>
       <r>    -5.8821     0.1704     0.0301 </r>
       <r>    -5.8749     0.1730     0.0314 </r>
       <r>    -5.8676     0.1756     0.0326 </r>
       <r>    -5.8604     0.1783     0.0339 </r>
       <r>    -5.8531     0.1809     0.0352 </r>
       <r>    -5.8458     0.1836     0.0366 </r>
       <r>    -5.8386     0.1862     0.0379 </r>
       <r>    -5.8313     0.1889     0.0393 </r>
       <r>    -5.8240     0.1917     0.0406 </r>
       <r>    -5.8168     0.1944     0.0421 </r>
       <r>    -5.8095     0.1971     0.0435 </r>
       <r>    -5.8023     0.1999     0.0449 </r>
       <r>    -5.7950     0.2027     0.0464 </r>
       <r>    -5.7877     0.2055     0.0479 </r>
       <r>    -5.7805     0.2083     0.0494 </r>
       <r>    -5.7732     0.2111     0.0509 </r>
       <r>    -5.7659     0.2140     0.0524 </r>
       <r>    -5.7587     0.2168     0.0540 </r>
       <r>    -5.7514     0.2197     0.0556 </r>
       <r>    -5.7442     0.2226     0.0572 </r>
       <r>    -5.7369     0.2255     0.0588 </r>
       <r>    -5.7296     0.2285     0.0605 </r>
       <r>    -5.7224     0.2314     0.0621 </r>
       <r>    -5.7151     0.2344     0.0638 </r>
       <r>    -5.7079     0.2374     0.0655 </r>
       <r>    -5.7006     0.2404     0.0673 </r>
       <r>    -5.6933     0.2434     0.0690 </r>
       <r>    -5.6861     0.2464     0.0708 </r>
       <r>    -5.6788     0.2495     0.0726 </r>
       <r>    -5.6715     0.2525     0.0744 </r>
       <r>    -5.6643     0.2556     0.0763 </r>
       <r>    -5.6570     0.2586     0.0781 </r>
       <r>    -5.6498     0.2615     0.0800 </r>
       <r>    -5.6425     0.2642     0.0819 </r>
       <r>    -5.6352     0.2669     0.0839 </r>
       <r>    -5.6280     0.2695     0.0858 </r>
       <r>    -5.6207     0.2719     0.0878 </r>
       <r>    -5.6134     0.2743     0.0898 </r>
       <r>    -5.6062     0.2765     0.0918 </r>
       <r>    -5.5989     0.2786     0.0938 </r>
       <r>    -5.5917     0.2807     0.0958 </r>
       <r>    -5.5844     0.2826     0.0979 </r>
       <r>    -5.5771     0.2844     0.0999 </r>
       <r>    -5.5699     0.2862     0.1020 </r>
       <r>    -5.5626     0.2878     0.1041 </r>
       <r>    -5.5554     0.2893     0.1062 </r>
       <r>    -5.5481     0.2907     0.1083 </r>
       <r>    -5.5408     0.2920     0.1104 </r>
       <r>    -5.5336     0.2932     0.1125 </r>
       <r>    -5.5263     0.2943     0.1146 </r>
       <r>    -5.5190     0.2953     0.1168 </r>
       <r>    -5.5118     0.2962     0.1189 </r>
       <r>    -5.5045     0.2969     0.1211 </r>
       <r>    -5.4973     0.2976     0.1232 </r>
       <r>    -5.4900     0.2982     0.1254 </r>
       <r>    -5.4827     0.2987     0.1276 </r>
       <r>    -5.4755     0.2990     0.1297 </r>
       <r>    -5.4682     0.2995     0.1319 </r>
       <r>    -5.4609     0.3004     0.1341 </r>
       <r>    -5.4537     0.3015     0.1363 </r>
       <r>    -5.4464     0.3027     0.1385 </r>
       <r>    -5.4392     0.3041     0.1407 </r>
       <r>    -5.4319     0.3055     0.1429 </r>
       <r>    -5.4246     0.3071     0.1451 </r>
       <r>    -5.4174     0.3088     0.1474 </r>
       <r>    -5.4101     0.3106     0.1496 </r>
       <r>    -5.4028     0.3124     0.1519 </r>
       <r>    -5.3956     0.3142     0.1541 </r>
       <r>    -5.3883     0.3161     0.1564 </r>
       <r>    -5.3811     0.3179     0.1587 </r>
       <r>    -5.3738     0.3197     0.1610 </r>
       <r>    -5.3665     0.3216     0.1634 </r>
       <r>    -5.3593     0.3234     0.1657 </r>
       <r>    -5.3520     0.3253     0.1681 </r>
       <r>    -5.3448     0.3272     0.1704 </r>
       <r>    -5.3375     0.3290     0.1728 </r>
       <r>    -5.3302     0.3309     0.1752 </r>
       <r>    -5.3230     0.3328     0.1776 </r>
       <r>    -5.3157     0.3346     0.1800 </r>
       <r>    -5.3084     0.3365     0.1825 </r>
       <r>    -5.3012     0.3384     0.1849 </r>
       <r>    -5.2939     0.3403     0.1874 </r>
       <r>    -5.2867     0.3422     0.1899 </r>
       <r>    -5.2794     0.3441     0.1924 </r>
       <r>    -5.2721     0.3460     0.1949 </r>
       <r>    -5.2649     0.3479     0.1974 </r>
       <r>    -5.2576     0.3498     0.1999 </r>
       <r>    -5.2503     0.3517     0.2025 </r>
       <r>    -5.2431     0.3536     0.2050 </r>
       <r>    -5.2358     0.3555     0.2076 </r>
       <r>    -5.2286     0.3575     0.2102 </r>
       <r>    -5.2213     0.3594     0.2128 </r>
       <r>    -5.2140     0.3613     0.2154 </r>
       <r>    -5.2068     0.3633     0.2181 </r>
       <r>    -5.1995     0.3652     0.2207 </r>
       <r>    -5.1923     0.3672     0.2234 </r>
       <r>    -5.1850     0.3691     0.2260 </r>
       <r>    -5.1777     0.3711     0.2287 </r>
       <r>    -5.1705     0.3730     0.2314 </r>
       <r>    -5.1632     0.3750     0.2341 </r>
       <r>    -5.1559     0.3770     0.2369 </r>
       <r>    -5.1487     0.3790     0.2396 </r>
       <r>    -5.1414     0.3809     0.2424 </r>
       <r>    -5.1342     0.3829     0.2451 </r>
       <r>    -5.1269     0.3849     0.2479 </r>
       <r>    -5.1196     0.3869     0.2507 </r>
       <r>    -5.1124     0.3889     0.2536 </r>
       <r>    -5.1051     0.3909     0.2564 </r>
       <r>    -5.0978     0.3929     0.2592 </r>
       <r>    -5.0906     0.3949     0.2621 </r>
       <r>    -5.0833     0.3970     0.2650 </r>
       <r>    -5.0761     0.3990     0.2679 </r>
       <r>    -5.0688     0.4010     0.2708 </r>
       <r>    -5.0615     0.4031     0.2737 </r>
       <r>    -5.0543     0.4051     0.2766 </r>
       <r>    -5.0470     0.4072     0.2796 </r>
       <r>    -5.0398     0.4092     0.2825 </r>
       <r>    -5.0325     0.4113     0.2855 </r>
       <r>    -5.0252     0.4134     0.2885 </r>
       <r>    -5.0180     0.4154     0.2915 </r>
       <r>    -5.0107     0.4175     0.2945 </r>
       <r>    -5.0034     0.4196     0.2976 </r>
       <r>    -4.9962     0.4217     0.3006 </r>
       <r>    -4.9889     0.4238     0.3037 </r>
       <r>    -4.9817     0.4259     0.3068 </r>
       <r>    -4.9744     0.4280     0.3099 </r>
       <r>    -4.9671     0.4293     0.3130 </r>
       <r>    -4.9599     0.4302     0.3161 </r>
       <r>    -4.9526     0.4312     0.3192 </r>
       <r>    -4.9453     0.4322     0.3224 </r>
       <r>    -4.9381     0.4334     0.3255 </r>
       <r>    -4.9308     0.4346     0.3287 </r>
       <r>    -4.9236     0.4359     0.3318 </r>
       <r>    -4.9163     0.4372     0.3350 </r>
       <r>    -4.9090     0.4387     0.3382 </r>
       <r>    -4.9018     0.4402     0.3414 </r>
       <r>    -4.8945     0.4418     0.3446 </r>
       <r>    -4.8872     0.4435     0.3478 </r>
       <r>    -4.8800     0.4451     0.3510 </r>
       <r>    -4.8727     0.4468     0.3543 </r>
       <r>    -4.8655     0.4485     0.3575 </r>
       <r>    -4.8582     0.4501     0.3608 </r>
       <r>    -4.8509     0.4518     0.3640 </r>
       <r>    -4.8437     0.4535     0.3673 </r>
       <r>    -4.8364     0.4552     0.3706 </r>
       <r>    -4.8292     0.4569     0.3739 </r>
       <r>    -4.8219     0.4586     0.3773 </r>
       <r>    -4.8146     0.4603     0.3806 </r>
       <r>    -4.8074     0.4620     0.3840 </r>
       <r>    -4.8001     0.4637     0.3873 </r>
       <r>    -4.7928     0.4655     0.3907 </r>
       <r>    -4.7856     0.4672     0.3941 </r>
       <r>    -4.7783     0.4689     0.3975 </r>
       <r>    -4.7711     0.4707     0.4009 </r>
       <r>    -4.7638     0.4724     0.4043 </r>
       <r>    -4.7565     0.4741     0.4078 </r>
       <r>    -4.7493     0.4759     0.4112 </r>
       <r>    -4.7420     0.4777     0.4147 </r>
       <r>    -4.7347     0.4794     0.4181 </r>
       <r>    -4.7275     0.4812     0.4216 </r>
       <r>    -4.7202     0.4830     0.4251 </r>
       <r>    -4.7130     0.4848     0.4286 </r>
       <r>    -4.7057     0.4865     0.4322 </r>
       <r>    -4.6984     0.4883     0.4357 </r>
       <r>    -4.6912     0.4901     0.4393 </r>
       <r>    -4.6839     0.4919     0.4428 </r>
       <r>    -4.6767     0.4937     0.4464 </r>
       <r>    -4.6694     0.4955     0.4500 </r>
       <r>    -4.6621     0.4974     0.4536 </r>
       <r>    -4.6549     0.4992     0.4572 </r>
       <r>    -4.6476     0.5011     0.4609 </r>
       <r>    -4.6403     0.5030     0.4645 </r>
       <r>    -4.6331     0.5050     0.4682 </r>
       <r>    -4.6258     0.5069     0.4718 </r>
       <r>    -4.6186     0.5089     0.4755 </r>
       <r>    -4.6113     0.5110     0.4792 </r>
       <r>    -4.6040     0.5130     0.4829 </r>
       <r>    -4.5968     0.5151     0.4867 </r>
       <r>    -4.5895     0.5172     0.4904 </r>
       <r>    -4.5822     0.5193     0.4942 </r>
       <r>    -4.5750     0.5214     0.4980 </r>
       <r>    -4.5677     0.5236     0.5018 </r>
       <r>    -4.5605     0.5258     0.5056 </r>
       <r>    -4.5532     0.5280     0.5094 </r>
       <r>    -4.5459     0.5303     0.5132 </r>
       <r>    -4.5387     0.5326     0.5171 </r>
       <r>    -4.5314     0.5349     0.5210 </r>
       <r>    -4.5241     0.5372     0.5249 </r>
       <r>    -4.5169     0.5395     0.5288 </r>
       <r>    -4.5096     0.5419     0.5327 </r>
       <r>    -4.5024     0.5443     0.5366 </r>
       <r>    -4.4951     0.5467     0.5406 </r>
       <r>    -4.4878     0.5491     0.5446 </r>
       <r>    -4.4806     0.5515     0.5486 </r>
       <r>    -4.4733     0.5540     0.5526 </r>
       <r>    -4.4661     0.5565     0.5566 </r>
       <r>    -4.4588     0.5590     0.5607 </r>
       <r>    -4.4515     0.5615     0.5647 </r>
       <r>    -4.4443     0.5640     0.5688 </r>
       <r>    -4.4370     0.5666     0.5729 </r>
       <r>    -4.4297     0.5692     0.5771 </r>
       <r>    -4.4225     0.5719     0.5812 </r>
       <r>    -4.4152     0.5745     0.5854 </r>
       <r>    -4.4080     0.5772     0.5896 </r>
       <r>    -4.4007     0.5799     0.5938 </r>
       <r>    -4.3934     0.5826     0.5980 </r>
       <r>    -4.3862     0.5853     0.6022 </r>
       <r>    -4.3789     0.5881     0.6065 </r>
       <r>    -4.3716     0.5909     0.6108 </r>
       <r>    -4.3644     0.5936     0.6151 </r>
       <r>    -4.3571     0.5964     0.6194 </r>
       <r>    -4.3499     0.5993     0.6237 </r>
       <r>    -4.3426     0.6021     0.6281 </r>
       <r>    -4.3353     0.6049     0.6325 </r>
       <r>    -4.3281     0.6078     0.6369 </r>
       <r>    -4.3208     0.6107     0.6413 </r>
       <r>    -4.3136     0.6136     0.6457 </r>
       <r>    -4.3063     0.6165     0.6502 </r>
       <r>    -4.2990     0.6194     0.6547 </r>
       <r>    -4.2918     0.6224     0.6592 </r>
       <r>    -4.2845     0.6254     0.6637 </r>
       <r>    -4.2772     0.6283     0.6683 </r>
       <r>    -4.2700     0.6313     0.6729 </r>
       <r>    -4.2627     0.6344     0.6775 </r>
       <r>    -4.2555     0.6374     0.6821 </r>
       <r>    -4.2482     0.6405     0.6867 </r>
       <r>    -4.2409     0.6435     0.6914 </r>
       <r>    -4.2337     0.6466     0.6961 </r>
       <r>    -4.2264     0.6497     0.7008 </r>
       <r>    -4.2191     0.6528     0.7055 </r>
       <r>    -4.2119     0.6560     0.7102 </r>
       <r>    -4.2046     0.6591     0.7150 </r>
       <r>    -4.1974     0.6623     0.7198 </r>
       <r>    -4.1901     0.6655     0.7246 </r>
       <r>    -4.1828     0.6687     0.7295 </r>
       <r>    -4.1756     0.6720     0.7344 </r>
       <r>    -4.1683     0.6753     0.7392 </r>
       <r>    -4.1610     0.6787     0.7442 </r>
       <r>    -4.1538     0.6821     0.7491 </r>
       <r>    -4.1465     0.6856     0.7541 </r>
       <r>    -4.1393     0.6891     0.7591 </r>
       <r>    -4.1320     0.6927     0.7641 </r>
       <r>    -4.1247     0.6963     0.7691 </r>
       <r>    -4.1175     0.6999     0.7742 </r>
       <r>    -4.1102     0.7036     0.7793 </r>
       <r>    -4.1030     0.7073     0.7844 </r>
       <r>    -4.0957     0.7111     0.7896 </r>
       <r>    -4.0884     0.7150     0.7947 </r>
       <r>    -4.0812     0.7188     0.7999 </r>
       <r>    -4.0739     0.7228     0.8052 </r>
       <r>    -4.0666     0.7269     0.8104 </r>
       <r>    -4.0594     0.7322     0.8157 </r>
       <r>    -4.0521     0.7387     0.8211 </r>
       <r>    -4.0449     0.7465     0.8265 </r>
       <r>    -4.0376     0.7557     0.8319 </r>
       <r>    -4.0303     0.7661     0.8375 </r>
       <r>    -4.0231     0.7778     0.8431 </r>
       <r>    -4.0158     0.7905     0.8487 </r>
       <r>    -4.0085     0.8041     0.8545 </r>
       <r>    -4.0013     0.8186     0.8604 </r>
       <r>    -3.9940     0.8340     0.8664 </r>
       <r>    -3.9868     0.8503     0.8725 </r>
       <r>    -3.9795     0.8674     0.8788 </r>
       <r>    -3.9722     0.8855     0.8851 </r>
       <r>    -3.9650     0.9044     0.8916 </r>
       <r>    -3.9577     0.9242     0.8983 </r>
       <r>    -3.9505     0.9449     0.9051 </r>
       <r>    -3.9432     0.9665     0.9120 </r>
       <r>    -3.9359     0.9889     0.9191 </r>
       <r>    -3.9287     1.0123     0.9264 </r>
       <r>    -3.9214     1.0365     0.9338 </r>
       <r>    -3.9141     1.0591     0.9414 </r>
       <r>    -3.9069     1.0753     0.9492 </r>
       <r>    -3.8996     1.0849     0.9570 </r>
       <r>    -3.8924     1.0879     0.9649 </r>
       <r>    -3.8851     1.0842     0.9728 </r>
       <r>    -3.8778     1.0741     0.9807 </r>
       <r>    -3.8706     1.0573     0.9884 </r>
       <r>    -3.8633     1.0339     0.9960 </r>
       <r>    -3.8560     1.0039     1.0034 </r>
       <r>    -3.8488     0.9674     1.0106 </r>
       <r>    -3.8415     0.9242     1.0174 </r>
       <r>    -3.8343     0.8745     1.0240 </r>
       <r>    -3.8270     0.8648     1.0303 </r>
       <r>    -3.8197     0.8638     1.0365 </r>
       <r>    -3.8125     0.8627     1.0428 </r>
       <r>    -3.8052     0.8616     1.0491 </r>
       <r>    -3.7980     0.8606     1.0553 </r>
       <r>    -3.7907     0.8596     1.0616 </r>
       <r>    -3.7834     0.8586     1.0678 </r>
       <r>    -3.7762     0.8576     1.0740 </r>
       <r>    -3.7689     0.8566     1.0803 </r>
       <r>    -3.7616     0.8556     1.0865 </r>
       <r>    -3.7544     0.8547     1.0927 </r>
       <r>    -3.7471     0.8537     1.0989 </r>
       <r>    -3.7399     0.8528     1.1051 </r>
       <r>    -3.7326     0.8519     1.1113 </r>
       <r>    -3.7253     0.8510     1.1175 </r>
       <r>    -3.7181     0.8501     1.1236 </r>
       <r>    -3.7108     0.8492     1.1298 </r>
       <r>    -3.7035     0.8484     1.1360 </r>
       <r>    -3.6963     0.8475     1.1421 </r>
       <r>    -3.6890     0.8467     1.1483 </r>
       <r>    -3.6818     0.8458     1.1544 </r>
       <r>    -3.6745     0.8450     1.1606 </r>
       <r>    -3.6672     0.8442     1.1667 </r>
       <r>    -3.6600     0.8435     1.1728 </r>
       <r>    -3.6527     0.8427     1.1789 </r>
       <r>    -3.6454     0.8419     1.1851 </r>
       <r>    -3.6382     0.8411     1.1912 </r>
       <r>    -3.6309     0.8404     1.1973 </r>
       <r>    -3.6237     0.8396     1.2034 </r>
       <r>    -3.6164     0.8389     1.2095 </r>
       <r>    -3.6091     0.8381     1.2156 </r>
       <r>    -3.6019     0.8374     1.2216 </r>
       <r>    -3.5946     0.8367     1.2277 </r>
       <r>    -3.5874     0.8359     1.2338 </r>
       <r>    -3.5801     0.8352     1.2399 </r>
       <r>    -3.5728     0.8345     1.2459 </r>
       <r>    -3.5656     0.8337     1.2520 </r>
       <r>    -3.5583     0.8330     1.2580 </r>
       <r>    -3.5510     0.8323     1.2641 </r>
       <r>    -3.5438     0.8316     1.2701 </r>
       <r>    -3.5365     0.8309     1.2762 </r>
       <r>    -3.5293     0.8301     1.2822 </r>
       <r>    -3.5220     0.8289     1.2882 </r>
       <r>    -3.5147     0.8273     1.2942 </r>
       <r>    -3.5075     0.8253     1.3002 </r>
       <r>    -3.5002     0.8229     1.3062 </r>
       <r>    -3.4929     0.8202     1.3122 </r>
[...]
       </set>
       <set comment="band 12">
        <r>  0.0437  0.0068  0.0009  0.0310  0.0000  0.0000  0.0000  0.0000  0.0000 </r>
        <r>  0.0437  0.0068  0.0009  0.0310  0.0000  0.0000  0.0000  0.0000  0.0000 </r>
       </set>
       <set comment="band 13">
        <r>  0.0080  0.0714  0.0207  0.1176  0.0000  0.0000  0.0000  0.0000  0.0000 </r>
        <r>  0.0080  0.0714  0.0207  0.1176  0.0000  0.0000  0.0000  0.0000  0.0000 </r>
       </set>
       <set comment="band 14">
        <r>  0.0127  0.0169  0.0098  0.0300  0.0000  0.0000  0.0000  0.0000  0.0000 </r>
        <r>  0.0127  0.0169  0.0098  0.0300  0.0000  0.0000  0.0000  0.0000  0.0000 </r>
       </set>
       <set comment="band 15">
        <r>  0.0001  0.0237  0.0206  0.0331  0.0000  0.0000  0.0000  0.0000  0.0000 </r>
        <r>  0.0001  0.0238  0.0206  0.0331  0.0000  0.0000  0.0000  0.0000  0.0000 </r>
       </set>
       <set comment="band 16">
        <r>  0.0360  0.0002  0.0007  0.0039  0.0000  0.0000  0.0000  0.0000  0.0000 </r>
        <r>  0.0372  0.0002  0.0007  0.0037  0.0000  0.0000  0.0000  0.0000  0.0000 </r>
       </set>
      </set>
      <set comment="kpoint 25">
       <set comment="band 1">
        <r>  0.2035  0.0051  0.0013  0.0193  0.0000  0.0000  0.0000  0.0000  0.0000 </r>
        <r>  0.2035  0.0051  0.0013  0.0193  0.0000  0.0000  0.0000  0.0000  0.0000 </r>
       </set>
       <set comment="band 2">
        <r>  0.1823  0.0143  0.0081  0.0433  0.0000  0.0000  0.0000  0.0000  0.0000 </r>
        <r>  0.1823  0.0143  0.0081  0.0433  0.0000  0.0000  0.0000  0.0000  0.0000 </r>
       </set>
       <set comment="band 3">
        <r>  0.0083  0.0344  0.0752  0.0562  0.0000  0.0000  0.0000  0.0000  0.0000 </r>
        <r>  0.0083  0.0344  0.0752  0.0562  0.0000  0.0000  0.0000  0.0000  0.0000 </r>
       </set>
       <set comment="band 4">
        <r>  0.0007  0.0948  0.0759  0.0097  0.0000  0.0000  0.0000  0.0000  0.0000 </r>
        <r>  0.0007  0.0948  0.0759  0.0097  0.0000  0.0000  0.0000  0.0000  0.0000 </r>
       </set>
       <set comment="band 5">
        <r>  0.0368  0.0484  0.0226  0.0129  0.0000  0.0000  0.0000  0.0000  0.0000 </r>
        <r>  0.0368  0.0484  0.0226  0.0129  0.0000  0.0000  0.0000  0.0000  0.0000 </r>
       </set>
       <set comment="band 6">
        <r>  0.0391  0.0033  0.0157  0.0344  0.0000  0.0000  0.0000  0.0000  0.0000 </r>
        <r>  0.0391  0.0033  0.0157  0.0344  0.0000  0.0000  0.0000  0.0000  0.0000 </r>
       </set>
       <set comment="band 7">
        <r>  0.0339  0.0620  0.0489  0.0073  0.0000  0.0000  0.0000  0.0000  0.0000 </r>
        <r>  0.0339  0.0620  0.0489  0.0073  0.0000  0.0000  0.0000  0.0000  0.0000 </r>
       </set>
       <set comment="band 8">
        <r>  0.0026  0.0670  0.0767  0.0169  0.0000  0.0000  0.0000  0.0000  0.0000 </r>
        <r>  0.0026  0.0670  0.0767  0.0169  0.0000  0.0000  0.0000  0.0000  0.0000 </r>
       </set>
       <set comment="band 9">
        <r>  0.0407  0.0119  0.0031  0.0573  0.0000  0.0000  0.0000  0.0000  0.0000 </r>
        <r>  0.0407  0.0119  0.0031  0.0573  0.0000  0.0000  0.0000  0.0000  0.0000 </r>
       </set>
       <set comment="band 10">
        <r>  0.0065  0.0066  0.0281  0.0768  0.0000  0.0000  0.0000  0.0000  0.0000 </r>
        <r>  0.0065  0.0066  0.0281  0.0768  0.0000  0.0000  0.0000  0.0000  0.0000 </r>
       </set>
       <set comment="band 11">
        <r>  0.0231  0.0157  0.0508  0.0915  0.0000  0.0000  0.0000  0.0000  0.0000 </r>
        <r>  0.0231  0.0157  0.0508  0.0915  0.0000  0.0000  0.0000  0.0000  0.0000 </r>
       </set>
       <set comment="band 12">
        <r>  0.0208  0.0131  0.0083  0.0064  0.0000  0.0000  0.0000  0.0000  0.0000 </r>
        <r>  0.0208  0.0131  0.0083  0.0064  0.0000  0.0000  0.0000  0.0000  0.0000 </r>
       </set>
       <set comment="band 13">
        <r>  0.0027  0.0472  0.0037  0.0518  0.0000  0.0000  0.0000  0.0000  0.0000 </r>
        <r>  0.0027  0.0472  0.0037  0.0518  0.0000  0.0000  0.0000  0.0000  0.0000 </r>
       </set>
       <set comment="band 14">
        <r>  0.0003  0.0162  0.0228  0.0074  0.0000  0.0000  0.0000  0.0000  0.0000 </r>
        <r>  0.0003  0.0162  0.0228  0.0074  0.0000  0.0000  0.0000  0.0000  0.0000 </r>
       </set>
       <set comment="band 15">
        <r>  0.0317  0.0028  0.0057  0.0375  0.0000  0.0000  0.0000  0.0000  0.0000 </r>
        <r>  0.0317  0.0028  0.0057  0.0375  0.0000  0.0000  0.0000  0.0000  0.0000 </r>
       </set>
       <set comment="band 16">
        <r>  0.0087  0.0076  0.0053  0.0087  0.0000  0.0000  0.0000  0.0000  0.0000 </r>
        <r>  0.0087  0.0075  0.0053  0.0087  0.0000  0.0000  0.0000  0.0000  0.0000 </r>
       </set>
      </set>
      <set comment="kpoint 26">
       <set comment="band 1">
        <r>  0.2095  0.0094  0.0020  0.0192  0.0000  0.0000  0.0000  0.0000  0.0000 </r>
        <r>  0.2095  0.0094  0.0020  0.0192  0.0000  0.0000  0.0000  0.0000  0.0000 </r>
       </set>
       <set comment="band 2">
        <r>  0.1844  0.0117  0.0028  0.0416  0.0000  0.0000  0.0000  0.0000  0.0000 </r>
        <r>  0.1844  0.0117  0.0028  0.0416  0.0000  0.0000  0.0000  0.0000  0.0000 </r>
       </set>
       <set comment="band 3">
        <r>  0.0069  0.0901  0.0089  0.0551  0.0000  0.0000  0.0000  0.0000  0.0000 </r>
        <r>  0.0069  0.0901  0.0089  0.0551  0.0000  0.0000  0.0000  0.0000  0.0000 </r>
       </set>
       <set comment="band 4">
        <r>  0.0017  0.0217  0.1481  0.0061  0.0000  0.0000  0.0000  0.0000  0.0000 </r>
        <r>  0.0017  0.0217  0.1481  0.0061  0.0000  0.0000  0.0000  0.0000  0.0000 </r>
       </set>
       <set comment="band 5">
        <r>  0.0386  0.0182  0.0388  0.0149  0.0000  0.0000  0.0000  0.0000  0.0000 </r>
        <r>  0.0386  0.0182  0.0388  0.0149  0.0000  0.0000  0.0000  0.0000  0.0000 </r>
       </set>
       <set comment="band 6">
        <r>  0.0166  0.0498  0.0051  0.0300  0.0000  0.0000  0.0000  0.0000  0.0000 </r>
        <r>  0.0166  0.0498  0.0051  0.0300  0.0000  0.0000  0.0000  0.0000  0.0000 </r>
       </set>
       <set comment="band 7">
        <r>  0.0443  0.0549  0.0422  0.0116  0.0000  0.0000  0.0000  0.0000  0.0000 </r>
        <r>  0.0443  0.0549  0.0422  0.0116  0.0000  0.0000  0.0000  0.0000  0.0000 </r>
       </set>
       <set comment="band 8">
        <r>  0.0237  0.0160  0.0429  0.0635  0.0000  0.0000  0.0000  0.0000  0.0000 </r>
        <r>  0.0237  0.0160  0.0429  0.0635  0.0000  0.0000  0.0000  0.0000  0.0000 </r>
       </set>
       <set comment="band 9">
        <r>  0.0115  0.0609  0.0517  0.0069  0.0000  0.0000  0.0000  0.0000  0.0000 </r>
        <r>  0.0115  0.0609  0.0517  0.0069  0.0000  0.0000  0.0000  0.0000  0.0000 </r>
       </set>
       <set comment="band 10">
        <r>  0.0066  0.0115  0.0133  0.0775  0.0000  0.0000  0.0000  0.0000  0.0000 </r>
        <r>  0.0066  0.0115  0.0133  0.0775  0.0000  0.0000  0.0000  0.0000  0.0000 </r>
       </set>
       <set comment="band 11">
        <r>  0.0215  0.0073  0.0335  0.0673  0.0000  0.0000  0.0000  0.0000  0.0000 </r>
        <r>  0.0215  0.0073  0.0335  0.0673  0.0000  0.0000  0.0000  0.0000  0.0000 </r>
       </set>
       <set comment="band 12">
        <r>  0.0071  0.0533  0.0169  0.0077  0.0000  0.0000  0.0000  0.0000  0.0000 </r>
        <r>  0.0071  0.0533  0.0169  0.0077  0.0000  0.0000  0.0000  0.0000  0.0000 </r>
       </set>
       <set comment="band 13">
        <r>  0.0138  0.0300  0.0285  0.0210  0.0000  0.0000  0.0000  0.0000  0.0000 </r>
        <r>  0.0138  0.0300  0.0285  0.0209  0.0000  0.0000  0.0000  0.0000  0.0000 </r>
       </set>
       <set comment="band 14">
        <r>  0.0156  0.0000  0.0039  0.0993  0.0000  0.0000  0.0000  0.0000  0.0000 </r>
        <r>  0.0156  0.0000  0.0039  0.0993  0.0000  0.0000  0.0000  0.0000  0.0000 </r>
       </set>
       <set comment="band 15">
        <r>  0.0119  0.0013  0.0086  0.0117  0.0000  0.0000  0.0000  0.0000  0.0000 </r>
        <r>  0.0117  0.0014  0.0086  0.0117  0.0000  0.0000  0.0000  0.0000  0.0000 </r>
       </set>
       <set comment="band 16">
        <r>  0.0251  0.0025  0.0048  0.0103  0.0000  0.0000  0.0000  0.0000  0.0000 </r>
        <r>  0.0253  0.0033  0.0044  0.0100  0.0000  0.0000  0.0000  0.0000  0.0000 </r>
       </set>
      </set>
      <set comment="kpoint 27">
       <set comment="band 1">
        <r>  0.2104  0.0140  0.0022  0.0109  0.0000  0.0000  0.0000  0.0000  0.0000 </r>
        <r>  0.2104  0.0140  0.0022  0.0109  0.0000  0.0000  0.0000  0.0000  0.0000 </r>
       </set>
       <set comment="band 2">
        <r>  0.1799  0.0278  0.0023  0.0312  0.0000  0.0000  0.0000  0.0000  0.0000 </r>
        <r>  0.1799  0.0278  0.0023  0.0312  0.0000  0.0000  0.0000  0.0000  0.0000 </r>
       </set>
       <set comment="band 3">
        <r>  0.0060  0.0786  0.0009  0.0723  0.0000  0.0000  0.0000  0.0000  0.0000 </r>
        <r>  0.0060  0.0786  0.0009  0.0723  0.0000  0.0000  0.0000  0.0000  0.0000 </r>
       </set>
       <set comment="band 4">
        <r>  0.0034  0.0066  0.1600  0.0130  0.0000  0.0000  0.0000  0.0000  0.0000 </r>
        <r>  0.0034  0.0066  0.1600  0.0130  0.0000  0.0000  0.0000  0.0000  0.0000 </r>
       </set>
       <set comment="band 5">
        <r>  0.0388  0.0141  0.0396  0.0236  0.0000  0.0000  0.0000  0.0000  0.0000 </r>
        <r>  0.0388  0.0141  0.0396  0.0236  0.0000  0.0000  0.0000  0.0000  0.0000 </r>
       </set>
       <set comment="band 6">
        <r>  0.0181  0.0106  0.0776  0.0193  0.0000  0.0000  0.0000  0.0000  0.0000 </r>
        <r>  0.0181  0.0106  0.0776  0.0193  0.0000  0.0000  0.0000  0.0000  0.0000 </r>
       </set>
       <set comment="band 7">
        <r>  0.0437  0.0462  0.0009  0.0362  0.0000  0.0000  0.0000  0.0000  0.0000 </r>
        <r>  0.0437  0.0462  0.0009  0.0362  0.0000  0.0000  0.0000  0.0000  0.0000 </r>
       </set>
       <set comment="band 8">
        <r>  0.0187  0.0601  0.0045  0.0384  0.0000  0.0000  0.0000  0.0000  0.0000 </r>
        <r>  0.0187  0.0601  0.0045  0.0384  0.0000  0.0000  0.0000  0.0000  0.0000 </r>
       </set>
       <set comment="band 9">
        <r>  0.0124  0.0316  0.0622  0.0585  0.0000  0.0000  0.0000  0.0000  0.0000 </r>
        <r>  0.0124  0.0316  0.0622  0.0585  0.0000  0.0000  0.0000  0.0000  0.0000 </r>
       </set>
       <set comment="band 10">
        <r>  0.0284  0.0435  0.0113  0.0251  0.0000  0.0000  0.0000  0.0000  0.0000 </r>
        <r>  0.0284  0.0435  0.0113  0.0251  0.0000  0.0000  0.0000  0.0000  0.0000 </r>
       </set>
       <set comment="band 11">
        <r>  0.0116  0.0210  0.0056  0.0336  0.0000  0.0000  0.0000  0.0000  0.0000 </r>
        <r>  0.0116  0.0210  0.0056  0.0336  0.0000  0.0000  0.0000  0.0000  0.0000 </r>
       </set>
       <set comment="band 12">
        <r>  0.0063  0.0461  0.0003  0.0545  0.0000  0.0000  0.0000  0.0000  0.0000 </r>
        <r>  0.0063  0.0461  0.0003  0.0545  0.0000  0.0000  0.0000  0.0000  0.0000 </r>
       </set>
       <set comment="band 13">
        <r>  0.0055  0.0252  0.0307  0.0225  0.0000  0.0000  0.0000  0.0000  0.0000 </r>
        <r>  0.0055  0.0252  0.0307  0.0225  0.0000  0.0000  0.0000  0.0000  0.0000 </r>
       </set>
       <set comment="band 14">
        <r>  0.0148  0.0642  0.0013  0.0367  0.0000  0.0000  0.0000  0.0000  0.0000 </r>
        <r>  0.0148  0.0642  0.0013  0.0367  0.0000  0.0000  0.0000  0.0000  0.0000 </r>
       </set>
       <set comment="band 15">
        <r>  0.0352  0.0048  0.0392  0.0029  0.0000  0.0000  0.0000  0.0000  0.0000 </r>
        <r>  0.0352  0.0048  0.0392  0.0029  0.0000  0.0000  0.0000  0.0000  0.0000 </r>
       </set>
       <set comment="band 16">
        <r>  0.0101  0.0236  0.0009  0.0391  0.0000  0.0000  0.0000  0.0000  0.0000 </r>
        <r>  0.0101  0.0242  0.0009  0.0399  0.0000  0.0000  0.0000  0.0000  0.0000 </r>
       </set>
      </set>
      <set comment="kpoint 28">
       <set comment="band 1">
        <r>  0.1981  0.0150  0.0024  0.0252  0.0000  0.0000  0.0000  0.0000  0.0000 </r>
        <r>  0.1982  0.0150  0.0024  0.0252  0.0000  0.0000  0.0000  0.0000  0.0000 </r>
       </set>
       <set comment="band 2">
        <r>  0.1982  0.0134  0.0023  0.0269  0.0000  0.0000  0.0000  0.0000  0.0000 </r>
        <r>  0.1981  0.0134  0.0023  0.0269  0.0000  0.0000  0.0000  0.0000  0.0000 </r>
       </set>
       <set comment="band 3">
        <r>  0.0025  0.0346  0.0742  0.0617  0.0000  0.0000  0.0000  0.0000  0.0000 </r>
        <r>  0.0025  0.0346  0.0742  0.0617  0.0000  0.0000  0.0000  0.0000  0.0000 </r>
       </set>
       <set comment="band 4">
        <r>  0.0025  0.0790  0.0797  0.0118  0.0000  0.0000  0.0000  0.0000  0.0000 </r>
        <r>  0.0025  0.0790  0.0797  0.0118  0.0000  0.0000  0.0000  0.0000  0.0000 </r>
       </set>
       <set comment="band 5">
        <r>  0.0397  0.0222  0.0045  0.0395  0.0000  0.0000  0.0000  0.0000  0.0000 </r>
        <r>  0.0395  0.0222  0.0045  0.0396  0.0000  0.0000  0.0000  0.0000  0.0000 </r>
       </set>
       <set comment="band 6">
        <r>  0.0395  0.0220  0.0355  0.0088  0.0000  0.0000  0.0000  0.0000  0.0000 </r>
        <r>  0.0397  0.0219  0.0355  0.0088  0.0000  0.0000  0.0000  0.0000  0.0000 </r>
       </set>
       <set comment="band 7">
        <r>  0.0209  0.0696  0.0493  0.0072  0.0000  0.0000  0.0000  0.0000  0.0000 </r>
        <r>  0.0210  0.0696  0.0493  0.0071  0.0000  0.0000  0.0000  0.0000  0.0000 </r>
       </set>
       <set comment="band 8">
        <r>  0.0210  0.0144  0.0486  0.0629  0.0000  0.0000  0.0000  0.0000  0.0000 </r>
        <r>  0.0209  0.0145  0.0486  0.0630  0.0000  0.0000  0.0000  0.0000  0.0000 </r>
       </set>
       <set comment="band 9">
        <r>  0.0005  0.0586  0.0509  0.0139  0.0000  0.0000  0.0000  0.0000  0.0000 </r>
        <r>  0.0005  0.0586  0.0509  0.0139  0.0000  0.0000  0.0000  0.0000  0.0000 </r>
       </set>
       <set comment="band 10">
        <r>  0.0005  0.0237  0.0511  0.0486  0.0000  0.0000  0.0000  0.0000  0.0000 </r>
        <r>  0.0005  0.0237  0.0511  0.0486  0.0000  0.0000  0.0000  0.0000  0.0000 </r>
       </set>
       <set comment="band 11">
        <r>  0.0244  0.0321  0.0074  0.0535  0.0000  0.0000  0.0000  0.0000  0.0000 </r>
        <r>  0.0244  0.0321  0.0074  0.0535  0.0000  0.0000  0.0000  0.0000  0.0000 </r>
       </set>
       <set comment="band 12">
        <r>  0.0244  0.0299  0.0073  0.0558  0.0000  0.0000  0.0000  0.0000  0.0000 </r>
        <r>  0.0244  0.0299  0.0073  0.0558  0.0000  0.0000  0.0000  0.0000  0.0000 </r>
       </set>
       <set comment="band 13">
        <r>  0.0119  0.0693  0.0187  0.0286  0.0000  0.0000  0.0000  0.0000  0.0000 </r>
        <r>  0.0117  0.0699  0.0185  0.0298  0.0000  0.0000  0.0000  0.0000  0.0000 </r>
       </set>
       <set comment="band 14">
        <r>  0.0117  0.0089  0.0184  0.0908  0.0000  0.0000  0.0000  0.0000  0.0000 </r>
        <r>  0.0119  0.0084  0.0186  0.0896  0.0000  0.0000  0.0000  0.0000  0.0000 </r>
       </set>
       <set comment="band 15">
        <r>  0.0044  0.0029  0.0023  0.0036  0.0000  0.0000  0.0000  0.0000  0.0000 </r>
        <r>  0.0013  0.0084  0.0086  0.0083  0.0000  0.0000  0.0000  0.0000  0.0000 </r>
       </set>
       <set comment="band 16">
        <r>  0.0014  0.0085  0.0110  0.0058  0.0000  0.0000  0.0000  0.0000  0.0000 </r>
        <r>  0.0044  0.0030  0.0048  0.0011  0.0000  0.0000  0.0000  0.0000  0.0000 </r>
       </set>
      </set>
      <set comment="kpoint 29">
       <set comment="band 1">
        <r>  0.2042  0.0136  0.0102  0.0170  0.0000  0.0000  0.0000  0.0000  0.0000 </r>
        <r>  0.2042  0.0136  0.0102  0.0170  0.0000  0.0000  0.0000  0.0000  0.0000 </r>
       </set>
       <set comment="band 2">
        <r>  0.2042  0.0136  0.0102  0.0170  0.0000  0.0000  0.0000  0.0000  0.0000 </r>
        <r>  0.2042  0.0136  0.0102  0.0170  0.0000  0.0000  0.0000  0.0000  0.0000 </r>
       </set>
       <set comment="band 3">
        <r>  0.0000  0.0133  0.0614  0.0852  0.0000  0.0000  0.0000  0.0000  0.0000 </r>
        <r>  0.0000  0.0133  0.0614  0.0851  0.0000  0.0000  0.0000  0.0000  0.0000 </r>
       </set>
       <set comment="band 4">
        <r>  0.0000  0.0933  0.0530  0.0135  0.0000  0.0000  0.0000  0.0000  0.0000 </r>
        <r>  0.0000  0.0933  0.0530  0.0135  0.0000  0.0000  0.0000  0.0000  0.0000 </r>
       </set>
       <set comment="band 5">
        <r>  0.0000  0.0297  0.0425  0.0131  0.0000  0.0000  0.0000  0.0000  0.0000 </r>
        <r>  0.0000  0.0298  0.0427  0.0132  0.0000  0.0000  0.0000  0.0000  0.0000 </r>
       </set>
       <set comment="band 6">
        <r>  0.0000  0.0273  0.0429  0.0154  0.0000  0.0000  0.0000  0.0000  0.0000 </r>
        <r>  0.0000  0.0272  0.0428  0.0154  0.0000  0.0000  0.0000  0.0000  0.0000 </r>
       </set>
       <set comment="band 7">
        <r>  0.0615  0.0352  0.0264  0.0440  0.0000  0.0000  0.0000  0.0000  0.0000 </r>
        <r>  0.0616  0.0351  0.0263  0.0439  0.0000  0.0000  0.0000  0.0000  0.0000 </r>
       </set>
       <set comment="band 8">
        <r>  0.0616  0.0351  0.0263  0.0439  0.0000  0.0000  0.0000  0.0000  0.0000 </r>
        <r>  0.0615  0.0352  0.0264  0.0440  0.0000  0.0000  0.0000  0.0000  0.0000 </r>
       </set>
       <set comment="band 9">
        <r>  0.0000  0.0763  0.0399  0.0191  0.0000  0.0000  0.0000  0.0000  0.0000 </r>
        <r>  0.0000  0.0763  0.0399  0.0191  0.0000  0.0000  0.0000  0.0000  0.0000 </r>
       </set>
       <set comment="band 10">
        <r>  0.0000  0.0139  0.0472  0.0742  0.0000  0.0000  0.0000  0.0000  0.0000 </r>
        <r>  0.0000  0.0139  0.0472  0.0742  0.0000  0.0000  0.0000  0.0000  0.0000 </r>
       </set>
       <set comment="band 11">
        <r>  0.0254  0.0344  0.0258  0.0430  0.0000  0.0000  0.0000  0.0000  0.0000 </r>
        <r>  0.0254  0.0344  0.0258  0.0430  0.0000  0.0000  0.0000  0.0000  0.0000 </r>
       </set>
       <set comment="band 12">
        <r>  0.0254  0.0344  0.0258  0.0430  0.0000  0.0000  0.0000  0.0000  0.0000 </r>
        <r>  0.0254  0.0344  0.0258  0.0430  0.0000  0.0000  0.0000  0.0000  0.0000 </r>
       </set>
       <set comment="band 13">
        <r>  0.0000  0.0145  0.0094  0.0095  0.0000  0.0000  0.0000  0.0000  0.0000 </r>
        <r>  0.0000  0.0122  0.0079  0.0065  0.0000  0.0000  0.0000  0.0000  0.0000 </r>
       </set>
       <set comment="band 14">
        <r>  0.0000  0.0055  0.0067  0.0143  0.0000  0.0000  0.0000  0.0000  0.0000 </r>
        <r>  0.0000  0.0078  0.0083  0.0173  0.0000  0.0000  0.0000  0.0000  0.0000 </r>
       </set>
       <set comment="band 15">
        <r>  0.0190  0.0105  0.0078  0.0134  0.0000  0.0000  0.0000  0.0000  0.0000 </r>
        <r>  0.0406  0.0049  0.0038  0.0061  0.0000  0.0000  0.0000  0.0000  0.0000 </r>
       </set>
       <set comment="band 16">
        <r>  0.0407  0.0048  0.0040  0.0060  0.0000  0.0000  0.0000  0.0000  0.0000 </r>
        <r>  0.0189  0.0100  0.0082  0.0135  0.0000  0.0000  0.0000  0.0000  0.0000 </r>
       </set>
      </set>
     </set>
    </set>
   </array>
  </projected>
 </calculation>
 <structure name="finalpos" >
  <crystal>
   <varray name="basis" >
    <v>       3.34889800       0.00000000       1.93348700 </v>
    <v>       1.11629900       3.15737200       1.93348700 </v>
    <v>       0.00000000       0.00000000       3.86697500 </v>
   </varray>
   <i name="volume">     40.88829843 </i>
   <varray name="rec_basis" >
    <v>       0.29860569      -0.10557300       0.00000000 </v>
    <v>       0.00000000       0.31671909       0.00000000 </v>
    <v>      -0.14930281      -0.10557302       0.25860007 </v>
   </varray>
  </crystal>
  <varray name="positions" >
   <v>       0.25000000       0.25000000       0.25000000 </v>
   <v>       0.00000000       0.00000000       0.00000000 </v>
  </varray>
 </structure>
</modeling>
