 vasp.6.3.0 20Jan22 (build Feb 02 2022 18:12:33) complex                        
  
 executed on             LinuxIFC date 2022.04.15  08:53:49
 running on  144 total cores
 distrk:  each k-point on  144 cores,    1 groups
 distr:  one band on NCORE=   1 cores,  144 groups


--------------------------------------------------------------------------------------------------------


 INCAR:
   ALGO = Fast
   EDIFF = 1e-05
   ENAUG = 1360.0
   ENCUT = 500
   GGA = Ps
   ISMEAR = 0
   ISPIN = 2
   LAECHG = False
   LASPH = True
   LCHARG = True
   LELF = False
   LMIXTAU = True
   LORBIT = 11
   LREAL = False
   LVTOT = True
   LWAVE = True
   MAGMOM = 7*0.0
   NELECT = 27.0
   NELM = 200
   NELMIN = 6
   NSW = 0
   PREC = Accurate
   SIGMA = 0.05

 POTCAR:    PAW_PBE Si 05Jan2001                  
 WARNING: For LVTOT=.TRUE., VASP.5.x writes the TOTAL local potential to the
     file LOCPOT. If you want only the Hartree contributions, use LVHAR=.TRUE.
     instead. 

 -----------------------------------------------------------------------------
|                                                                             |
|           W    W    AA    RRRRR   N    N  II  N    N   GGGG   !!!           |
|           W    W   A  A   R    R  NN   N  II  NN   N  G    G  !!!           |
|           W    W  A    A  R    R  N N  N  II  N N  N  G       !!!           |
|           W WW W  AAAAAA  RRRRR   N  N N  II  N  N N  G  GGG   !            |
|           WW  WW  A    A  R   R   N   NN  II  N   NN  G    G                |
|           W    W  A    A  R    R  N    N  II  N    N   GGGG   !!!           |
|                                                                             |
|     For optimal performance we recommend to set                             |
|       NCORE = 2 up to number-of-cores-per-socket                            |
|     NCORE specifies how many cores store one orbital (NPAR=cpu/NCORE).      |
|     This setting can greatly improve the performance of VASP for DFT.       |
|     The default, NCORE=1 might be grossly inefficient on modern             |
|     multi-core architectures or massively parallel machines. Do your        |
|     own testing! More info at https://www.vasp.at/wiki/index.php/NCORE      |
|     Unfortunately you need to use the default for GW and RPA                |
|     calculations (for HF NCORE is supported but not extensively tested      |
|     yet).                                                                   |
|                                                                             |
 -----------------------------------------------------------------------------

 POTCAR:    PAW_PBE Si 05Jan2001                  
   VRHFIN =Si: s2p2                                                                                 
   LEXCH  = PE                                                                                      
   EATOM  =   103.0669 eV,    7.5752 Ry                                                             
                                                                                                    
   TITEL  = PAW_PBE Si 05Jan2001                                                                    
   LULTRA =        F    use ultrasoft PP ?                                                          
   IUNSCR =        1    unscreen: 0-lin 1-nonlin 2-no                                               
   RPACOR =    1.500    partial core radius                                                         
   POMASS =   28.085; ZVAL   =    4.000    mass and valenz                                          
   RCORE  =    1.900    outmost cutoff radius                                                       
   RWIGS  =    2.480; RWIGS  =    1.312    wigner-seitz radius (au A)                               
   ENMAX  =  245.345; ENMIN  =  184.009 eV                                                          
   ICORE  =        2    local potential                                                             
   LCOR   =        T    correct aug charges                                                         
   LPAW   =        T    paw PP                                                                      
   EAUG   =  322.069                                                                                
   DEXC   =    0.000                                                                                
   RMAX   =    1.950    core radius for proj-oper                                                   
   RAUG   =    1.300    factor for augmentation sphere                                              
   RDEP   =    1.993    radius for radial grids                                                     
   RDEPT  =    1.837    core radius for aug-charge                                                  
                                                                                                    
   Atomic configuration                                                                             
    6 entries                                                                                       
     n  l   j            E        occ.                                                              
     1  0  0.50     -1785.8828   2.0000                                                             
     2  0  0.50      -139.4969   2.0000                                                             
     2  1  1.50       -95.5546   6.0000                                                             
     3  0  0.50       -10.8127   2.0000                                                             
     3  1  0.50        -4.0811   2.0000                                                             
     3  2  1.50        -4.0817   0.0000                                                             
   Description                                                                                      
     l       E           TYP  RCUT    TYP  RCUT                                                     
     0    -10.8127223     23  1.900                                                                 
     0     -7.6451159     23  1.900                                                                 
     1     -4.0811372     23  1.900                                                                 
     1      2.4879257     23  1.900                                                                 
     2     -4.0817478      7  1.900                                                                 
  local pseudopotential read in
  partial core-charges read in
  partial kinetic energy density read in
  atomic valenz-charges read in
  non local Contribution for L=           0  read in
    real space projection operators read in
  non local Contribution for L=           0  read in
    real space projection operators read in
  non local Contribution for L=           1  read in
    real space projection operators read in
  non local Contribution for L=           1  read in
    real space projection operators read in
    PAW grid and wavefunctions read in
 
   number of l-projection  operators is LMAX  =           4
   number of lm-projection operators is LMMAX =           8
 
 -----------------------------------------------------------------------------
|                                                                             |
|               ----> ADVICE to this user running VASP <----                  |
|                                                                             |
|     You enforced a specific xc type in the INCAR file but a different       |
|     type was found in the POTCAR file.                                      |
|     I HOPE YOU KNOW WHAT YOU ARE DOING!                                     |
|                                                                             |
 -----------------------------------------------------------------------------

  PAW_PBE Si 05Jan2001                  :
 energy of atom  1       EATOM= -103.0669
 kinetic energy error for atom=    0.0006 (will be added to EATOM!!)
 
 
 POSCAR: Si7
  positions in direct lattice
  No initial velocities read in
 exchange correlation table for  LEXCH =       14
   RHO(1)=    0.500       N(1)  =     2000
   RHO(2)= 2000.500       N(2)  =     4000
 


--------------------------------------------------------------------------------------------------------


 ion  position               nearest neighbor table
   1  0.246  0.754  0.246-   2 2.34   4 2.34   6 2.34
   2  0.000  0.000  0.500-   1 2.34   3 2.34   5 2.34   7 2.34
   3  0.246  0.246  0.754-   2 2.34   4 2.34   6 2.34
   4  0.000  0.500  0.000-   1 2.34   3 2.34   5 2.34   7 2.34
   5  0.754  0.754  0.754-   2 2.34   4 2.34   6 2.34
   6  0.500  0.000  0.000-   1 2.34   3 2.34   5 2.34   7 2.34
   7  0.754  0.246  0.246-   2 2.34   4 2.34   6 2.34
 
  LATTYP: Found a simple cubic cell.
 ALAT       =     5.4378483500
  
  Lattice vectors:
  
 A1 = (   5.4378483500,   0.0000000000,   0.0000000000)
 A2 = (   0.0000000000,   5.4378483500,   0.0000000000)
 A3 = (   0.0000000000,   0.0000000000,   5.4378483500)


Analysis of symmetry for initial positions (statically):
=====================================================================
 Subroutine PRICEL returns:
 Original cell was already a primitive cell.
 

 Routine SETGRP: Setting up the symmetry group for a 
 simple cubic supercell.


 Subroutine GETGRP returns: Found 24 space group operations
 (whereof 24 operations were pure point group operations)
 out of a pool of 48 trial point group operations.


The static configuration has the point symmetry T_d .


Analysis of symmetry for dynamics (positions and initial velocities):
=====================================================================
 Subroutine PRICEL returns:
 Original cell was already a primitive cell.
 

 Routine SETGRP: Setting up the symmetry group for a 
 simple cubic supercell.


 Subroutine GETGRP returns: Found 24 space group operations
 (whereof 24 operations were pure point group operations)
 out of a pool of 48 trial point group operations.


The dynamic configuration has the point symmetry T_d .


Analysis of structural, dynamic, and magnetic symmetry:
=====================================================================
 Subroutine PRICEL returns:
 Original cell was already a primitive cell.
 

 Routine SETGRP: Setting up the symmetry group for a 
 simple cubic supercell.


 Subroutine GETGRP returns: Found 24 space group operations
 (whereof 24 operations were pure point group operations)
 out of a pool of 48 trial point group operations.


The overall configuration has the point symmetry T_d .


 Subroutine INISYM returns: Found 24 space group operations
 (whereof 24 operations are pure point group operations),
 and found     1 'primitive' translations


----------------------------------------------------------------------------------------

                                     Primitive cell                                     

  volume of cell :     160.7982

  direct lattice vectors                    reciprocal lattice vectors
     5.437848350  0.000000000  0.000000000     0.183896265  0.000000000  0.000000000
     0.000000000  5.437848350  0.000000000     0.000000000  0.183896265  0.000000000
     0.000000000  0.000000000  5.437848350     0.000000000  0.000000000  0.183896265

  length of vectors
     5.437848350  5.437848350  5.437848350     0.183896265  0.183896265  0.183896265

  position of ions in fractional coordinates (direct lattice)
     0.246079122  0.753920878  0.246079122
     0.000000000  0.000000000  0.500000000
     0.246079122  0.246079122  0.753920878
     0.000000000  0.500000000  0.000000000
     0.753920878  0.753920878  0.753920878
     0.500000000  0.000000000  0.000000000
     0.753920878  0.246079122  0.246079122

  ion indices of the primitive-cell ions
   primitive index   ion index
                 1           1
                 2           2
                 3           3
                 4           4
                 5           5
                 6           6
                 7           7

----------------------------------------------------------------------------------------

 
 
 KPOINTS: pymatgen with grid density = 691 / numbe

Automatic generation of k-mesh.
 Grid dimensions read from file:
 generate k-points for:    4    4    4

 Generating k-lattice:

  Cartesian coordinates                     Fractional coordinates (reciprocal lattice)
     0.045974066  0.000000000  0.000000000     0.250000000  0.000000000  0.000000000
     0.000000000  0.045974066  0.000000000     0.000000000  0.250000000  0.000000000
     0.000000000  0.000000000  0.045974066     0.000000000  0.000000000  0.250000000

  Length of vectors
     0.045974066  0.045974066  0.045974066

  Shift w.r.t. Gamma in fractional coordinates (k-lattice)
     0.000000000  0.000000000  0.000000000

 
 Subroutine IBZKPT returns following result:
 ===========================================
 
 Found     10 irreducible k-points:
 
 Following reciprocal coordinates:
            Coordinates               Weight
  0.000000  0.000000  0.000000      1.000000
  0.250000  0.000000  0.000000      6.000000
  0.500000  0.000000  0.000000      3.000000
  0.250000  0.250000  0.000000     12.000000
  0.500000  0.250000  0.000000     12.000000
  0.500000  0.500000  0.000000      3.000000
  0.250000  0.250000  0.250000      8.000000
  0.500000  0.250000  0.250000     12.000000
  0.500000  0.500000  0.250000      6.000000
  0.500000  0.500000  0.500000      1.000000
 
 Following cartesian coordinates:
            Coordinates               Weight
  0.000000  0.000000  0.000000      1.000000
  0.045974  0.000000  0.000000      6.000000
  0.091948  0.000000  0.000000      3.000000
  0.045974  0.045974  0.000000     12.000000
  0.091948  0.045974  0.000000     12.000000
  0.091948  0.091948  0.000000      3.000000
  0.045974  0.045974  0.045974      8.000000
  0.091948  0.045974  0.045974     12.000000
  0.091948  0.091948  0.045974      6.000000
  0.091948  0.091948  0.091948      1.000000
 


--------------------------------------------------------------------------------------------------------




 Dimension of arrays:
   k-points           NKPTS =     10   k-points in BZ     NKDIM =     10   number of bands    NBANDS=    144
   number of dos      NEDOS =    301   number of ions     NIONS =      7
   non local maximal  LDIM  =      4   non local SUM 2l+1 LMDIM =      8
   total plane-waves  NPLWV =  64000
   max r-space proj   IRMAX =      1   max aug-charges    IRDMAX=  13506
   dimension x,y,z NGX =    40 NGY =   40 NGZ =   40
   dimension x,y,z NGXF=    80 NGYF=   80 NGZF=   80
   support grid    NGXF=    80 NGYF=   80 NGZF=   80
   ions per type =               7
   NGX,Y,Z   is equivalent  to a cutoff of  12.23, 12.23, 12.23 a.u.
   NGXF,Y,Z  is equivalent  to a cutoff of  24.46, 24.46, 24.46 a.u.

 SYSTEM =  unknown system                          
 POSCAR =  Si7                                     

 Startparameter for this run:
   NWRITE =      2    write-flag & timer
   PREC   = accura    normal or accurate (medium, high low for compatibility)
   ISTART =      0    job   : 0-new  1-cont  2-samecut
   ICHARG =      2    charge: 1-file 2-atom 10-const
   ISPIN  =      2    spin polarized calculation?
   LNONCOLLINEAR =      F non collinear calculations
   LSORBIT =      F    spin-orbit coupling
   INIWAV =      1    electr: 0-lowe 1-rand  2-diag
   LASPH  =      T    aspherical Exc in radial PAW
 Electronic Relaxation 1
   ENCUT  =  500.0 eV  36.75 Ry    6.06 a.u.   9.91  9.91  9.91*2*pi/ulx,y,z
   ENINI  =  500.0     initial cutoff
   ENAUG  = 1360.0 eV  augmentation charge cutoff
   NELM   =    200;   NELMIN=  6; NELMDL= -5     # of ELM steps 
   EDIFF  = 0.1E-04   stopping-criterion for ELM
   LREAL  =      F    real-space projection
   NLSPLINE    = F    spline interpolate recip. space projectors
   LCOMPAT=      F    compatible to vasp.4.4
   GGA_COMPAT  = T    GGA compatible to vasp.4.4-vasp.4.6
   LMAXPAW     = -100 max onsite density
   LMAXMIX     =    2 max onsite mixed and CHGCAR
   VOSKOWN=      0    Vosko Wilk Nusair interpolation
   ROPT   =    0.00000
 Ionic relaxation
   EDIFFG = 0.1E-03   stopping-criterion for IOM
   NSW    =      0    number of steps for IOM
   NBLOCK =      1;   KBLOCK =      1    inner block; outer block 
   IBRION =     -1    ionic relax: 0-MD 1-quasi-New 2-CG
   NFREE  =      0    steps in history (QN), initial steepest desc. (CG)
   ISIF   =      2    stress and relaxation
   IWAVPR =     10    prediction:  0-non 1-charg 2-wave 3-comb
   ISYM   =      2    0-nonsym 1-usesym 2-fastsym
   LCORR  =      T    Harris-Foulkes like correction to forces

   POTIM  = 0.5000    time-step for ionic-motion
   TEIN   =    0.0    initial temperature
   TEBEG  =    0.0;   TEEND  =   0.0 temperature during run
   SMASS  =  -3.00    Nose mass-parameter (am)
   estimated Nose-frequenzy (Omega)   =  0.10E-29 period in steps = 0.13E+47 mass=  -0.676E-27a.u.
   SCALEE = 1.0000    scale energy and forces
   NPACO  =    256;   APACO  = 10.0  distance and # of slots for P.C.
   PSTRESS=    0.0 pullay stress

  Mass of Ions in am
   POMASS =  28.09
  Ionic Valenz
   ZVAL   =   4.00
  Atomic Wigner-Seitz radii
   RWIGS  =  -1.00
  virtual crystal weights 
   VCA    =   1.00
   NELECT =      27.0000    total number of electrons
   NUPDOWN=      -1.0000    fix difference up-down

 DOS related values:
   EMIN   =  10.00;   EMAX   =-10.00  energy-range for DOS
   EFERMI =   0.00
   ISMEAR =     0;   SIGMA  =   0.05  broadening in eV -4-tet -1-fermi 0-gaus

 Electronic relaxation 2 (details)
   IALGO  =     68    algorithm
   LDIAG  =      T    sub-space diagonalisation (order eigenvalues)
   LSUBROT=      F    optimize rotation matrix (better conditioning)
   TURBO    =      0    0=normal 1=particle mesh
   IRESTART =      0    0=no restart 2=restart with 2 vectors
   NREBOOT  =      0    no. of reboots
   NMIN     =      0    reboot dimension
   EREF     =   0.00    reference energy to select bands
   IMIX   =      4    mixing-type and parameters
     AMIX     =   0.40;   BMIX     =  1.00
     AMIX_MAG =   1.60;   BMIX_MAG =  1.00
     AMIN     =   0.10
     WC   =   100.;   INIMIX=   1;  MIXPRE=   1;  MAXMIX= -45

 Intra band minimization:
   WEIMIN = 0.0000     energy-eigenvalue tresh-hold
   EBREAK =  0.17E-07  absolut break condition
   DEPER  =   0.30     relativ break condition  

   TIME   =   0.40     timestep for ELM

  volume/ion in A,a.u.               =      22.97       155.02
  Fermi-wavevector in a.u.,A,eV,Ry     =   0.903169  1.706742 11.098465  0.815714
  Thomas-Fermi vector in A             =   2.026462
 
 Write flags
   LWAVE        =      T    write WAVECAR
   LDOWNSAMPLE  =      F    k-point downsampling of WAVECAR
   LCHARG       =      T    write CHGCAR
   LVTOT        =      T    write LOCPOT, total local potential
   LVHAR        =      F    write LOCPOT, Hartree potential only
   LELF         =      F    write electronic localiz. function (ELF)
   LORBIT       =     11    0 simple, 1 ext, 2 COOP (PROOUT), +10 PAW based schemes


 Dipole corrections
   LMONO  =      F    monopole corrections only (constant potential shift)
   LDIPOL =      F    correct potential (dipole corrections)
   IDIPOL =      0    1-x, 2-y, 3-z, 4-all directions 
   EPSILON=  1.0000000 bulk dielectric constant

 Exchange correlation treatment:
   GGA     =    PS    GGA type
   LEXCH   =    14    internal setting for exchange type
   LIBXC   =     F    Libxc                    
   VOSKOWN =     0    Vosko Wilk Nusair interpolation
   LHFCALC =     F    Hartree Fock is set to
   LHFONE  =     F    Hartree Fock one center treatment
   AEXX    =    0.0000 exact exchange contribution

 Linear response parameters
   LEPSILON=     F    determine dielectric tensor
   LRPA    =     F    only Hartree local field effects (RPA)
   LNABLA  =     F    use nabla operator in PAW spheres
   LVEL    =     F    velocity operator in full k-point grid
   CSHIFT  =0.1000    complex shift for real part using Kramers Kronig
   OMEGAMAX=  -1.0    maximum frequency
   DEG_THRESHOLD= 0.2000000E-02 threshold for treating states as degnerate
   RTIME   =   -0.100 relaxation time in fs
  (WPLASMAI=    0.000 imaginary part of plasma frequency in eV, 0.658/RTIME)
   DFIELD  = 0.0000000 0.0000000 0.0000000 field for delta impulse in time
 
  Optional k-point grid parameters
   LKPOINTS_OPT  =     F    use optional k-point grid
   KPOINTS_OPT_MODE=     1    mode for optional k-point grid
 
 Orbital magnetization related:
   ORBITALMAG=     F  switch on orbital magnetization
   LCHIMAG   =     F  perturbation theory with respect to B field
   DQ        =  0.001000  dq finite difference perturbation B field
   LLRAUG    =     F  two centre corrections for induced B field



--------------------------------------------------------------------------------------------------------


 Static calculation
 charge density and potential will be updated during run
 spin polarized calculation
 RMM-DIIS sequential band-by-band and
  variant of blocked Davidson during initial phase
 perform sub-space diagonalisation
    before iterative eigenvector-optimisation
 modified Broyden-mixing scheme, WC =      100.0
 initial mixing is a Kerker type mixing with AMIX =  0.4000 and BMIX =      1.0000
 Hartree-type preconditioning will be used
 using additional bands          130
 reciprocal scheme for non local part
 use partial core corrections
 calculate Harris-corrections to forces 
   (improved forces if not selfconsistent)
 use gradient corrections 
 use of overlap-Matrix (Vanderbilt PP)
 Gauss-broadening in eV      SIGMA  =   0.05


--------------------------------------------------------------------------------------------------------


  energy-cutoff  :      500.00
  volume of cell :      160.80
      direct lattice vectors                 reciprocal lattice vectors
     5.437848350  0.000000000  0.000000000     0.183896265  0.000000000  0.000000000
     0.000000000  5.437848350  0.000000000     0.000000000  0.183896265  0.000000000
     0.000000000  0.000000000  5.437848350     0.000000000  0.000000000  0.183896265

  length of vectors
     5.437848350  5.437848350  5.437848350     0.183896265  0.183896265  0.183896265


 
 k-points in units of 2pi/SCALE and weight: pymatgen with grid density = 691 / numbe
   0.00000000  0.00000000  0.00000000       0.016
   0.04597407  0.00000000  0.00000000       0.094
   0.09194813  0.00000000  0.00000000       0.047
   0.04597407  0.04597407  0.00000000       0.188
   0.09194813  0.04597407  0.00000000       0.188
   0.09194813  0.09194813  0.00000000       0.047
   0.04597407  0.04597407  0.04597407       0.125
   0.09194813  0.04597407  0.04597407       0.188
   0.09194813  0.09194813  0.04597407       0.094
   0.09194813  0.09194813  0.09194813       0.016
 
 k-points in reciprocal lattice and weights: pymatgen with grid density = 691 / numbe
   0.00000000  0.00000000  0.00000000       0.016
   0.25000000  0.00000000  0.00000000       0.094
   0.50000000  0.00000000  0.00000000       0.047
   0.25000000  0.25000000  0.00000000       0.188
   0.50000000  0.25000000  0.00000000       0.188
   0.50000000  0.50000000  0.00000000       0.047
   0.25000000  0.25000000  0.25000000       0.125
   0.50000000  0.25000000  0.25000000       0.188
   0.50000000  0.50000000  0.25000000       0.094
   0.50000000  0.50000000  0.50000000       0.016
 
 position of ions in fractional coordinates (direct lattice) 
   0.24607912  0.75392088  0.24607912
   0.00000000  0.00000000  0.50000000
   0.24607912  0.24607912  0.75392088
   0.00000000  0.50000000  0.00000000
   0.75392088  0.75392088  0.75392088
   0.50000000  0.00000000  0.00000000
   0.75392088  0.24607912  0.24607912
 
 position of ions in cartesian coordinates  (Angst):
   1.33814095  4.09970740  1.33814095
   0.00000000  0.00000000  2.71892418
   1.33814095  1.33814095  4.09970740
   0.00000000  2.71892418  0.00000000
   4.09970740  4.09970740  4.09970740
   2.71892418  0.00000000  0.00000000
   4.09970740  1.33814095  1.33814095
 


--------------------------------------------------------------------------------------------------------


 k-point   1 :   0.0000 0.0000 0.0000  plane waves:    4067
 k-point   2 :   0.2500 0.0000 0.0000  plane waves:    4072
 k-point   3 :   0.5000 0.0000 0.0000  plane waves:    4116
 k-point   4 :   0.2500 0.2500 0.0000  plane waves:    4080
 k-point   5 :   0.5000 0.2500 0.0000  plane waves:    4072
 k-point   6 :   0.5000 0.5000 0.0000  plane waves:    4076
 k-point   7 :   0.2500 0.2500 0.2500  plane waves:    4094
 k-point   8 :   0.5000 0.2500 0.2500  plane waves:    4076
 k-point   9 :   0.5000 0.5000 0.2500  plane waves:    4092
 k-point  10 :   0.5000 0.5000 0.5000  plane waves:    4032

 maximum and minimum number of plane-waves per node :      4116     4032

 maximum number of plane-waves:      4116
 maximum index in each direction: 
   IXMAX=    9   IYMAX=    9   IZMAX=    9
   IXMIN=  -10   IYMIN=  -10   IZMIN=  -10


 serial   3D FFT for wavefunctions
 parallel 3D FFT for charge:
    minimum data exchange during FFTs selected (reduces bandwidth)


 total amount of memory used by VASP MPI-rank0    40713. kBytes
=======================================================================

   base      :      30000. kBytes
   nonl-proj :       3140. kBytes
   fftplans  :        508. kBytes
   grid      :       5640. kBytes
   one-center:         43. kBytes
   wavefun   :       1382. kBytes
 
     INWAV:  cpu time      0.0002: real time      0.0007
 Broyden mixing: mesh for mixing (old mesh)
   NGX = 19   NGY = 19   NGZ = 19
  (NGX  = 80   NGY  = 80   NGZ  = 80)
  gives a total of   6859 points

 initial charge density was supplied:
 charge density of overlapping atoms calculated
 number of electron      28.0000000 magnetization       0.0000000
 keeping initial charge density in first step


--------------------------------------------------------------------------------------------------------


 Maximum index for augmentation-charges          665 (set IRDMAX)


--------------------------------------------------------------------------------------------------------


 First call to EWALD:  gamma=   0.326
 Maximum number of real-space cells 3x 3x 3
 Maximum number of reciprocal cells 3x 3x 3

    FEWALD:  cpu time      0.0038: real time      0.0038


--------------------------------------- Iteration      1(   1)  ---------------------------------------


    POTLOK:  cpu time      0.0235: real time      0.0271
    SETDIJ:  cpu time      0.1792: real time      0.1793
     EDDAV:  cpu time      5.2056: real time      5.2064
       DOS:  cpu time      0.0031: real time      0.0032
    --------------------------------------------
      LOOP:  cpu time      5.4115: real time      5.4161

 eigenvalue-minimisations  :  5760
 total energy-change (2. order) :-0.2417247E+02  (-0.1090579E+04)
 number of electron      28.0000000 magnetization       0.0000000
 augmentation part       28.0000000 magnetization       0.0000000

 Free energy of the ion-electron system (eV)
  ---------------------------------------------------
  alpha Z        PSCENC =        10.25815623
  Ewald energy   TEWEN  =      -740.00801181
  -Hartree energ DENC   =       -62.41976915
  -exchange      EXHF   =         0.00000000
  -V(xc)+E(xc)   XCENC  =       -62.41195421
  PAW double counting   =       612.34974655     -491.33201702
  entropy T*S    EENTRO =        -0.00505600
  eigenvalues    EBANDS =        -8.63168379
  atomic energy  EATOM  =       718.02812073
  Solvation  Ediel_sol  =         0.00000000
  ---------------------------------------------------
  free energy    TOTEN  =       -24.17246848 eV

  energy without entropy =      -24.16741247  energy(sigma->0) =      -24.16994048


--------------------------------------------------------------------------------------------------------




--------------------------------------- Iteration      1(   2)  ---------------------------------------


     EDDAV:  cpu time     12.3540: real time     12.3681
       DOS:  cpu time      0.0025: real time      0.0025
    --------------------------------------------
      LOOP:  cpu time     12.3565: real time     12.3706

 eigenvalue-minimisations  :  8640
 total energy-change (2. order) :-0.1811470E+02  (-0.1811446E+02)
 number of electron      28.0000000 magnetization       0.0000000
 augmentation part       28.0000000 magnetization       0.0000000

 Free energy of the ion-electron system (eV)
  ---------------------------------------------------
  alpha Z        PSCENC =        10.25815623
  Ewald energy   TEWEN  =      -740.00801181
  -Hartree energ DENC   =       -62.41976915
  -exchange      EXHF   =         0.00000000
  -V(xc)+E(xc)   XCENC  =       -62.41195421
  PAW double counting   =       612.34974655     -491.33201702
  entropy T*S    EENTRO =        -0.00528927
  eigenvalues    EBANDS =       -26.74614927
  atomic energy  EATOM  =       718.02812073
  Solvation  Ediel_sol  =         0.00000000
  ---------------------------------------------------
  free energy    TOTEN  =       -42.28716722 eV

  energy without entropy =      -42.28187795  energy(sigma->0) =      -42.28452259


--------------------------------------------------------------------------------------------------------




--------------------------------------- Iteration      1(   3)  ---------------------------------------


     EDDAV:  cpu time      5.3257: real time      5.3432
       DOS:  cpu time      0.0026: real time      0.0026
    --------------------------------------------
      LOOP:  cpu time      5.3283: real time      5.3458

 eigenvalue-minimisations  :  5760
 total energy-change (2. order) :-0.1451320E-01  (-0.1451319E-01)
 number of electron      28.0000000 magnetization       0.0000000
 augmentation part       28.0000000 magnetization       0.0000000

 Free energy of the ion-electron system (eV)
  ---------------------------------------------------
  alpha Z        PSCENC =        10.25815623
  Ewald energy   TEWEN  =      -740.00801181
  -Hartree energ DENC   =       -62.41976915
  -exchange      EXHF   =         0.00000000
  -V(xc)+E(xc)   XCENC  =       -62.41195421
  PAW double counting   =       612.34974655     -491.33201702
  entropy T*S    EENTRO =        -0.00528928
  eigenvalues    EBANDS =       -26.76066246
  atomic energy  EATOM  =       718.02812073
  Solvation  Ediel_sol  =         0.00000000
  ---------------------------------------------------
  free energy    TOTEN  =       -42.30168042 eV

  energy without entropy =      -42.29639115  energy(sigma->0) =      -42.29903578


--------------------------------------------------------------------------------------------------------




--------------------------------------- Iteration      1(   4)  ---------------------------------------


     EDDAV:  cpu time     25.4430: real time     25.4645
       DOS:  cpu time      0.0028: real time      0.0028
    --------------------------------------------
      LOOP:  cpu time     25.4459: real time     25.4673

 eigenvalue-minimisations  : 11520
 total energy-change (2. order) :-0.7723795E-05  (-0.7723767E-05)
 number of electron      28.0000000 magnetization       0.0000000
 augmentation part       28.0000000 magnetization       0.0000000

 Free energy of the ion-electron system (eV)
  ---------------------------------------------------
  alpha Z        PSCENC =        10.25815623
  Ewald energy   TEWEN  =      -740.00801181
  -Hartree energ DENC   =       -62.41976915
  -exchange      EXHF   =         0.00000000
  -V(xc)+E(xc)   XCENC  =       -62.41195421
  PAW double counting   =       612.34974655     -491.33201702
  entropy T*S    EENTRO =        -0.00528928
  eigenvalues    EBANDS =       -26.76067018
  atomic energy  EATOM  =       718.02812073
  Solvation  Ediel_sol  =         0.00000000
  ---------------------------------------------------
  free energy    TOTEN  =       -42.30168815 eV

  energy without entropy =      -42.29639887  energy(sigma->0) =      -42.29904351


--------------------------------------------------------------------------------------------------------




--------------------------------------- Iteration      1(   5)  ---------------------------------------


     EDDAV:  cpu time      5.6664: real time      5.6877
       DOS:  cpu time      0.0026: real time      0.0026
    CHARGE:  cpu time      0.0449: real time      0.0450
    MIXING:  cpu time      0.0020: real time      0.0022
    --------------------------------------------
      LOOP:  cpu time      5.7160: real time      5.7376

 eigenvalue-minimisations  :  5760
 total energy-change (2. order) : 0.2836487E-09  (-0.3557728E-11)
 number of electron      27.0000001 magnetization      -0.0000000
 augmentation part       -1.6340477 magnetization       0.0000000

 Broyden mixing:
  rms(total) = 0.85652E+00    rms(broyden)= 0.85288E+00
  rms(prec ) = 0.12611E+01
  weight for this iteration     100.00

 Free energy of the ion-electron system (eV)
  ---------------------------------------------------
  alpha Z        PSCENC =        10.25815623
  Ewald energy   TEWEN  =      -740.00801181
  -Hartree energ DENC   =       -62.41976915
  -exchange      EXHF   =         0.00000000
  -V(xc)+E(xc)   XCENC  =       -62.41195421
  PAW double counting   =       612.34974655     -491.33201702
  entropy T*S    EENTRO =        -0.00528928
  eigenvalues    EBANDS =       -26.76067018
  atomic energy  EATOM  =       718.02812073
  Solvation  Ediel_sol  =         0.00000000
  ---------------------------------------------------
  free energy    TOTEN  =       -42.30168815 eV

  energy without entropy =      -42.29639887  energy(sigma->0) =      -42.29904351


--------------------------------------------------------------------------------------------------------




--------------------------------------- Iteration      1(   6)  ---------------------------------------


    POTLOK:  cpu time      0.0257: real time      0.0436
    SETDIJ:  cpu time      0.2009: real time      0.2009
    EDDIAG:  cpu time      0.8108: real time      0.8114
  RMM-DIIS:  cpu time      0.1926: real time      0.1929
    ORTHCH:  cpu time      0.1129: real time      0.1129
       DOS:  cpu time      0.0026: real time      0.0026
    CHARGE:  cpu time      0.0379: real time      0.0379
    MIXING:  cpu time      0.0006: real time      0.0006
    --------------------------------------------
      LOOP:  cpu time      1.3841: real time      1.4028

 eigenvalue-minimisations  :  5798
 total energy-change (2. order) : 0.5212533E+00  (-0.1331055E-02)
 number of electron      27.0000001 magnetization       0.0000000
 augmentation part       -1.6356053 magnetization      -0.0000000

 Broyden mixing:
  rms(total) = 0.49108E+00    rms(broyden)= 0.49108E+00
  rms(prec ) = 0.68008E+00
  weight for this iteration     100.00

 eigenvalues of (default mixing * dielectric matrix)
  average eigenvalue GAMMA=   2.2954
  2.2954

 Free energy of the ion-electron system (eV)
  ---------------------------------------------------
  alpha Z        PSCENC =        10.25815623
  Ewald energy   TEWEN  =      -740.00801181
  -Hartree energ DENC   =       -67.29017586
  -exchange      EXHF   =         0.00000000
  -V(xc)+E(xc)   XCENC  =       -64.43928515
  PAW double counting   =      1212.60838850    -1091.78920518
  entropy T*S    EENTRO =        -0.00528928
  eigenvalues    EBANDS =       -19.14313300
  atomic energy  EATOM  =       718.02812073
  Solvation  Ediel_sol  =         0.00000000
  ---------------------------------------------------
  free energy    TOTEN  =       -41.78043481 eV

  energy without entropy =      -41.77514554  energy(sigma->0) =      -41.77779017


--------------------------------------------------------------------------------------------------------




--------------------------------------- Iteration      1(   7)  ---------------------------------------


    POTLOK:  cpu time      0.0230: real time      0.0398
    SETDIJ:  cpu time      0.2001: real time      0.2001
    EDDIAG:  cpu time      0.7787: real time      0.7787
  RMM-DIIS:  cpu time      0.3054: real time      0.3054
    ORTHCH:  cpu time      0.1118: real time      0.1118
       DOS:  cpu time      0.0025: real time      0.0025
    CHARGE:  cpu time      0.0368: real time      0.0368
    MIXING:  cpu time      0.0004: real time      0.0004
    --------------------------------------------
      LOOP:  cpu time      1.4586: real time      1.4754

 eigenvalue-minimisations  :  6803
 total energy-change (2. order) : 0.1997601E+00  (-0.2113303E-02)
 number of electron      27.0000001 magnetization       0.0000007
 augmentation part       -1.6278718 magnetization       0.0000002

 Broyden mixing:
  rms(total) = 0.84002E-01    rms(broyden)= 0.84001E-01
  rms(prec ) = 0.13271E+00
  weight for this iteration     100.00

 eigenvalues of (default mixing * dielectric matrix)
  average eigenvalue GAMMA=   1.8607
  1.4087  2.3126

 Free energy of the ion-electron system (eV)
  ---------------------------------------------------
  alpha Z        PSCENC =        10.25815623
  Ewald energy   TEWEN  =      -740.00801181
  -Hartree energ DENC   =       -73.03608331
  -exchange      EXHF   =         0.00000000
  -V(xc)+E(xc)   XCENC  =       -63.66566905
  PAW double counting   =      2249.17650327    -2128.58222384
  entropy T*S    EENTRO =        -0.00528928
  eigenvalues    EBANDS =       -13.74617767
  atomic energy  EATOM  =       718.02812073
  Solvation  Ediel_sol  =         0.00000000
  ---------------------------------------------------
  free energy    TOTEN  =       -41.58067472 eV

  energy without entropy =      -41.57538545  energy(sigma->0) =      -41.57803009


--------------------------------------------------------------------------------------------------------




--------------------------------------- Iteration      1(   8)  ---------------------------------------


    POTLOK:  cpu time      0.0217: real time      0.0402
    SETDIJ:  cpu time      0.2002: real time      0.2003
    EDDIAG:  cpu time      0.7847: real time      0.7847
  RMM-DIIS:  cpu time      0.2742: real time      0.2742
    ORTHCH:  cpu time      0.1116: real time      0.1116
       DOS:  cpu time      0.0025: real time      0.0025
    CHARGE:  cpu time      0.0373: real time      0.0373
    MIXING:  cpu time      0.0004: real time      0.0004
    --------------------------------------------
      LOOP:  cpu time      1.4327: real time      1.4513

 eigenvalue-minimisations  :  6155
 total energy-change (2. order) : 0.8250267E-02  (-0.2407386E-03)
 number of electron      27.0000001 magnetization       0.0000006
 augmentation part       -1.6298588 magnetization      -0.0000000

 Broyden mixing:
  rms(total) = 0.19917E-01    rms(broyden)= 0.19917E-01
  rms(prec ) = 0.30928E-01
  weight for this iteration     100.00

 eigenvalues of (default mixing * dielectric matrix)
  average eigenvalue GAMMA=   1.5633
  2.2627  1.2135  1.2135

 Free energy of the ion-electron system (eV)
  ---------------------------------------------------
  alpha Z        PSCENC =        10.25815623
  Ewald energy   TEWEN  =      -740.00801181
  -Hartree energ DENC   =       -72.89751617
  -exchange      EXHF   =         0.00000000
  -V(xc)+E(xc)   XCENC  =       -63.58060196
  PAW double counting   =      2419.96273837    -2299.36933708
  entropy T*S    EENTRO =        -0.00528928
  eigenvalues    EBANDS =       -13.96068349
  atomic energy  EATOM  =       718.02812073
  Solvation  Ediel_sol  =         0.00000000
  ---------------------------------------------------
  free energy    TOTEN  =       -41.57242446 eV

  energy without entropy =      -41.56713518  energy(sigma->0) =      -41.56977982


--------------------------------------------------------------------------------------------------------




--------------------------------------- Iteration      1(   9)  ---------------------------------------


    POTLOK:  cpu time      0.0224: real time      0.0420
    SETDIJ:  cpu time      0.2010: real time      0.2010
    EDDIAG:  cpu time      0.7705: real time      0.7706
  RMM-DIIS:  cpu time      0.3104: real time      0.3103
    ORTHCH:  cpu time      0.1120: real time      0.1120
       DOS:  cpu time      0.0025: real time      0.0025
    CHARGE:  cpu time      0.0367: real time      0.0367
    MIXING:  cpu time      0.0004: real time      0.0004
    --------------------------------------------
      LOOP:  cpu time      1.4558: real time      1.4756

 eigenvalue-minimisations  :  6717
 total energy-change (2. order) : 0.1198542E-03  (-0.2712687E-04)
 number of electron      27.0000001 magnetization       0.0000002
 augmentation part       -1.6303444 magnetization      -0.0000003

 Broyden mixing:
  rms(total) = 0.13164E-01    rms(broyden)= 0.13164E-01
  rms(prec ) = 0.16743E-01
  weight for this iteration     100.00

 eigenvalues of (default mixing * dielectric matrix)
  average eigenvalue GAMMA=   1.9879
  1.2473  1.2473  2.7285  2.7285

 Free energy of the ion-electron system (eV)
  ---------------------------------------------------
  alpha Z        PSCENC =        10.25815623
  Ewald energy   TEWEN  =      -740.00801181
  -Hartree energ DENC   =       -73.08469370
  -exchange      EXHF   =         0.00000000
  -V(xc)+E(xc)   XCENC  =       -63.54648286
  PAW double counting   =      2449.88264450    -2329.29320822
  entropy T*S    EENTRO =        -0.00528928
  eigenvalues    EBANDS =       -13.80354020
  atomic energy  EATOM  =       718.02812073
  Solvation  Ediel_sol  =         0.00000000
  ---------------------------------------------------
  free energy    TOTEN  =       -41.57230460 eV

  energy without entropy =      -41.56701533  energy(sigma->0) =      -41.56965996


--------------------------------------------------------------------------------------------------------




--------------------------------------- Iteration      1(  10)  ---------------------------------------


    POTLOK:  cpu time      0.0216: real time      0.0402
    SETDIJ:  cpu time      0.2001: real time      0.2001
    EDDIAG:  cpu time      0.7665: real time      0.7665
  RMM-DIIS:  cpu time      0.3003: real time      0.3004
    ORTHCH:  cpu time      0.1119: real time      0.1119
       DOS:  cpu time      0.0025: real time      0.0025
    CHARGE:  cpu time      0.0366: real time      0.0366
    MIXING:  cpu time      0.0004: real time      0.0004
    --------------------------------------------
      LOOP:  cpu time      1.4399: real time      1.4586

 eigenvalue-minimisations  :  6436
 total energy-change (2. order) :-0.5330856E-04  (-0.7625721E-05)
 number of electron      27.0000001 magnetization       0.0000002
 augmentation part       -1.6311774 magnetization       0.0000000

 Broyden mixing:
  rms(total) = 0.35208E-02    rms(broyden)= 0.35208E-02
  rms(prec ) = 0.69527E-02
  weight for this iteration     100.00

 eigenvalues of (default mixing * dielectric matrix)
  average eigenvalue GAMMA=   1.7524
  2.6238  0.9900  2.1255  1.5113  1.5113

 Free energy of the ion-electron system (eV)
  ---------------------------------------------------
  alpha Z        PSCENC =        10.25815623
  Ewald energy   TEWEN  =      -740.00801181
  -Hartree energ DENC   =       -72.97060209
  -exchange      EXHF   =         0.00000000
  -V(xc)+E(xc)   XCENC  =       -63.54416192
  PAW double counting   =      2404.11344672    -2283.51647472
  entropy T*S    EENTRO =        -0.00528928
  eigenvalues    EBANDS =       -13.92754178
  atomic energy  EATOM  =       718.02812073
  Solvation  Ediel_sol  =         0.00000000
  ---------------------------------------------------
  free energy    TOTEN  =       -41.57235791 eV

  energy without entropy =      -41.56706863  energy(sigma->0) =      -41.56971327


--------------------------------------------------------------------------------------------------------




--------------------------------------- Iteration      1(  11)  ---------------------------------------


    POTLOK:  cpu time      0.0210: real time      0.0392
    SETDIJ:  cpu time      0.1998: real time      0.1998
    EDDIAG:  cpu time      0.7588: real time      0.7588
  RMM-DIIS:  cpu time      0.3167: real time      0.3167
    ORTHCH:  cpu time      0.1111: real time      0.1111
       DOS:  cpu time      0.0026: real time      0.0026
    CHARGE:  cpu time      0.0373: real time      0.0373
    MIXING:  cpu time      0.0004: real time      0.0004
    --------------------------------------------
      LOOP:  cpu time      1.4477: real time      1.4658

 eigenvalue-minimisations  :  6863
 total energy-change (2. order) : 0.4073743E-04  (-0.9398620E-06)
 number of electron      27.0000001 magnetization       0.0000001
 augmentation part       -1.6310442 magnetization      -0.0000001

 Broyden mixing:
  rms(total) = 0.23021E-02    rms(broyden)= 0.23021E-02
  rms(prec ) = 0.24018E-02
  weight for this iteration     100.00

 eigenvalues of (default mixing * dielectric matrix)
  average eigenvalue GAMMA=   1.7657
  2.8609  2.4551  1.9279  1.4172  0.9666  0.9666

 Free energy of the ion-electron system (eV)
  ---------------------------------------------------
  alpha Z        PSCENC =        10.25815623
  Ewald energy   TEWEN  =      -740.00801181
  -Hartree energ DENC   =       -73.05284459
  -exchange      EXHF   =         0.00000000
  -V(xc)+E(xc)   XCENC  =       -63.53583188
  PAW double counting   =      2416.34101859    -2295.74767833
  entropy T*S    EENTRO =        -0.00528928
  eigenvalues    EBANDS =       -13.84995685
  atomic energy  EATOM  =       718.02812073
  Solvation  Ediel_sol  =         0.00000000
  ---------------------------------------------------
  free energy    TOTEN  =       -41.57231717 eV

  energy without entropy =      -41.56702790  energy(sigma->0) =      -41.56967254


--------------------------------------------------------------------------------------------------------




--------------------------------------- Iteration      1(  12)  ---------------------------------------


    POTLOK:  cpu time      0.0204: real time      0.0400
    SETDIJ:  cpu time      0.2001: real time      0.2002
    EDDIAG:  cpu time      0.7538: real time      0.7538
  RMM-DIIS:  cpu time      0.3133: real time      0.3133
    ORTHCH:  cpu time      0.1111: real time      0.1111
       DOS:  cpu time      0.0024: real time      0.0024
    --------------------------------------------
      LOOP:  cpu time      1.4011: real time      1.4207

 eigenvalue-minimisations  :  5423
 total energy-change (2. order) :-0.4766451E-06  (-0.1141926E-06)
 number of electron      27.0000001 magnetization       0.0000001
 augmentation part       -1.6310442 magnetization      -0.0000001

 Free energy of the ion-electron system (eV)
  ---------------------------------------------------
  alpha Z        PSCENC =        10.25815623
  Ewald energy   TEWEN  =      -740.00801181
  -Hartree energ DENC   =       -73.05870859
  -exchange      EXHF   =         0.00000000
  -V(xc)+E(xc)   XCENC  =       -63.53557824
  PAW double counting   =      2409.65567268    -2289.06242892
  entropy T*S    EENTRO =        -0.00528928
  eigenvalues    EBANDS =       -13.84425045
  atomic energy  EATOM  =       718.02812073
  Solvation  Ediel_sol  =         0.00000000
  ---------------------------------------------------
  free energy    TOTEN  =       -41.57231765 eV

  energy without entropy =      -41.56702837  energy(sigma->0) =      -41.56967301


--------------------------------------------------------------------------------------------------------




 average (electrostatic) potential at core
  the test charge radii are     0.9892
  (the norm of the test charge is              1.0000)
       1 -84.8604       2 -84.4367       3 -84.8604       4 -84.4367       5 -84.8604
       6 -84.4367       7 -84.8604
 
 
 
 E-fermi :   4.1815     XC(G=0):  -8.9099     alpha+bet :-10.4276

 Fermi energy:         4.1815248592

 spin component 1

 k-point     1 :       0.0000    0.0000    0.0000
  band No.  band energies     occupation 
      1      -6.9833      1.00000
      2      -3.2963      1.00000
      3      -3.2963      1.00000
      4      -2.9514      1.00000
      5      -2.9514      1.00000
      6      -2.9514      1.00000
      7       1.4712      1.00000
      8       1.7108      1.00000
      9       1.7108      1.00000
     10       1.7108      1.00000
     11       2.7898      1.00000
     12       2.7898      1.00000
     13       2.7898      1.00000
     14       5.7066      0.00000
     15       5.7066      0.00000
     16       5.7066      0.00000
     17       5.8707      0.00000
     18       5.8707      0.00000
     19       6.0944      0.00000
     20       6.1369      0.00000
     21       6.1369      0.00000
     22       6.1369      0.00000
     23       8.9036      0.00000
     24       8.9036      0.00000
     25       8.9036      0.00000
     26      10.5353      0.00000
     27      12.9342      0.00000
     28      12.9342      0.00000
     29      13.4257      0.00000
     30      14.7006      0.00000
     31      14.7006      0.00000
     32      14.7006      0.00000
     33      15.4770      0.00000
     34      15.4770      0.00000
     35      15.4770      0.00000
     36      15.5186      0.00000
     37      15.5186      0.00000
     38      15.5186      0.00000
     39      16.5124      0.00000
     40      16.5124      0.00000
     41      16.5124      0.00000
     42      17.0952      0.00000
     43      17.4622      0.00000
     44      17.4622      0.00000
     45      17.5316      0.00000
     46      17.5316      0.00000
     47      17.5316      0.00000
     48      18.4848      0.00000
     49      18.4848      0.00000
     50      18.4848      0.00000
     51      19.2255      0.00000
     52      19.4021      0.00000
     53      19.4021      0.00000
     54      20.3836      0.00000
     55      21.1168      0.00000
     56      21.1168      0.00000
     57      21.1168      0.00000
     58      23.5475      0.00000
     59      23.7911      0.00000
     60      23.7911      0.00000
     61      23.7911      0.00000
     62      24.6360      0.00000
     63      24.6360      0.00000
     64      24.6360      0.00000
     65      25.1294      0.00000
     66      25.1294      0.00000
     67      25.1294      0.00000
     68      25.1685      0.00000
     69      25.1685      0.00000
     70      25.1685      0.00000
     71      25.8379      0.00000
     72      25.8379      0.00000
     73      26.2301      0.00000
     74      26.2301      0.00000
     75      26.5758      0.00000
     76      26.5758      0.00000
     77      26.5758      0.00000
     78      27.4207      0.00000
     79      27.4207      0.00000
     80      27.4207      0.00000
     81      27.6819      0.00000
     82      28.2503      0.00000
     83      28.2503      0.00000
     84      28.2503      0.00000
     85      29.3335      0.00000
     86      29.3335      0.00000
     87      30.9763      0.00000
     88      31.5843      0.00000
     89      31.5843      0.00000
     90      31.5843      0.00000
     91      32.8916      0.00000
     92      32.8916      0.00000
     93      33.4532      0.00000
     94      33.4532      0.00000
     95      33.4532      0.00000
     96      33.7509      0.00000
     97      33.7509      0.00000
     98      33.7509      0.00000
     99      35.8471      0.00000
    100      35.8471      0.00000
    101      35.8471      0.00000
    102      37.2792      0.00000
    103      37.2792      0.00000
    104      37.2792      0.00000
    105      39.1566      0.00000
    106      39.1566      0.00000
    107      39.1566      0.00000
    108      39.1591      0.00000
    109      39.1591      0.00000
    110      39.1591      0.00000
    111      39.1784      0.00000
    112      39.1784      0.00000
    113      39.5125      0.00000
    114      40.5014      0.00000
    115      40.5100      0.00000
    116      40.5100      0.00000
    117      40.5100      0.00000
    118      40.9328      0.00000
    119      40.9328      0.00000
    120      40.9328      0.00000
    121      42.2231      0.00000
    122      42.2231      0.00000
    123      42.3392      0.00000
    124      42.3392      0.00000
    125      42.3392      0.00000
    126      42.6883      0.00000
    127      42.9517      0.00000
    128      43.2450      0.00000
    129      43.2450      0.00000
    130      43.2450      0.00000
    131      43.2784      0.00000
    132      43.2784      0.00000
    133      44.3578      0.00000
    134      44.3578      0.00000
    135      44.3578      0.00000
    136      45.0247      0.00000
    137      45.0256      0.00000
    138      45.2928      0.00000
    139      45.2928      0.00000
    140      45.2928      0.00000
    141      45.6033      0.00000
    142      45.6033      0.00000
    143      45.6033      0.00000
    144      46.2398      0.00000

 k-point     2 :       0.2500    0.0000    0.0000
  band No.  band energies     occupation 
      1      -6.7446      1.00000
      2      -4.6320      1.00000
      3      -3.2324      1.00000
      4      -2.8869      1.00000
      5      -2.8869      1.00000
      6      -1.5341      1.00000
      7       1.2591      1.00000
      8       1.4526      1.00000
      9       1.4526      1.00000
     10       1.6714      1.00000
     11       2.1321      1.00000
     12       2.6295      1.00000
     13       2.6295      1.00000
     14       5.0068      0.00000
     15       5.4559      0.00000
     16       5.4559      0.00000
     17       5.8121      0.00000
     18       6.4394      0.00000
     19       7.0165      0.00000
     20       7.0165      0.00000
     21       7.0192      0.00000
     22       7.3809      0.00000
     23       8.5208      0.00000
     24       9.8623      0.00000
     25       9.8623      0.00000
     26      10.9016      0.00000
     27      12.1312      0.00000
     28      12.4219      0.00000
     29      12.4219      0.00000
     30      12.5825      0.00000
     31      13.2369      0.00000
     32      13.6064      0.00000
     33      14.5226      0.00000
     34      14.5553      0.00000
     35      14.5553      0.00000
     36      14.9667      0.00000
     37      15.8853      0.00000
     38      15.8853      0.00000
     39      16.0740      0.00000
     40      16.8738      0.00000
     41      16.9236      0.00000
     42      16.9236      0.00000
     43      17.1134      0.00000
     44      17.5177      0.00000
     45      17.9250      0.00000
     46      18.4438      0.00000
     47      18.4438      0.00000
     48      19.1484      0.00000
     49      19.1484      0.00000
     50      19.5034      0.00000
     51      19.8798      0.00000
     52      20.0823      0.00000
     53      20.8815      0.00000
     54      21.2236      0.00000
     55      21.5272      0.00000
     56      21.5272      0.00000
     57      21.6694      0.00000
     58      22.2999      0.00000
     59      22.4546      0.00000
     60      22.4546      0.00000
     61      23.0603      0.00000
     62      23.4669      0.00000
     63      23.4669      0.00000
     64      23.8243      0.00000
     65      24.2306      0.00000
     66      24.5183      0.00000
     67      24.5971      0.00000
     68      24.5971      0.00000
     69      25.1774      0.00000
     70      25.7039      0.00000
     71      25.7039      0.00000
     72      26.3657      0.00000
     73      26.9528      0.00000
     74      27.2510      0.00000
     75      27.2510      0.00000
     76      27.8020      0.00000
     77      28.0481      0.00000
     78      28.1975      0.00000
     79      28.5969      0.00000
     80      28.6852      0.00000
     81      28.7639      0.00000
     82      28.7639      0.00000
     83      29.4069      0.00000
     84      29.6827      0.00000
     85      29.6827      0.00000
     86      30.0790      0.00000
     87      30.4746      0.00000
     88      30.8680      0.00000
     89      31.3830      0.00000
     90      31.4371      0.00000
     91      31.4371      0.00000
     92      32.7690      0.00000
     93      32.7690      0.00000
     94      32.8704      0.00000
     95      34.1061      0.00000
     96      34.8485      0.00000
     97      34.8485      0.00000
     98      34.8741      0.00000
     99      35.2559      0.00000
    100      36.0694      0.00000
    101      36.0694      0.00000
    102      36.6480      0.00000
    103      36.6480      0.00000
    104      36.9059      0.00000
    105      37.0058      0.00000
    106      37.2581      0.00000
    107      37.4964      0.00000
    108      37.5601      0.00000
    109      37.5601      0.00000
    110      38.3807      0.00000
    111      38.3807      0.00000
    112      38.5263      0.00000
    113      38.7068      0.00000
    114      40.0213      0.00000
    115      40.0240      0.00000
    116      40.0240      0.00000
    117      40.6109      0.00000
    118      40.6871      0.00000
    119      40.6871      0.00000
    120      40.7970      0.00000
    121      41.0090      0.00000
    122      41.7692      0.00000
    123      42.0720      0.00000
    124      42.2189      0.00000
    125      42.4662      0.00000
    126      42.4662      0.00000
    127      42.8485      0.00000
    128      43.4430      0.00000
    129      43.4430      0.00000
    130      43.6544      0.00000
    131      44.3924      0.00000
    132      44.4331      0.00000
    133      44.6197      0.00000
    134      44.7566      0.00000
    135      44.7566      0.00000
    136      44.9422      0.00000
    137      45.1041      0.00000
    138      45.1041      0.00000
    139      45.2176      0.00000
    140      45.3889      0.00000
    141      45.7503      0.00000
    142      45.7503      0.00000
    143      46.2049      0.00000
    144      46.2096      0.00000

 k-point     3 :       0.5000    0.0000    0.0000
  band No.  band energies     occupation 
      1      -6.2805      1.00000
      2      -5.5384      1.00000
      3      -3.1635      1.00000
      4      -2.8172      1.00000
      5      -2.8172      1.00000
      6      -0.4768      1.00000
      7       0.7592      1.00000
      8       0.8912      1.00000
      9       1.1540      1.00000
     10       1.1540      1.00000
     11       2.6547      1.00000
     12       2.6547      1.00000
     13       3.0061      1.00000
     14       3.7035      1.00000
     15       5.0141      0.00000
     16       5.0141      0.00000
     17       6.1858      0.00000
     18       6.5695      0.00000
     19       8.1662      0.00000
     20       9.1540      0.00000
     21       9.1540      0.00000
     22       9.1740      0.00000
     23       9.3901      0.00000
     24       9.6962      0.00000
     25       9.7765      0.00000
     26       9.7765      0.00000
     27      10.5450      0.00000
     28      10.6021      0.00000
     29      11.2174      0.00000
     30      11.2174      0.00000
     31      13.1608      0.00000
     32      13.1608      0.00000
     33      13.5393      0.00000
     34      14.1869      0.00000
     35      14.7935      0.00000
     36      14.8813      0.00000
     37      15.3045      0.00000
     38      15.8612      0.00000
     39      15.8612      0.00000
     40      16.4396      0.00000
     41      16.9025      0.00000
     42      17.5298      0.00000
     43      17.6541      0.00000
     44      17.6541      0.00000
     45      18.3746      0.00000
     46      18.3803      0.00000
     47      18.7496      0.00000
     48      18.7496      0.00000
     49      19.5746      0.00000
     50      19.7374      0.00000
     51      19.7374      0.00000
     52      20.6380      0.00000
     53      21.5613      0.00000
     54      21.5613      0.00000
     55      21.5855      0.00000
     56      21.7846      0.00000
     57      22.4197      0.00000
     58      22.4197      0.00000
     59      22.5821      0.00000
     60      22.5821      0.00000
     61      23.0254      0.00000
     62      23.1097      0.00000
     63      23.6256      0.00000
     64      23.6256      0.00000
     65      23.8980      0.00000
     66      24.0273      0.00000
     67      24.2078      0.00000
     68      24.7126      0.00000
     69      24.8353      0.00000
     70      25.6673      0.00000
     71      26.3928      0.00000
     72      26.3928      0.00000
     73      26.5853      0.00000
     74      26.7882      0.00000
     75      27.0466      0.00000
     76      27.0466      0.00000
     77      27.3280      0.00000
     78      27.4340      0.00000
     79      29.5175      0.00000
     80      29.5768      0.00000
     81      29.9698      0.00000
     82      29.9698      0.00000
     83      30.2291      0.00000
     84      31.4220      0.00000
     85      31.7571      0.00000
     86      31.7865      0.00000
     87      31.7865      0.00000
     88      32.0559      0.00000
     89      32.2731      0.00000
     90      32.5735      0.00000
     91      32.5735      0.00000
     92      32.6494      0.00000
     93      32.6498      0.00000
     94      32.6498      0.00000
     95      33.8534      0.00000
     96      34.0896      0.00000
     97      34.2021      0.00000
     98      34.2021      0.00000
     99      34.3986      0.00000
    100      34.6586      0.00000
    101      34.7665      0.00000
    102      34.7665      0.00000
    103      34.9901      0.00000
    104      35.5081      0.00000
    105      35.5081      0.00000
    106      35.9045      0.00000
    107      36.3063      0.00000
    108      36.3063      0.00000
    109      36.6787      0.00000
    110      38.0630      0.00000
    111      38.3899      0.00000
    112      38.3899      0.00000
    113      38.8711      0.00000
    114      39.8420      0.00000
    115      40.0345      0.00000
    116      40.3188      0.00000
    117      40.5692      0.00000
    118      40.5692      0.00000
    119      40.5896      0.00000
    120      41.5899      0.00000
    121      41.5899      0.00000
    122      41.6021      0.00000
    123      41.7596      0.00000
    124      41.9940      0.00000
    125      41.9940      0.00000
    126      42.2637      0.00000
    127      42.7078      0.00000
    128      42.7078      0.00000
    129      42.8541      0.00000
    130      42.8601      0.00000
    131      43.3792      0.00000
    132      43.3792      0.00000
    133      44.4552      0.00000
    134      44.8290      0.00000
    135      44.8743      0.00000
    136      44.8743      0.00000
    137      45.2294      0.00000
    138      45.2861      0.00000
    139      45.2861      0.00000
    140      45.5682      0.00000
    141      45.5998      0.00000
    142      45.8903      0.00000
    143      46.7044      0.00000
    144      46.8062      0.00000

 k-point     4 :       0.2500    0.2500    0.0000
  band No.  band energies     occupation 
      1      -6.5089      1.00000
      2      -4.7019      1.00000
      3      -4.2270      1.00000
      4      -2.9513      1.00000
      5      -2.0357      1.00000
      6      -1.1680      1.00000
      7       0.5072      1.00000
      8       1.3262      1.00000
      9       1.5045      1.00000
     10       1.8499      1.00000
     11       1.8504      1.00000
     12       2.7898      1.00000
     13       2.8594      1.00000
     14       4.1815      0.50000
     15       4.9341      0.00000
     16       5.8357      0.00000
     17       6.2694      0.00000
     18       6.8492      0.00000
     19       7.2161      0.00000
     20       7.5538      0.00000
     21       7.5592      0.00000
     22       9.0472      0.00000
     23       9.4720      0.00000
     24       9.5357      0.00000
     25       9.7311      0.00000
     26      10.2842      0.00000
     27      11.6053      0.00000
     28      11.6174      0.00000
     29      12.2199      0.00000
     30      12.3713      0.00000
     31      12.6559      0.00000
     32      13.2414      0.00000
     33      13.2714      0.00000
     34      14.1516      0.00000
     35      14.3840      0.00000
     36      14.9868      0.00000
     37      15.0989      0.00000
     38      15.4854      0.00000
     39      15.9802      0.00000
     40      16.3491      0.00000
     41      16.5143      0.00000
     42      16.7593      0.00000
     43      17.7118      0.00000
     44      18.1945      0.00000
     45      18.6148      0.00000
     46      18.8465      0.00000
     47      18.8957      0.00000
     48      19.2918      0.00000
     49      19.5570      0.00000
     50      19.6301      0.00000
     51      19.9461      0.00000
     52      20.0459      0.00000
     53      20.3680      0.00000
     54      21.0252      0.00000
     55      21.3339      0.00000
     56      21.5089      0.00000
     57      21.6634      0.00000
     58      22.4465      0.00000
     59      22.5517      0.00000
     60      22.8526      0.00000
     61      22.9213      0.00000
     62      23.1790      0.00000
     63      23.4312      0.00000
     64      23.9380      0.00000
     65      24.4916      0.00000
     66      24.8769      0.00000
     67      25.1579      0.00000
     68      25.1868      0.00000
     69      25.9572      0.00000
     70      25.9772      0.00000
     71      26.4023      0.00000
     72      26.5147      0.00000
     73      26.6448      0.00000
     74      27.0719      0.00000
     75      27.2865      0.00000
     76      27.5266      0.00000
     77      27.5816      0.00000
     78      27.9250      0.00000
     79      28.4567      0.00000
     80      28.6742      0.00000
     81      28.8602      0.00000
     82      29.2350      0.00000
     83      29.4083      0.00000
     84      30.0368      0.00000
     85      30.4087      0.00000
     86      30.7778      0.00000
     87      31.0907      0.00000
     88      31.1687      0.00000
     89      32.1948      0.00000
     90      32.3426      0.00000
     91      32.6274      0.00000
     92      33.0267      0.00000
     93      33.1529      0.00000
     94      33.2252      0.00000
     95      33.5868      0.00000
     96      33.7321      0.00000
     97      34.5093      0.00000
     98      34.6068      0.00000
     99      34.7712      0.00000
    100      35.3331      0.00000
    101      35.5774      0.00000
    102      35.5921      0.00000
    103      36.1346      0.00000
    104      36.6375      0.00000
    105      36.9291      0.00000
    106      37.1730      0.00000
    107      37.4291      0.00000
    108      37.6308      0.00000
    109      37.8545      0.00000
    110      38.0125      0.00000
    111      38.2209      0.00000
    112      38.2830      0.00000
    113      38.6772      0.00000
    114      38.7653      0.00000
    115      39.2035      0.00000
    116      39.3132      0.00000
    117      39.6419      0.00000
    118      39.6673      0.00000
    119      40.1523      0.00000
    120      40.1831      0.00000
    121      40.7338      0.00000
    122      41.1026      0.00000
    123      41.3832      0.00000
    124      42.2478      0.00000
    125      42.3934      0.00000
    126      42.3948      0.00000
    127      42.6417      0.00000
    128      43.0912      0.00000
    129      43.2355      0.00000
    130      43.3949      0.00000
    131      43.5095      0.00000
    132      43.5908      0.00000
    133      44.2712      0.00000
    134      44.2905      0.00000
    135      44.6706      0.00000
    136      44.9553      0.00000
    137      44.9800      0.00000
    138      45.1534      0.00000
    139      45.1989      0.00000
    140      46.0449      0.00000
    141      46.0600      0.00000
    142      46.2320      0.00000
    143      46.4884      0.00000
    144      46.8415      0.00000

 k-point     5 :       0.5000    0.2500    0.0000
  band No.  band energies     occupation 
      1      -6.0378      1.00000
      2      -5.4104      1.00000
      3      -4.2531      1.00000
      4      -3.0623      1.00000
      5      -1.7767      1.00000
      6      -0.6324      1.00000
      7       0.2506      1.00000
      8       0.6180      1.00000
      9       1.4941      1.00000
     10       1.7334      1.00000
     11       2.4419      1.00000
     12       2.4839      1.00000
     13       3.0145      1.00000
     14       3.7344      1.00000
     15       5.0247      0.00000
     16       5.1021      0.00000
     17       7.3437      0.00000
     18       7.7418      0.00000
     19       7.7817      0.00000
     20       7.8271      0.00000
     21       9.0518      0.00000
     22       9.3840      0.00000
     23       9.4615      0.00000
     24       9.8839      0.00000
     25       9.9693      0.00000
     26      10.1284      0.00000
     27      10.3863      0.00000
     28      10.7891      0.00000
     29      11.6792      0.00000
     30      11.9405      0.00000
     31      12.4631      0.00000
     32      12.5284      0.00000
     33      13.1017      0.00000
     34      13.1826      0.00000
     35      13.5198      0.00000
     36      14.2651      0.00000
     37      15.4400      0.00000
     38      15.5851      0.00000
     39      15.8762      0.00000
     40      16.4136      0.00000
     41      16.8149      0.00000
     42      17.0063      0.00000
     43      17.3782      0.00000
     44      17.8589      0.00000
     45      18.8258      0.00000
     46      18.9162      0.00000
     47      19.0927      0.00000
     48      19.3697      0.00000
     49      19.6173      0.00000
     50      19.8598      0.00000
     51      20.0702      0.00000
     52      20.3368      0.00000
     53      20.3978      0.00000
     54      20.5940      0.00000
     55      21.0849      0.00000
     56      21.4410      0.00000
     57      22.1563      0.00000
     58      22.3163      0.00000
     59      22.4946      0.00000
     60      22.9870      0.00000
     61      23.0167      0.00000
     62      23.7306      0.00000
     63      23.8665      0.00000
     64      23.9012      0.00000
     65      24.7721      0.00000
     66      24.9160      0.00000
     67      25.1718      0.00000
     68      25.6722      0.00000
     69      25.6964      0.00000
     70      26.0309      0.00000
     71      26.1724      0.00000
     72      26.7269      0.00000
     73      27.2880      0.00000
     74      27.3086      0.00000
     75      27.3676      0.00000
     76      27.5768      0.00000
     77      27.9649      0.00000
     78      28.3955      0.00000
     79      28.8042      0.00000
     80      29.1582      0.00000
     81      29.1630      0.00000
     82      29.7201      0.00000
     83      29.7461      0.00000
     84      30.3988      0.00000
     85      30.8830      0.00000
     86      31.2368      0.00000
     87      31.6679      0.00000
     88      31.7146      0.00000
     89      32.3090      0.00000
     90      32.3774      0.00000
     91      32.4912      0.00000
     92      32.9763      0.00000
     93      32.9776      0.00000
     94      33.1981      0.00000
     95      33.5500      0.00000
     96      33.9367      0.00000
     97      34.0023      0.00000
     98      34.3887      0.00000
     99      34.6988      0.00000
    100      34.8928      0.00000
    101      35.0844      0.00000
    102      35.1427      0.00000
    103      35.6973      0.00000
    104      36.2083      0.00000
    105      36.2871      0.00000
    106      36.3981      0.00000
    107      36.5065      0.00000
    108      36.9429      0.00000
    109      37.3099      0.00000
    110      37.4652      0.00000
    111      37.7074      0.00000
    112      38.2551      0.00000
    113      38.3804      0.00000
    114      38.6051      0.00000
    115      38.9827      0.00000
    116      39.2194      0.00000
    117      39.3675      0.00000
    118      39.5430      0.00000
    119      40.3633      0.00000
    120      40.4073      0.00000
    121      40.5199      0.00000
    122      40.8400      0.00000
    123      41.0721      0.00000
    124      41.7285      0.00000
    125      41.8180      0.00000
    126      42.0587      0.00000
    127      42.1408      0.00000
    128      42.8161      0.00000
    129      42.8957      0.00000
    130      43.2296      0.00000
    131      43.3161      0.00000
    132      43.6116      0.00000
    133      43.9887      0.00000
    134      44.0739      0.00000
    135      44.3403      0.00000
    136      44.8820      0.00000
    137      45.1321      0.00000
    138      45.2552      0.00000
    139      45.5320      0.00000
    140      45.7214      0.00000
    141      45.7594      0.00000
    142      46.1395      0.00000
    143      46.3601      0.00000
    144      46.5645      0.00000

 k-point     6 :       0.5000    0.5000    0.0000
  band No.  band energies     occupation 
      1      -5.4057      1.00000
      2      -5.2516      1.00000
      3      -5.2516      1.00000
      4      -3.3565      1.00000
      5      -0.6999      1.00000
      6      -0.6240      1.00000
      7      -0.6240      1.00000
      8       0.5857      1.00000
      9       1.3244      1.00000
     10       1.3244      1.00000
     11       2.6892      1.00000
     12       3.0459      1.00000
     13       3.3196      1.00000
     14       3.3782      1.00000
     15       5.4765      0.00000
     16       5.4765      0.00000
     17       7.0176      0.00000
     18       7.0176      0.00000
     19       8.6171      0.00000
     20       8.7469      0.00000
     21       9.4278      0.00000
     22       9.5263      0.00000
     23       9.7507      0.00000
     24       9.7507      0.00000
     25      10.0147      0.00000
     26      10.3056      0.00000
     27      10.3056      0.00000
     28      10.3946      0.00000
     29      11.1900      0.00000
     30      11.9130      0.00000
     31      11.9130      0.00000
     32      12.9180      0.00000
     33      12.9180      0.00000
     34      13.0782      0.00000
     35      13.1167      0.00000
     36      13.1562      0.00000
     37      14.4953      0.00000
     38      15.5939      0.00000
     39      15.5939      0.00000
     40      15.7092      0.00000
     41      17.1667      0.00000
     42      17.7379      0.00000
     43      17.7379      0.00000
     44      17.9291      0.00000
     45      18.3917      0.00000
     46      18.3917      0.00000
     47      18.5826      0.00000
     48      19.1513      0.00000
     49      19.2881      0.00000
     50      19.2881      0.00000
     51      19.5541      0.00000
     52      20.8679      0.00000
     53      21.6132      0.00000
     54      21.6906      0.00000
     55      21.6906      0.00000
     56      21.9069      0.00000
     57      22.1219      0.00000
     58      22.1219      0.00000
     59      22.1802      0.00000
     60      22.1900      0.00000
     61      23.2668      0.00000
     62      23.4739      0.00000
     63      23.5761      0.00000
     64      23.5761      0.00000
     65      24.7203      0.00000
     66      25.4055      0.00000
     67      26.1531      0.00000
     68      26.1531      0.00000
     69      26.4432      0.00000
     70      26.4432      0.00000
     71      26.6707      0.00000
     72      27.2403      0.00000
     73      27.2479      0.00000
     74      27.2479      0.00000
     75      27.7326      0.00000
     76      27.9975      0.00000
     77      29.0570      0.00000
     78      29.3815      0.00000
     79      29.3815      0.00000
     80      29.7575      0.00000
     81      29.9040      0.00000
     82      29.9040      0.00000
     83      30.1344      0.00000
     84      30.8096      0.00000
     85      31.2139      0.00000
     86      31.2274      0.00000
     87      31.5610      0.00000
     88      31.5610      0.00000
     89      31.8699      0.00000
     90      31.9984      0.00000
     91      32.1170      0.00000
     92      32.1170      0.00000
     93      32.7528      0.00000
     94      32.7528      0.00000
     95      32.7647      0.00000
     96      32.9421      0.00000
     97      32.9421      0.00000
     98      33.6178      0.00000
     99      33.8369      0.00000
    100      33.8607      0.00000
    101      34.5091      0.00000
    102      34.7039      0.00000
    103      35.6687      0.00000
    104      35.8910      0.00000
    105      35.8910      0.00000
    106      36.1007      0.00000
    107      36.5974      0.00000
    108      36.5974      0.00000
    109      37.5772      0.00000
    110      37.5772      0.00000
    111      37.7411      0.00000
    112      38.9342      0.00000
    113      38.9914      0.00000
    114      38.9914      0.00000
    115      39.3855      0.00000
    116      40.3674      0.00000
    117      40.3866      0.00000
    118      40.8213      0.00000
    119      40.8213      0.00000
    120      40.9988      0.00000
    121      41.0058      0.00000
    122      41.2012      0.00000
    123      41.4913      0.00000
    124      41.9166      0.00000
    125      41.9166      0.00000
    126      42.1501      0.00000
    127      42.2567      0.00000
    128      42.6022      0.00000
    129      42.8298      0.00000
    130      42.8298      0.00000
    131      43.0230      0.00000
    132      43.0230      0.00000
    133      43.0880      0.00000
    134      43.2799      0.00000
    135      43.2799      0.00000
    136      43.5244      0.00000
    137      43.7916      0.00000
    138      44.0881      0.00000
    139      44.0881      0.00000
    140      44.3906      0.00000
    141      44.5428      0.00000
    142      44.5428      0.00000
    143      44.9619      0.00000
    144      45.4744      0.00000

 k-point     7 :       0.2500    0.2500    0.2500
  band No.  band energies     occupation 
      1      -6.2800      1.00000
      2      -4.6077      1.00000
      3      -4.6077      1.00000
      4      -3.2841      1.00000
      5      -1.4714      1.00000
      6      -1.4714      1.00000
      7       0.0806      1.00000
      8       1.1800      1.00000
      9       1.1800      1.00000
     10       2.3483      1.00000
     11       2.3596      1.00000
     12       2.9847      1.00000
     13       2.9847      1.00000
     14       3.7975      1.00000
     15       5.6235      0.00000
     16       5.6235      0.00000
     17       6.3207      0.00000
     18       6.5929      0.00000
     19       6.5929      0.00000
     20       8.8092      0.00000
     21       8.8092      0.00000
     22       8.8551      0.00000
     23       9.8749      0.00000
     24       9.9277      0.00000
     25       9.9277      0.00000
     26      10.3457      0.00000
     27      10.3457      0.00000
     28      10.4225      0.00000
     29      11.8529      0.00000
     30      11.8529      0.00000
     31      12.7375      0.00000
     32      13.2264      0.00000
     33      13.2264      0.00000
     34      14.0350      0.00000
     35      14.2141      0.00000
     36      15.2636      0.00000
     37      15.4688      0.00000
     38      15.4688      0.00000
     39      15.8882      0.00000
     40      15.8882      0.00000
     41      15.9763      0.00000
     42      17.1982      0.00000
     43      17.3975      0.00000
     44      17.5620      0.00000
     45      17.5620      0.00000
     46      17.9082      0.00000
     47      18.9275      0.00000
     48      18.9275      0.00000
     49      19.4980      0.00000
     50      19.4980      0.00000
     51      19.6211      0.00000
[...]
     37      14.6053      0.00000
     38      15.1338      0.00000
     39      15.1338      0.00000
     40      15.3608      0.00000
     41      16.1039      0.00000
     42      16.2871      0.00000
     43      16.2871      0.00000
     44      17.1084      0.00000
     45      18.3240      0.00000
     46      18.3240      0.00000
     47      18.5917      0.00000
     48      18.8148      0.00000
     49      19.0199      0.00000
     50      19.2383      0.00000
     51      19.2383      0.00000
     52      19.5789      0.00000
     53      20.4531      0.00000
     54      21.7322      0.00000
     55      21.7322      0.00000
     56      22.1728      0.00000
     57      22.3874      0.00000
     58      22.6766      0.00000
     59      22.7184      0.00000
     60      22.7184      0.00000
     61      23.9326      0.00000
     62      23.9619      0.00000
     63      23.9619      0.00000
     64      25.2749      0.00000
     65      25.6348      0.00000
     66      25.8738      0.00000
     67      26.0084      0.00000
     68      26.0084      0.00000
     69      26.9860      0.00000
     70      26.9860      0.00000
     71      27.2161      0.00000
     72      27.2468      0.00000
     73      27.5619      0.00000
     74      27.7011      0.00000
     75      27.7011      0.00000
     76      28.6447      0.00000
     77      28.9234      0.00000
     78      28.9234      0.00000
     79      29.2580      0.00000
     80      29.2878      0.00000
     81      29.7745      0.00000
     82      30.4375      0.00000
     83      30.4375      0.00000
     84      30.5636      0.00000
     85      30.8107      0.00000
     86      30.8107      0.00000
     87      30.8422      0.00000
     88      31.3980      0.00000
     89      32.2412      0.00000
     90      32.2412      0.00000
     91      32.3626      0.00000
     92      32.3653      0.00000
     93      33.0724      0.00000
     94      33.3196      0.00000
     95      33.3196      0.00000
     96      33.5474      0.00000
     97      33.8253      0.00000
     98      33.8253      0.00000
     99      33.8583      0.00000
    100      34.3063      0.00000
    101      34.9093      0.00000
    102      35.4028      0.00000
    103      35.4028      0.00000
    104      35.4675      0.00000
    105      36.0872      0.00000
    106      36.3141      0.00000
    107      36.3141      0.00000
    108      36.4387      0.00000
    109      37.0561      0.00000
    110      37.5557      0.00000
    111      37.5557      0.00000
    112      37.6968      0.00000
    113      37.7075      0.00000
    114      38.5159      0.00000
    115      38.5159      0.00000
    116      38.6333      0.00000
    117      39.2954      0.00000
    118      39.3936      0.00000
    119      39.3936      0.00000
    120      39.3993      0.00000
    121      39.8465      0.00000
    122      39.8465      0.00000
    123      40.0722      0.00000
    124      40.8989      0.00000
    125      41.0756      0.00000
    126      41.6518      0.00000
    127      41.6518      0.00000
    128      41.8553      0.00000
    129      42.1868      0.00000
    130      42.9294      0.00000
    131      43.2329      0.00000
    132      43.3211      0.00000
    133      43.3211      0.00000
    134      43.6163      0.00000
    135      44.3083      0.00000
    136      44.3083      0.00000
    137      44.5407      0.00000
    138      45.3146      0.00000
    139      45.3146      0.00000
    140      45.6018      0.00000
    141      45.7555      0.00000
    142      45.7638      0.00000
    143      45.7639      0.00000
    144      46.2902      0.00000

 k-point    10 :       0.5000    0.5000    0.5000
  band No.  band energies     occupation 
      1      -5.0431      1.00000
      2      -5.0431      1.00000
      3      -5.0431      1.00000
      4      -3.6359      1.00000
      5      -1.8549      1.00000
      6      -1.8549      1.00000
      7      -1.8549      1.00000
      8       0.9498      1.00000
      9       3.2092      1.00000
     10       3.2092      1.00000
     11       3.3347      1.00000
     12       3.3347      1.00000
     13       3.3347      1.00000
     14       5.9576      0.00000
     15       5.9576      0.00000
     16       5.9576      0.00000
     17       6.3006      0.00000
     18       6.3006      0.00000
     19       6.3006      0.00000
     20       7.8783      0.00000
     21       7.8783      0.00000
     22       7.8783      0.00000
     23       9.0096      0.00000
     24       9.0096      0.00000
     25       9.9342      0.00000
     26       9.9342      0.00000
     27       9.9342      0.00000
     28      10.0393      0.00000
     29      12.4528      0.00000
     30      13.1184      0.00000
     31      13.1184      0.00000
     32      13.1184      0.00000
     33      15.1514      0.00000
     34      15.1514      0.00000
     35      15.1514      0.00000
     36      15.3119      0.00000
     37      15.3119      0.00000
     38      15.6791      0.00000
     39      15.6791      0.00000
     40      15.6791      0.00000
     41      16.4881      0.00000
     42      16.5528      0.00000
     43      16.5528      0.00000
     44      16.5528      0.00000
     45      16.7086      0.00000
     46      16.7086      0.00000
     47      16.7086      0.00000
     48      17.7154      0.00000
     49      17.7154      0.00000
     50      17.7154      0.00000
     51      18.1821      0.00000
     52      18.1821      0.00000
     53      19.4206      0.00000
     54      21.1703      0.00000
     55      21.1703      0.00000
     56      21.1703      0.00000
     57      24.5937      0.00000
     58      25.0196      0.00000
     59      25.0196      0.00000
     60      25.0196      0.00000
     61      25.3676      0.00000
     62      25.3676      0.00000
     63      25.3676      0.00000
     64      25.8471      0.00000
     65      26.2141      0.00000
     66      26.2141      0.00000
     67      26.3206      0.00000
     68      26.3206      0.00000
     69      26.3206      0.00000
     70      26.7173      0.00000
     71      26.7173      0.00000
     72      26.7173      0.00000
     73      26.7760      0.00000
     74      26.7760      0.00000
     75      26.7760      0.00000
     76      28.3536      0.00000
     77      28.3536      0.00000
     78      28.3536      0.00000
     79      30.0371      0.00000
     80      30.0371      0.00000
     81      30.3309      0.00000
     82      30.7829      0.00000
     83      30.7829      0.00000
     84      30.7829      0.00000
     85      31.5775      0.00000
     86      31.5775      0.00000
     87      31.5775      0.00000
     88      31.7739      0.00000
     89      31.7739      0.00000
     90      32.2124      0.00000
     91      32.2124      0.00000
     92      32.2124      0.00000
     93      32.6442      0.00000
     94      32.6442      0.00000
     95      32.6442      0.00000
     96      33.1661      0.00000
     97      33.1661      0.00000
     98      33.1661      0.00000
     99      33.9201      0.00000
    100      33.9201      0.00000
    101      34.1642      0.00000
    102      35.4169      0.00000
    103      36.7504      0.00000
    104      36.7504      0.00000
    105      36.7504      0.00000
    106      36.9415      0.00000
    107      36.9415      0.00000
    108      36.9415      0.00000
    109      37.0826      0.00000
    110      37.0826      0.00000
    111      37.0826      0.00000
    112      37.6057      0.00000
    113      37.6057      0.00000
    114      38.1081      0.00000
    115      38.1081      0.00000
    116      38.1081      0.00000
    117      38.1747      0.00000
    118      38.1747      0.00000
    119      38.1747      0.00000
    120      38.6372      0.00000
    121      39.5433      0.00000
    122      39.5433      0.00000
    123      39.5433      0.00000
    124      41.2288      0.00000
    125      41.2288      0.00000
    126      41.3131      0.00000
    127      41.7961      0.00000
    128      41.7961      0.00000
    129      41.7961      0.00000
    130      41.8214      0.00000
    131      41.9883      0.00000
    132      41.9883      0.00000
    133      41.9883      0.00000
    134      42.5337      0.00000
    135      42.5337      0.00000
    136      42.5337      0.00000
    137      45.4400      0.00000
    138      45.4400      0.00000
    139      45.9540      0.00000
    140      45.9540      0.00000
    141      45.9540      0.00000
    142      47.5336      0.00000
    143      47.5340      0.00000
    144      47.5345      0.00000


--------------------------------------------------------------------------------------------------------


 soft charge-density along one line, spin component           1
         0         1         2         3         4         5         6         7         8         9
 total charge-density along one line
 
 soft charge-density along one line, spin component           2
         0         1         2         3         4         5         6         7         8         9
 total charge-density along one line
 
 pseudopotential strength for first ion, spin component:           1
 18.587  25.932  -0.004   0.004   0.004  -0.007   0.007   0.007
 25.932  36.185  -0.005   0.005   0.005  -0.010   0.010   0.010
 -0.004  -0.005   4.195  -0.002  -0.002   7.818  -0.003  -0.003
  0.004   0.005  -0.002   4.195   0.002  -0.003   7.818   0.003
  0.004   0.005  -0.002   0.002   4.195  -0.003   0.003   7.818
 -0.007  -0.010   7.818  -0.003  -0.003  14.579  -0.006  -0.006
  0.007   0.010  -0.003   7.818   0.003  -0.006  14.579   0.006
  0.007   0.010  -0.003   0.003   7.818  -0.006   0.006  14.579
 pseudopotential strength for first ion, spin component:           2
 18.587  25.932  -0.004   0.004   0.004  -0.007   0.007   0.007
 25.932  36.185  -0.005   0.005   0.005  -0.010   0.010   0.010
 -0.004  -0.005   4.195  -0.002  -0.002   7.818  -0.003  -0.003
  0.004   0.005  -0.002   4.195   0.002  -0.003   7.818   0.003
  0.004   0.005  -0.002   0.002   4.195  -0.003   0.003   7.818
 -0.007  -0.010   7.818  -0.003  -0.003  14.579  -0.006  -0.006
  0.007   0.010  -0.003   7.818   0.003  -0.006  14.579   0.006
  0.007   0.010  -0.003   0.003   7.818  -0.006   0.006  14.579
 total augmentation occupancy for first ion, spin component:           1
  4.764  -1.643   0.479  -0.479  -0.479  -0.157   0.157   0.157
 -1.643   0.744  -0.291   0.291   0.291   0.075  -0.075  -0.075
  0.479  -0.291   2.231   0.462   0.462  -0.463  -0.113  -0.113
 -0.479   0.291   0.462   2.231  -0.462  -0.113  -0.463   0.113
 -0.479   0.291   0.462  -0.462   2.231  -0.113   0.113  -0.463
 -0.157   0.075  -0.463  -0.113  -0.113   0.104   0.027   0.027
  0.157  -0.075  -0.113  -0.463   0.113   0.027   0.104  -0.027
  0.157  -0.075  -0.113   0.113  -0.463   0.027  -0.027   0.104
 total augmentation occupancy for first ion, spin component:           2
 -0.000   0.000   0.000  -0.000  -0.000  -0.000   0.000   0.000
  0.000   0.000  -0.000   0.000   0.000   0.000  -0.000  -0.000
  0.000  -0.000   0.000   0.000   0.000  -0.000  -0.000  -0.000
 -0.000   0.000   0.000   0.000  -0.000  -0.000  -0.000   0.000
 -0.000   0.000   0.000  -0.000   0.000  -0.000   0.000  -0.000
 -0.000   0.000  -0.000  -0.000  -0.000   0.000   0.000   0.000
  0.000  -0.000  -0.000  -0.000   0.000   0.000   0.000  -0.000
  0.000  -0.000  -0.000   0.000  -0.000   0.000  -0.000   0.000


------------------------ aborting loop because EDIFF is reached ----------------------------------------





 total charge

# of ion       s       p       d       tot
------------------------------------------
    1        0.802   0.781   0.000   1.582
    2        0.753   0.898   0.000   1.651
    3        0.802   0.781   0.000   1.582
    4        0.753   0.898   0.000   1.651
    5        0.802   0.781   0.000   1.582
    6        0.753   0.898   0.000   1.651
    7        0.802   0.781   0.000   1.582
--------------------------------------------------
tot          5.465   5.819   0.000  11.284



 magnetization (x)

# of ion       s       p       d       tot
------------------------------------------
    1        0.000   0.000   0.000   0.000
    2       -0.000   0.000   0.000   0.000
    3        0.000   0.000   0.000   0.000
    4       -0.000   0.000   0.000   0.000
    5        0.000   0.000   0.000   0.000
    6       -0.000   0.000   0.000   0.000
    7        0.000   0.000   0.000   0.000
--------------------------------------------------
tot          0.000   0.000   0.000   0.000
 
    CHARGE:  cpu time      0.0369: real time      0.0369
    FORLOC:  cpu time      0.0002: real time      0.0003
    FORNL :  cpu time      0.0347: real time      0.0347
    STRESS:  cpu time      0.2406: real time      0.2406
    FORCOR:  cpu time      0.0137: real time      0.0137
    FORHAR:  cpu time      0.0019: real time      0.0019
    MIXING:  cpu time      0.0005: real time      0.0005
    OFIELD:  cpu time      0.0001: real time      0.0001

  FORCE on cell =-STRESS in cart. coord.  units (eV):
  Direction    XX          YY          ZZ          XY          YZ          ZX
  --------------------------------------------------------------------------------------
  Alpha Z    10.25816    10.25816    10.25816
  Ewald    -246.66973  -246.66973  -246.66973    -0.00000    -0.00000    -0.00000
  Hartree    24.35420    24.35420    24.35420     0.00000    -0.00000    -0.00000
  E(xc)     -84.21211   -84.21211   -84.21211     0.00000     0.00000     0.00000
  Local    -123.34770  -123.34770  -123.34770     0.00000     0.00000     0.00000
  n-local   267.21759   268.10045   266.08362    -0.34120    -0.83097    -0.13731
  augment   -41.09209   -41.09209   -41.09209    -0.00000     0.00000     0.00000
  Kinetic   175.12201   183.06840   189.11037     0.25728     0.23416     0.38624
  Fock        0.00000     0.00000     0.00000     0.00000     0.00000     0.00000
  -------------------------------------------------------------------------------------
  Total     -11.14179   -11.14179   -11.14179     0.00000     0.00000    -0.00000
  in kB    -111.01568  -111.01568  -111.01568     0.00000     0.00000    -0.00000
  external pressure =     -111.02 kB  Pullay stress =        0.00 kB


 VOLUME and BASIS-vectors are now :
 -----------------------------------------------------------------------------
  energy-cutoff  :      500.00
  volume of cell :      160.80
      direct lattice vectors                 reciprocal lattice vectors
     5.437848350  0.000000000  0.000000000     0.183896265  0.000000000  0.000000000
     0.000000000  5.437848350  0.000000000     0.000000000  0.183896265  0.000000000
     0.000000000  0.000000000  5.437848350     0.000000000  0.000000000  0.183896265

  length of vectors
     5.437848350  5.437848350  5.437848350     0.183896265  0.183896265  0.183896265


 FORCES acting on ions
    electron-ion (+dipol)            ewald-force                    non-local-force                 convergence-correction
 -----------------------------------------------------------------------------------------------
   -.210E+02 0.210E+02 -.210E+02   0.191E+02 -.191E+02 0.191E+02   0.180E+01 -.180E+01 0.180E+01   0.771E-04 -.771E-04 0.771E-04
   -.127E-12 0.494E-15 0.212E-13   -.355E-14 -.107E-13 0.000E+00   0.107E-16 0.163E-17 0.994E-17   -.533E-15 0.337E-14 -.305E-14
   -.210E+02 -.210E+02 0.210E+02   0.191E+02 0.191E+02 -.191E+02   0.180E+01 0.180E+01 -.180E+01   0.771E-04 0.771E-04 -.771E-04
   0.184E-12 0.903E-14 0.103E-13   0.000E+00 0.000E+00 -.142E-13   0.159E-16 0.215E-16 -.690E-17   -.159E-14 0.185E-14 -.289E-14
   0.210E+02 0.210E+02 0.210E+02   -.191E+02 -.191E+02 -.191E+02   -.180E+01 -.180E+01 -.180E+01   -.771E-04 -.771E-04 -.771E-04
   0.108E-12 0.114E-14 -.131E-12   -.355E-14 0.142E-13 0.711E-14   0.761E-17 0.470E-17 0.903E-17   -.177E-14 0.229E-14 -.211E-14
   0.210E+02 -.210E+02 -.210E+02   -.191E+02 0.191E+02 0.191E+02   -.180E+01 0.180E+01 0.180E+01   -.771E-04 0.771E-04 0.771E-04
 -----------------------------------------------------------------------------------------------
   -.410E-08 -.410E-08 0.445E-09   0.000E+00 0.000E+00 0.000E+00   0.000E+00 0.222E-15 -.222E-15   -.669E-15 0.870E-14 -.664E-14
 
 
 POSITION                                       TOTAL-FORCE (eV/Angst)
 -----------------------------------------------------------------------------------
      1.33814      4.09971      1.33814        -0.055223      0.055223     -0.055223
      0.00000      0.00000      2.71892         0.000000     -0.000000      0.000000
      1.33814      1.33814      4.09971        -0.055223     -0.055223      0.055223
      0.00000      2.71892      0.00000         0.000000     -0.000000      0.000000
      4.09971      4.09971      4.09971         0.055223      0.055223      0.055223
      2.71892      0.00000      0.00000         0.000000     -0.000000      0.000000
      4.09971      1.33814      1.33814         0.055223     -0.055223     -0.055223
 -----------------------------------------------------------------------------------
    total drift:                               -0.000000     -0.000000      0.000000


--------------------------------------------------------------------------------------------------------



  FREE ENERGIE OF THE ION-ELECTRON SYSTEM (eV)
  ---------------------------------------------------
  free  energy   TOTEN  =       -41.57231765 eV

  energy  without entropy=      -41.56702837  energy(sigma->0) =      -41.56967301
 


--------------------------------------------------------------------------------------------------------


    POTLOK:  cpu time      0.2273: real time      0.2273


--------------------------------------------------------------------------------------------------------


 writing wavefunctions
     LOOP+:  cpu time     67.1361: real time     67.4481
    4ORBIT:  cpu time      0.0000: real time      0.0000



 total charge

# of ion       s       p       d       tot
------------------------------------------
    1        0.802   0.781   0.000   1.582
    2        0.753   0.898   0.000   1.651
    3        0.802   0.781   0.000   1.582
    4        0.753   0.898   0.000   1.651
    5        0.802   0.781   0.000   1.582
    6        0.753   0.898   0.000   1.651
    7        0.802   0.781   0.000   1.582
--------------------------------------------------
tot          5.465   5.819   0.000  11.284



 magnetization (x)

# of ion       s       p       d       tot
------------------------------------------
    1        0.000   0.000   0.000   0.000
    2       -0.000   0.000   0.000   0.000
    3        0.000   0.000   0.000   0.000
    4       -0.000   0.000   0.000   0.000
    5        0.000   0.000   0.000   0.000
    6       -0.000   0.000   0.000   0.000
    7        0.000   0.000   0.000   0.000
--------------------------------------------------
tot          0.000   0.000   0.000   0.000
 

 total amount of memory used by VASP MPI-rank0    40713. kBytes
=======================================================================

   base      :      30000. kBytes
   nonl-proj :       3140. kBytes
   fftplans  :        508. kBytes
   grid      :       5640. kBytes
   one-center:         43. kBytes
   wavefun   :       1382. kBytes
 
  
  
 General timing and accounting informations for this job:
 ========================================================
  
                  Total CPU time used (sec):       73.796
                            User time (sec):       70.551
                          System time (sec):        3.245
                         Elapsed time (sec):       76.032
  
                   Maximum memory used (kb):      154972.
                   Average memory used (kb):          N/A
  
                          Minor page faults:       133603
                          Major page faults:            0
                 Voluntary context switches:         3800
