<?xml version="1.0" encoding="ISO-8859-1"?>
<modeling>
 <generator>
  <i name="program" type="string">vasp </i>
  <i name="version" type="string">6.3.0  </i>
  <i name="subversion" type="string">20Jan22 (build Feb 02 2022 18:12:33) complex                          parallel </i>
  <i name="platform" type="string">LinuxIFC </i>
  <i name="date" type="string">2022 04 15 </i>
  <i name="time" type="string">08:53:49 </i>
 </generator>
 <incar>
  <i type="string" name="PREC">Accurate</i>
  <i type="string" name="ALGO">Fast</i>
  <i type="int" name="ISPIN">     2</i>
  <i type="int" name="NELM">   200</i>
  <i type="int" name="NELMIN">     6</i>
  <i name="EDIFF">      0.00001000</i>
  <i type="int" name="NSW">     0</i>
  <i name="ENCUT">    500.00000000</i>
  <i name="ENAUG">   1360.00000000</i>
  <v name="MAGMOM">      0.00000000      0.00000000      0.00000000      0.00000000      0.00000000      0.00000000      0.00000000</v>
  <i name="NELECT">     27.00000000</i>
  <i type="logical" name="LREAL"> F  </i>
  <i type="int" name="ISMEAR">     0</i>
  <i name="SIGMA">      0.05000000</i>
  <i type="logical" name="LWAVE"> T  </i>
  <i type="logical" name="LCHARG"> T  </i>
  <i type="logical" name="LVTOT"> T  </i>
  <i type="int" name="LORBIT">    11</i>
  <i type="logical" name="LELF"> F  </i>
  <i type="logical" name="LASPH"> T  </i>
  <i type="logical" name="LAECHG"> F  </i>
  <i type="string" name="GGA">Ps</i>
  <i type="logical" name="LMIXTAU"> T  </i>
 </incar>
 <primitive_cell>
  <structure name="primitive_cell" >
   <crystal>
    <varray name="basis" >
     <v>       5.43784835       0.00000000       0.00000000 </v>
     <v>       0.00000000       5.43784835       0.00000000 </v>
     <v>       0.00000000       0.00000000       5.43784835 </v>
    </varray>
    <i name="volume">    160.79823434 </i>
    <varray name="rec_basis" >
     <v>       0.18389626       0.00000000       0.00000000 </v>
     <v>       0.00000000       0.18389626       0.00000000 </v>
     <v>       0.00000000       0.00000000       0.18389626 </v>
    </varray>
   </crystal>
   <varray name="positions" >
    <v>       0.24607912       0.75392088       0.24607912 </v>
    <v>       0.00000000       0.00000000       0.50000000 </v>
    <v>       0.24607912       0.24607912       0.75392088 </v>
    <v>       0.00000000       0.50000000       0.00000000 </v>
    <v>       0.75392088       0.75392088       0.75392088 </v>
    <v>       0.50000000       0.00000000       0.00000000 </v>
    <v>       0.75392088       0.24607912       0.24607912 </v>
   </varray>
  </structure>
  <varray name="primitive_index" >
   <v type="int" >        1 </v>
   <v type="int" >        2 </v>
   <v type="int" >        3 </v>
   <v type="int" >        4 </v>
   <v type="int" >        5 </v>
   <v type="int" >        6 </v>
   <v type="int" >        7 </v>
  </varray>
 </primitive_cell>
 <kpoints>
  <generation param="Gamma">
   <v type="int" name="divisions">       4        4        4 </v>
   <v name="usershift">      0.00000000       0.00000000       0.00000000 </v>
   <v name="genvec1">      0.25000000       0.00000000       0.00000000 </v>
   <v name="genvec2">      0.00000000       0.25000000       0.00000000 </v>
   <v name="genvec3">      0.00000000       0.00000000       0.25000000 </v>
   <v name="shift">      0.00000000       0.00000000       0.00000000 </v>
  </generation>
  <varray name="kpointlist" >
   <v>       0.00000000       0.00000000       0.00000000 </v>
   <v>       0.25000000       0.00000000       0.00000000 </v>
   <v>       0.50000000       0.00000000       0.00000000 </v>
   <v>       0.25000000       0.25000000       0.00000000 </v>
   <v>       0.50000000       0.25000000       0.00000000 </v>
   <v>       0.50000000       0.50000000       0.00000000 </v>
   <v>       0.25000000       0.25000000       0.25000000 </v>
   <v>       0.50000000       0.25000000       0.25000000 </v>
   <v>       0.50000000       0.50000000       0.25000000 </v>
   <v>       0.50000000       0.50000000       0.50000000 </v>
  </varray>
  <varray name="weights" >
   <v>       0.01562500 </v>
   <v>       0.09375000 </v>
   <v>       0.04687500 </v>
   <v>       0.18750000 </v>
   <v>       0.18750000 </v>
   <v>       0.04687500 </v>
   <v>       0.12500000 </v>
   <v>       0.18750000 </v>
   <v>       0.09375000 </v>
   <v>       0.01562500 </v>
  </varray>
 </kpoints>
 <parameters>
  <separator name="general" >
   <i type="string" name="SYSTEM">unknown system</i>
   <i type="logical" name="LCOMPAT"> F  </i>
  </separator>
  <separator name="electronic" >
   <i type="string" name="PREC">accura</i>
   <i name="ENMAX">    500.00000000</i>
   <i name="ENAUG">   1360.00000000</i>
   <i name="EDIFF">      0.00001000</i>
   <i type="int" name="IALGO">    68</i>
   <i type="int" name="IWAVPR">    10</i>
   <i type="int" name="NBANDS">   144</i>
   <i type="int" name="NBANDSLOW">    -1</i>
   <i type="int" name="NBANDSHIGH">    -1</i>
   <i name="NELECT">     27.00000000</i>
   <i type="int" name="TURBO">     0</i>
   <i type="int" name="IRESTART">     0</i>
   <i type="int" name="NREBOOT">     0</i>
   <i type="int" name="NMIN">     0</i>
   <i name="EREF">      0.00000000</i>
   <separator name="electronic smearing" >
    <i type="int" name="ISMEAR">     0</i>
    <i name="SIGMA">      0.05000000</i>
    <i name="KSPACING">      0.50000000</i>
    <i type="logical" name="KGAMMA"> T  </i>
    <i type="logical" name="KBLOWUP"> T  </i>
   </separator>
   <separator name="electronic projectors" >
    <i type="logical" name="LREAL"> F  </i>
    <v name="ROPT">      0.00000000</v>
    <i type="int" name="LMAXPAW">  -100</i>
    <i type="int" name="LMAXMIX">     2</i>
    <i type="logical" name="NLSPLINE"> F  </i>
   </separator>
   <separator name="electronic startup" >
    <i type="int" name="ISTART">     0</i>
    <i type="int" name="ICHARG">     2</i>
    <i type="int" name="INIWAV">     1</i>
   </separator>
   <separator name="electronic spin" >
    <i type="int" name="ISPIN">     2</i>
    <i type="logical" name="LNONCOLLINEAR"> F  </i>
    <v name="MAGMOM">      0.00000000      0.00000000      0.00000000      0.00000000      0.00000000      0.00000000      0.00000000</v>
    <i name="NUPDOWN">     -1.00000000</i>
    <i type="logical" name="LSORBIT"> F  </i>
    <v name="SAXIS">      0.00000000      0.00000000      1.00000000</v>
    <i type="logical" name="LSPIRAL"> F  </i>
    <v name="QSPIRAL">      0.00000000      0.00000000      0.00000000</v>
    <i type="logical" name="LZEROZ"> F  </i>
   </separator>
   <separator name="electronic exchange-correlation" >
    <i type="logical" name="LASPH"> T  </i>
    <i type="logical" name="LMETAGGA"> F  </i>
   </separator>
   <separator name="electronic convergence" >
    <i type="int" name="NELM">   200</i>
    <i type="int" name="NELMDL">    -5</i>
    <i type="int" name="NELMIN">     6</i>
    <i name="ENINI">    500.00000000</i>
    <separator name="electronic convergence detail" >
     <i type="logical" name="LDIAG"> T  </i>
     <i type="logical" name="LSUBROT"> F  </i>
     <i name="WEIMIN">      0.00000000</i>
     <i name="EBREAK">      0.00000002</i>
     <i name="DEPER">      0.30000000</i>
     <i type="int" name="NRMM">     4</i>
     <i name="TIME">      0.40000000</i>
    </separator>
   </separator>
   <separator name="electronic mixer" >
    <i name="AMIX">      0.40000000</i>
    <i name="BMIX">      1.00000000</i>
    <i name="AMIN">      0.10000000</i>
    <i name="AMIX_MAG">      1.60000000</i>
    <i name="BMIX_MAG">      1.00000000</i>
    <separator name="electronic mixer details" >
     <i type="int" name="IMIX">     4</i>
     <i type="logical" name="MIXFIRST"> F  </i>
     <i type="int" name="MAXMIX">   -45</i>
     <i name="WC">    100.00000000</i>
     <i type="int" name="INIMIX">     1</i>
     <i type="int" name="MIXPRE">     1</i>
     <i type="int" name="MREMOVE">     5</i>
    </separator>
   </separator>
   <separator name="electronic dipolcorrection" >
    <i type="logical" name="LDIPOL"> F  </i>
    <i type="logical" name="LMONO"> F  </i>
    <i type="int" name="IDIPOL">     0</i>
    <i name="EPSILON">      1.00000000</i>
    <v name="DIPOL">   -100.00000000   -100.00000000   -100.00000000</v>
    <i name="EFIELD">      0.00000000</i>
   </separator>
  </separator>
  <separator name="grids" >
   <i type="int" name="NGX">    40</i>
   <i type="int" name="NGY">    40</i>
   <i type="int" name="NGZ">    40</i>
   <i type="int" name="NGXF">    80</i>
   <i type="int" name="NGYF">    80</i>
   <i type="int" name="NGZF">    80</i>
   <i type="logical" name="ADDGRID"> F  </i>
  </separator>
  <separator name="ionic" >
   <i type="int" name="NSW">     0</i>
   <i type="int" name="IBRION">    -1</i>
   <i type="int" name="MDALGO">     0</i>
   <i type="int" name="ISIF">     2</i>
   <i name="PSTRESS">      0.00000000</i>
   <i name="EDIFFG">      0.00010000</i>
   <i type="int" name="NFREE">     0</i>
   <i name="POTIM">      0.50000000</i>
   <i name="SMASS">     -3.00000000</i>
   <i name="SCALEE">      1.00000000</i>
  </separator>
  <separator name="ionic md" >
   <i name="TEBEG">      0.00010000</i>
   <i name="TEEND">      0.00010000</i>
   <i type="int" name="NBLOCK">     1</i>
   <i type="int" name="KBLOCK">     1</i>
   <i type="int" name="NPACO">   256</i>
   <i name="APACO">     10.00000000</i>
  </separator>
  <separator name="symmetry" >
   <i type="int" name="ISYM">     2</i>
   <i name="SYMPREC">      0.00001000</i>
  </separator>
  <separator name="dos" >
   <i type="int" name="LORBIT">    11</i>
   <v name="RWIGS">     -1.00000000</v>
   <i type="int" name="NEDOS">   301</i>
   <i name="EMIN">     10.00000000</i>
   <i name="EMAX">    -10.00000000</i>
   <i name="EFERMI">      0.00000000</i>
  </separator>
  <separator name="writing" >
   <i type="int" name="NWRITE">     2</i>
   <i type="logical" name="LWAVE"> T  </i>
   <i type="logical" name="LDOWNSAMPLE"> F  </i>
   <i type="logical" name="LCHARG"> T  </i>
   <i type="logical" name="LPARD"> F  </i>
   <i type="logical" name="LVTOT"> T  </i>
   <i type="logical" name="LVHAR"> F  </i>
   <i type="logical" name="LELF"> F  </i>
   <i type="logical" name="LOPTICS"> F  </i>
   <v name="STM">      0.00000000      0.00000000      0.00000000      0.00000000      0.00000000      0.00000000      0.00000000</v>
  </separator>
  <separator name="performance" >
   <i type="int" name="NPAR">   144</i>
   <i type="int" name="NSIM">     4</i>
   <i type="int" name="NBLK">    -1</i>
   <i type="logical" name="LPLANE"> T  </i>
   <i type="logical" name="LSCALAPACK"> T  </i>
   <i type="logical" name="LSCAAWARE"> T  </i>
   <i type="logical" name="LSCALU"> F  </i>
   <i type="logical" name="LASYNC"> F  </i>
   <i type="logical" name="LORBITALREAL"> F  </i>
  </separator>
  <separator name="miscellaneous" >
   <i type="int" name="IDIOT">     3</i>
   <i type="int" name="PHON_NSTRUCT">    -1</i>
   <i type="logical" name="LMUSIC"> F  </i>
   <v name="POMASS">     28.08500000</v>
   <v name="DARWINR">      0.00000000</v>
   <v name="DARWINV">      1.00000000</v>
   <i type="logical" name="LCORR"> T  </i>
  </separator>
  <i type="logical" name="GGA_COMPAT"> T  </i>
  <i type="logical" name="LBERRY"> F  </i>
  <i type="int" name="ICORELEVEL">     0</i>
  <i type="logical" name="LDAU"> F  </i>
  <i type="int" name="I_CONSTRAINED_M">     0</i>
  <separator name="electronic exchange-correlation" >
   <i type="string" name="GGA">PS</i>
   <i type="int" name="VOSKOWN">     0</i>
   <i type="logical" name="LHFCALC"> F  </i>
   <i type="string" name="PRECFOCK"></i>
   <i type="logical" name="LSYMGRAD"> F  </i>
   <i type="logical" name="LHFONE"> F  </i>
   <i type="logical" name="LRHFCALC"> F  </i>
   <i type="logical" name="LTHOMAS"> F  </i>
   <i type="logical" name="LMODELHF"> F  </i>
   <i type="logical" name="LFOCKACE"> F  </i>
   <i name="ENCUT4O">     -1.00000000</i>
   <i type="int" name="EXXOEP">     0</i>
   <i type="int" name="FOURORBIT">     0</i>
   <i name="AEXX">      0.00000000</i>
   <i name="HFALPHA">      0.00000000</i>
   <i name="MCALPHA">      0.00000000</i>
   <i name="ALDAX">      1.00000000</i>
   <i name="AGGAX">      1.00000000</i>
   <i name="ALDAC">      1.00000000</i>
   <i name="AGGAC">      1.00000000</i>
   <i type="int" name="NKREDX">     1</i>
   <i type="int" name="NKREDY">     1</i>
   <i type="int" name="NKREDZ">     1</i>
   <i type="logical" name="SHIFTRED"> F  </i>
   <i type="logical" name="ODDONLY"> F  </i>
   <i type="logical" name="EVENONLY"> F  </i>
   <i type="int" name="LMAXFOCK">     0</i>
   <i type="int" name="NMAXFOCKAE">     0</i>
   <i type="logical" name="LFOCKAEDFT"> F  </i>
   <i name="HFSCREEN">      0.00000000</i>
   <i name="HFSCREENC">      0.00000000</i>
   <i type="int" name="NBANDSGWLOW">     0</i>
  </separator>
  <separator name="vdW DFT" >
   <i type="logical" name="LUSE_VDW"> F  </i>
   <i name="Zab_VDW">     -0.84910000</i>
   <i name="PARAM1">      0.12340000</i>
   <i name="PARAM2">      1.00000000</i>
   <i name="PARAM3">      0.00000000</i>
  </separator>
  <separator name="model GW" >
   <i type="int" name="MODEL_GW">     0</i>
   <i name="MODEL_EPS0">     13.78270580</i>
   <i name="MODEL_ALPHA">      1.00000000</i>
  </separator>
  <separator name="linear response parameters" >
   <i type="logical" name="LEPSILON"> F  </i>
   <i type="logical" name="LRPA"> F  </i>
   <i type="logical" name="LNABLA"> F  </i>
   <i type="logical" name="LVEL"> F  </i>
   <i name="CSHIFT">      0.10000000</i>
   <i name="OMEGAMAX">     -1.00000000</i>
   <i name="DEG_THRESHOLD">      0.00200000</i>
   <i name="RTIME">     -0.10000000</i>
   <i name="WPLASMAI">      0.00000000</i>
   <v name="DFIELD">      0.00000000      0.00000000      0.00000000</v>
   <v name="WPLASMA">      0.00000000      0.00000000      0.00000000      0.00000000      0.00000000      0.00000000      0.00000000      0.00000000      0.00000000</v>
  </separator>
  <separator name="orbital magnetization" >
   <i type="logical" name="NUCIND"> F  </i>
   <v name="MAGPOS">      0.00000000      0.00000000      0.00000000</v>
   <i type="logical" name="LNICSALL"> T  </i>
   <i type="logical" name="ORBITALMAG"> F  </i>
   <i type="logical" name="LMAGBLOCH"> F  </i>
   <i type="logical" name="LCHIMAG"> F  </i>
   <i type="logical" name="LGAUGE"> T  </i>
   <i type="int" name="MAGATOM">     0</i>
   <v name="MAGDIPOL">      0.00000000      0.00000000      0.00000000</v>
   <v name="AVECCONST">      0.00000000      0.00000000      0.00000000</v>
  </separator>
  <separator name="response functions" >
   <i type="logical" name="LFINITE_TEMPERATURE"> F  </i>
   <i type="logical" name="LADDER"> F  </i>
   <i type="logical" name="LRPAFORCE"> F  </i>
   <i type="logical" name="LFXC"> F  </i>
   <i type="logical" name="LHARTREE"> T  </i>
   <i type="int" name="IBSE">     0</i>
   <v type="int" name="KPOINT">    -1     0     0     0</v>
   <i type="logical" name="LTCTC"> F  </i>
   <i type="logical" name="LTCTE"> F  </i>
   <i type="logical" name="LTETE"> F  </i>
   <i type="logical" name="LTRIPLET"> F  </i>
   <i type="logical" name="LFXCEPS"> F  </i>
   <i type="logical" name="LFXHEG"> F  </i>
   <i type="int" name="NATURALO">     2</i>
   <i type="logical" name="LHOLEGF"> F  </i>
   <i type="logical" name="L2ORDER"> F  </i>
   <i type="logical" name="LDMP1"> F  </i>
   <i type="logical" name="LMP2LT"> F  </i>
   <i type="logical" name="LSMP2LT"> F  </i>
   <i type="logical" name="LGWLF"> F  </i>
   <i name="ENCUTGW">     -2.00000000</i>
   <i name="ENCUTGWSOFT">     -2.00000000</i>
   <i name="ENCUTLF">     -1.00000000</i>
   <i type="logical" name="LESF_SPLINES"> F  </i>
   <i type="int" name="LMAXMP2">    -1</i>
   <i name="SCISSOR">      0.00000000</i>
   <i type="int" name="NOMEGA">     0</i>
   <i type="int" name="NOMEGAR">     0</i>
   <i type="int" name="NBANDSGW">    -1</i>
   <i type="int" name="NBANDSO">    -1</i>
   <i type="int" name="NBANDSV">    -1</i>
   <i type="int" name="NELMGW">     1</i>
   <i type="int" name="NELMHF">     1</i>
   <i type="int" name="DIM">     3</i>
   <i type="int" name="IESPILON">     4</i>
   <i type="int" name="ANTIRES">     0</i>
   <i name="OMEGAMAX">    -30.00000000</i>
   <i name="OMEGAMIN">    -30.00000000</i>
   <i name="OMEGATL">   -200.00000000</i>
   <i type="int" name="OMEGAGRID">     0</i>
   <i name="CSHIFT">     -0.10000000</i>
   <i type="logical" name="LSELFENERGY"> F  </i>
   <i type="logical" name="LSPECTRAL"> F  </i>
   <i type="logical" name="LSPECTRALGW"> F  </i>
   <i type="logical" name="LSINGLES"> F  </i>
   <i type="logical" name="LFERMIGW"> F  </i>
   <i type="logical" name="ODDONLYGW"> F  </i>
   <i type="logical" name="EVENONLYGW"> F  </i>
   <i type="int" name="NKREDLFX">     1</i>
   <i type="int" name="NKREDLFY">     1</i>
   <i type="int" name="NKREDLFZ">     1</i>
   <i type="int" name="MAXMEM">  2800</i>
   <i type="int" name="TELESCOPE">     0</i>
   <i type="int" name="NTAUPAR">    -1</i>
   <i type="int" name="NOMEGAPAR">    -1</i>
   <i name="DAMP_NEWTON">      0.80000001</i>
   <i name="LAMBDA">      1.00000000</i>
  </separator>
  <separator name="External order field" >
   <i name="OFIELD_KAPPA">      0.00000000</i>
   <v name="OFIELD_K">      0.00000000      0.00000000      0.00000000</v>
   <i name="OFIELD_Q6_NEAR">      0.00000000</i>
   <i name="OFIELD_Q6_FAR">      0.00000000</i>
   <i name="OFIELD_A">      0.00000000</i>
  </separator>
  <separator name="optional k-points parameters" >
   <i type="int" name="KPOINTS_OPT_MODE">     1</i>
   <i type="logical" name="LKPOINTS_OPT"> F  </i>
  </separator>
 </parameters>
 <atominfo>
  <atoms>       7 </atoms>
  <types>       1 </types>
  <array name="atoms" >
   <dimension dim="1">ion</dimension>
   <field type="string">element</field>
   <field type="int">atomtype</field>
   <set>
    <rc><c>Si</c><c>   1</c></rc>
    <rc><c>Si</c><c>   1</c></rc>
    <rc><c>Si</c><c>   1</c></rc>
    <rc><c>Si</c><c>   1</c></rc>
    <rc><c>Si</c><c>   1</c></rc>
    <rc><c>Si</c><c>   1</c></rc>
    <rc><c>Si</c><c>   1</c></rc>
   </set>
  </array>
  <array name="atomtypes" >
   <dimension dim="1">type</dimension>
   <field type="int">atomspertype</field>
   <field type="string">element</field>
   <field>mass</field>
   <field>valence</field>
   <field type="string">pseudopotential</field>
   <set>
    <rc><c>   7</c><c>Si</c><c>     28.08500000</c><c>      4.00000000</c><c>  PAW_PBE Si 05Jan2001                  </c></rc>
   </set>
  </array>
 </atominfo>
 <structure name="initialpos" >
  <crystal>
   <varray name="basis" >
    <v>       5.43784835       0.00000000       0.00000000 </v>
    <v>       0.00000000       5.43784835       0.00000000 </v>
    <v>       0.00000000       0.00000000       5.43784835 </v>
   </varray>
   <i name="volume">    160.79823434 </i>
   <varray name="rec_basis" >
    <v>       0.18389626       0.00000000       0.00000000 </v>
    <v>       0.00000000       0.18389626       0.00000000 </v>
    <v>       0.00000000       0.00000000       0.18389626 </v>
   </varray>
  </crystal>
  <varray name="positions" >
   <v>       0.24607912       0.75392088       0.24607912 </v>
   <v>       0.00000000       0.00000000       0.50000000 </v>
   <v>       0.24607912       0.24607912       0.75392088 </v>
   <v>       0.00000000       0.50000000       0.00000000 </v>
   <v>       0.75392088       0.75392088       0.75392088 </v>
   <v>       0.50000000       0.00000000       0.00000000 </v>
   <v>       0.75392088       0.24607912       0.24607912 </v>
  </varray>
 </structure>
 <calculation>
  <scstep>
   <time name="dav">    5.21    5.21</time>
   <time name="total">    5.41    5.42</time>
   <energy>
    <i name="alphaZ">     10.25815623 </i>
    <i name="ewald">   -740.00801181 </i>
    <i name="hartreedc">    -62.41976915 </i>
    <i name="XCdc">    -62.41195421 </i>
    <i name="pawpsdc">    612.34974655 </i>
    <i name="pawaedc">   -491.33201702 </i>
    <i name="eentropy">     -0.00505600 </i>
    <i name="bandstr">     -8.63168379 </i>
    <i name="atom">    718.02812073 </i>
    <i name="e_fr_energy">    -24.17246848 </i>
    <i name="e_wo_entrp">    -24.16741247 </i>
    <i name="e_0_energy">    -24.16994048 </i>
   </energy>
  </scstep>
  <scstep>
   <time name="dav">   12.35   12.37</time>
   <time name="total">   12.36   12.37</time>
   <energy>
    <i name="e_fr_energy">    -42.28716722 </i>
    <i name="e_wo_entrp">    -42.28187795 </i>
    <i name="e_0_energy">    -42.28452259 </i>
   </energy>
  </scstep>
  <scstep>
   <time name="dav">    5.33    5.34</time>
   <time name="total">    5.33    5.35</time>
   <energy>
    <i name="e_fr_energy">    -42.30168042 </i>
    <i name="e_wo_entrp">    -42.29639115 </i>
    <i name="e_0_energy">    -42.29903578 </i>
   </energy>
  </scstep>
  <scstep>
   <time name="dav">   25.44   25.46</time>
   <time name="total">   25.45   25.47</time>
   <energy>
    <i name="e_fr_energy">    -42.30168815 </i>
    <i name="e_wo_entrp">    -42.29639887 </i>
    <i name="e_0_energy">    -42.29904351 </i>
   </energy>
  </scstep>
  <scstep>
   <time name="dav">    5.67    5.69</time>
   <time name="total">    5.72    5.74</time>
   <energy>
    <i name="e_fr_energy">    -42.30168815 </i>
    <i name="e_wo_entrp">    -42.29639887 </i>
    <i name="e_0_energy">    -42.29904351 </i>
   </energy>
  </scstep>
  <scstep>
   <time name="diag">    0.81    0.81</time>
   <time name="diis">    0.19    0.19</time>
   <time name="orth">    0.11    0.11</time>
   <time name="total">    1.38    1.40</time>
   <energy>
    <i name="e_fr_energy">    -41.78043481 </i>
    <i name="e_wo_entrp">    -41.77514554 </i>
    <i name="e_0_energy">    -41.77779017 </i>
   </energy>
  </scstep>
  <scstep>
   <time name="diag">    0.78    0.78</time>
   <time name="diis">    0.31    0.31</time>
   <time name="orth">    0.11    0.11</time>
   <time name="total">    1.46    1.48</time>
   <energy>
    <i name="e_fr_energy">    -41.58067472 </i>
    <i name="e_wo_entrp">    -41.57538545 </i>
    <i name="e_0_energy">    -41.57803009 </i>
   </energy>
  </scstep>
  <scstep>
   <time name="diag">    0.78    0.78</time>
   <time name="diis">    0.27    0.27</time>
   <time name="orth">    0.11    0.11</time>
   <time name="total">    1.43    1.45</time>
   <energy>
    <i name="e_fr_energy">    -41.57242446 </i>
    <i name="e_wo_entrp">    -41.56713518 </i>
    <i name="e_0_energy">    -41.56977982 </i>
   </energy>
  </scstep>
  <scstep>
   <time name="diag">    0.77    0.77</time>
   <time name="diis">    0.31    0.31</time>
   <time name="orth">    0.11    0.11</time>
   <time name="total">    1.46    1.48</time>
   <energy>
    <i name="e_fr_energy">    -41.57230460 </i>
    <i name="e_wo_entrp">    -41.56701533 </i>
    <i name="e_0_energy">    -41.56965996 </i>
   </energy>
  </scstep>
  <scstep>
   <time name="diag">    0.77    0.77</time>
   <time name="diis">    0.30    0.30</time>
   <time name="orth">    0.11    0.11</time>
   <time name="total">    1.44    1.46</time>
   <energy>
    <i name="e_fr_energy">    -41.57235791 </i>
    <i name="e_wo_entrp">    -41.56706863 </i>
    <i name="e_0_energy">    -41.56971327 </i>
   </energy>
  </scstep>
  <scstep>
   <time name="diag">    0.76    0.76</time>
   <time name="diis">    0.32    0.32</time>
   <time name="orth">    0.11    0.11</time>
   <time name="total">    1.45    1.47</time>
   <energy>
    <i name="e_fr_energy">    -41.57231717 </i>
    <i name="e_wo_entrp">    -41.56702790 </i>
    <i name="e_0_energy">    -41.56967254 </i>
   </energy>
  </scstep>
  <scstep>
   <time name="diag">    0.75    0.75</time>
   <time name="diis">    0.31    0.31</time>
   <time name="orth">    0.11    0.11</time>
   <time name="total">    1.40    1.42</time>
   <energy>
    <i name="alphaZ">     10.25815623 </i>
    <i name="ewald">   -740.00801181 </i>
    <i name="hartreedc">    -73.05870859 </i>
    <i name="XCdc">    -63.53557824 </i>
    <i name="pawpsdc">   2409.65567268 </i>
    <i name="pawaedc">  -2289.06242892 </i>
    <i name="eentropy">     -0.00528928 </i>
    <i name="bandstr">    -13.84425045 </i>
    <i name="atom">    718.02812073 </i>
    <i name="e_fr_energy">    -41.57231765 </i>
    <i name="e_wo_entrp">    -41.56702837 </i>
    <i name="e_0_energy">    -41.56967301 </i>
   </energy>
  </scstep>
  <structure>
   <crystal>
    <varray name="basis" >
     <v>       5.43784835       0.00000000       0.00000000 </v>
     <v>       0.00000000       5.43784835       0.00000000 </v>
     <v>       0.00000000       0.00000000       5.43784835 </v>
    </varray>
    <i name="volume">    160.79823434 </i>
    <varray name="rec_basis" >
     <v>       0.18389626       0.00000000       0.00000000 </v>
     <v>       0.00000000       0.18389626       0.00000000 </v>
     <v>       0.00000000       0.00000000       0.18389626 </v>
    </varray>
   </crystal>
   <varray name="positions" >
    <v>       0.24607912       0.75392088       0.24607912 </v>
    <v>       0.00000000       0.00000000       0.50000000 </v>
    <v>       0.24607912       0.24607912       0.75392088 </v>
    <v>       0.00000000       0.50000000       0.00000000 </v>
    <v>       0.75392088       0.75392088       0.75392088 </v>
    <v>       0.50000000       0.00000000       0.00000000 </v>
    <v>       0.75392088       0.24607912       0.24607912 </v>
   </varray>
  </structure>
  <varray name="forces" >
   <v>      -0.05522350       0.05522350      -0.05522350 </v>
   <v>       0.00000000      -0.00000000       0.00000000 </v>
   <v>      -0.05522350      -0.05522350       0.05522350 </v>
   <v>       0.00000000      -0.00000000       0.00000000 </v>
   <v>       0.05522350       0.05522350       0.05522350 </v>
   <v>       0.00000000      -0.00000000       0.00000000 </v>
   <v>       0.05522350      -0.05522350      -0.05522350 </v>
  </varray>
  <varray name="stress" >
   <v>    -111.01568207      -0.00000000      -0.00000000 </v>
   <v>       0.00000000    -111.01568207      -0.00000000 </v>
   <v>       0.00000000       0.00000000    -111.01568207 </v>
  </varray>
  <energy>
   <i name="e_fr_energy">    -41.57231765 </i>
   <i name="e_wo_entrp">    -41.56702837 </i>
   <i name="e_0_energy">    -41.56967301 </i>
  </energy>
  <time name="totalsc">   67.14   67.45</time>
  <eigenvalues>
   <array>
    <dimension dim="1">band</dimension>
    <dimension dim="2">kpoint</dimension>
    <dimension dim="3">spin</dimension>
    <field>eigene</field>
    <field>occ</field>
    <set>
     <set comment="spin 1">
      <set comment="kpoint 1">
       <r>   -6.9833    1.0000 </r>
       <r>   -3.2963    1.0000 </r>
       <r>   -3.2963    1.0000 </r>
       <r>   -2.9514    1.0000 </r>
       <r>   -2.9514    1.0000 </r>
       <r>   -2.9514    1.0000 </r>
       <r>    1.4712    1.0000 </r>
       <r>    1.7108    1.0000 </r>
       <r>    1.7108    1.0000 </r>
       <r>    1.7108    1.0000 </r>
       <r>    2.7898    1.0000 </r>
       <r>    2.7898    1.0000 </r>
       <r>    2.7898    1.0000 </r>
       <r>    5.7066    0.0000 </r>
       <r>    5.7066    0.0000 </r>
       <r>    5.7066    0.0000 </r>
       <r>    5.8707    0.0000 </r>
       <r>    5.8707    0.0000 </r>
       <r>    6.0944    0.0000 </r>
       <r>    6.1369    0.0000 </r>
       <r>    6.1369    0.0000 </r>
       <r>    6.1369    0.0000 </r>
       <r>    8.9036    0.0000 </r>
       <r>    8.9036    0.0000 </r>
       <r>    8.9036    0.0000 </r>
       <r>   10.5353    0.0000 </r>
       <r>   12.9342    0.0000 </r>
       <r>   12.9342    0.0000 </r>
       <r>   13.4257    0.0000 </r>
       <r>   14.7006    0.0000 </r>
       <r>   14.7006    0.0000 </r>
       <r>   14.7006    0.0000 </r>
       <r>   15.4770    0.0000 </r>
       <r>   15.4770    0.0000 </r>
       <r>   15.4770    0.0000 </r>
       <r>   15.5186    0.0000 </r>
       <r>   15.5186    0.0000 </r>
       <r>   15.5186    0.0000 </r>
       <r>   16.5124    0.0000 </r>
       <r>   16.5124    0.0000 </r>
       <r>   16.5124    0.0000 </r>
       <r>   17.0952    0.0000 </r>
       <r>   17.4622    0.0000 </r>
       <r>   17.4622    0.0000 </r>
       <r>   17.5316    0.0000 </r>
       <r>   17.5316    0.0000 </r>
       <r>   17.5316    0.0000 </r>
       <r>   18.4848    0.0000 </r>
       <r>   18.4848    0.0000 </r>
       <r>   18.4848    0.0000 </r>
       <r>   19.2255    0.0000 </r>
       <r>   19.4021    0.0000 </r>
       <r>   19.4021    0.0000 </r>
       <r>   20.3836    0.0000 </r>
       <r>   21.1168    0.0000 </r>
       <r>   21.1168    0.0000 </r>
       <r>   21.1168    0.0000 </r>
       <r>   23.5475    0.0000 </r>
       <r>   23.7911    0.0000 </r>
       <r>   23.7911    0.0000 </r>
       <r>   23.7911    0.0000 </r>
       <r>   24.6360    0.0000 </r>
       <r>   24.6360    0.0000 </r>
       <r>   24.6360    0.0000 </r>
       <r>   25.1294    0.0000 </r>
       <r>   25.1294    0.0000 </r>
       <r>   25.1294    0.0000 </r>
       <r>   25.1685    0.0000 </r>
       <r>   25.1685    0.0000 </r>
       <r>   25.1685    0.0000 </r>
       <r>   25.8379    0.0000 </r>
       <r>   25.8379    0.0000 </r>
       <r>   26.2301    0.0000 </r>
       <r>   26.2301    0.0000 </r>
       <r>   26.5758    0.0000 </r>
       <r>   26.5758    0.0000 </r>
       <r>   26.5758    0.0000 </r>
       <r>   27.4207    0.0000 </r>
       <r>   27.4207    0.0000 </r>
       <r>   27.4207    0.0000 </r>
       <r>   27.6819    0.0000 </r>
       <r>   28.2503    0.0000 </r>
       <r>   28.2503    0.0000 </r>
       <r>   28.2503    0.0000 </r>
       <r>   29.3335    0.0000 </r>
       <r>   29.3335    0.0000 </r>
       <r>   30.9763    0.0000 </r>
       <r>   31.5843    0.0000 </r>
       <r>   31.5843    0.0000 </r>
       <r>   31.5843    0.0000 </r>
       <r>   32.8916    0.0000 </r>
       <r>   32.8916    0.0000 </r>
       <r>   33.4532    0.0000 </r>
       <r>   33.4532    0.0000 </r>
       <r>   33.4532    0.0000 </r>
       <r>   33.7509    0.0000 </r>
       <r>   33.7509    0.0000 </r>
       <r>   33.7509    0.0000 </r>
       <r>   35.8471    0.0000 </r>
       <r>   35.8471    0.0000 </r>
       <r>   35.8471    0.0000 </r>
       <r>   37.2792    0.0000 </r>
       <r>   37.2792    0.0000 </r>
       <r>   37.2792    0.0000 </r>
       <r>   39.1566    0.0000 </r>
       <r>   39.1566    0.0000 </r>
       <r>   39.1566    0.0000 </r>
       <r>   39.1591    0.0000 </r>
       <r>   39.1591    0.0000 </r>
       <r>   39.1591    0.0000 </r>
       <r>   39.1784    0.0000 </r>
       <r>   39.1784    0.0000 </r>
       <r>   39.5125    0.0000 </r>
       <r>   40.5014    0.0000 </r>
       <r>   40.5100    0.0000 </r>
       <r>   40.5100    0.0000 </r>
       <r>   40.5100    0.0000 </r>
       <r>   40.9328    0.0000 </r>
       <r>   40.9328    0.0000 </r>
       <r>   40.9328    0.0000 </r>
       <r>   42.2231    0.0000 </r>
       <r>   42.2231    0.0000 </r>
       <r>   42.3392    0.0000 </r>
       <r>   42.3392    0.0000 </r>
       <r>   42.3392    0.0000 </r>
       <r>   42.6883    0.0000 </r>
       <r>   42.9517    0.0000 </r>
       <r>   43.2450    0.0000 </r>
       <r>   43.2450    0.0000 </r>
       <r>   43.2450    0.0000 </r>
       <r>   43.2784    0.0000 </r>
       <r>   43.2784    0.0000 </r>
       <r>   44.3578    0.0000 </r>
       <r>   44.3578    0.0000 </r>
       <r>   44.3578    0.0000 </r>
       <r>   45.0247    0.0000 </r>
       <r>   45.0256    0.0000 </r>
       <r>   45.2928    0.0000 </r>
       <r>   45.2928    0.0000 </r>
       <r>   45.2928    0.0000 </r>
       <r>   45.6033    0.0000 </r>
       <r>   45.6033    0.0000 </r>
       <r>   45.6033    0.0000 </r>
       <r>   46.2398    0.0000 </r>
      </set>
      <set comment="kpoint 2">
       <r>   -6.7446    1.0000 </r>
       <r>   -4.6320    1.0000 </r>
       <r>   -3.2324    1.0000 </r>
       <r>   -2.8869    1.0000 </r>
       <r>   -2.8869    1.0000 </r>
       <r>   -1.5341    1.0000 </r>
       <r>    1.2591    1.0000 </r>
       <r>    1.4526    1.0000 </r>
       <r>    1.4526    1.0000 </r>
       <r>    1.6714    1.0000 </r>
       <r>    2.1321    1.0000 </r>
       <r>    2.6295    1.0000 </r>
       <r>    2.6295    1.0000 </r>
       <r>    5.0068    0.0000 </r>
       <r>    5.4559    0.0000 </r>
       <r>    5.4559    0.0000 </r>
       <r>    5.8121    0.0000 </r>
       <r>    6.4394    0.0000 </r>
       <r>    7.0165    0.0000 </r>
       <r>    7.0165    0.0000 </r>
       <r>    7.0192    0.0000 </r>
       <r>    7.3809    0.0000 </r>
       <r>    8.5208    0.0000 </r>
       <r>    9.8623    0.0000 </r>
       <r>    9.8623    0.0000 </r>
       <r>   10.9016    0.0000 </r>
       <r>   12.1312    0.0000 </r>
       <r>   12.4219    0.0000 </r>
       <r>   12.4219    0.0000 </r>
       <r>   12.5825    0.0000 </r>
       <r>   13.2369    0.0000 </r>
       <r>   13.6064    0.0000 </r>
       <r>   14.5226    0.0000 </r>
       <r>   14.5553    0.0000 </r>
       <r>   14.5553    0.0000 </r>
       <r>   14.9667    0.0000 </r>
       <r>   15.8853    0.0000 </r>
       <r>   15.8853    0.0000 </r>
       <r>   16.0740    0.0000 </r>
       <r>   16.8738    0.0000 </r>
       <r>   16.9236    0.0000 </r>
       <r>   16.9236    0.0000 </r>
       <r>   17.1134    0.0000 </r>
       <r>   17.5177    0.0000 </r>
       <r>   17.9250    0.0000 </r>
       <r>   18.4438    0.0000 </r>
       <r>   18.4438    0.0000 </r>
       <r>   19.1484    0.0000 </r>
       <r>   19.1484    0.0000 </r>
       <r>   19.5034    0.0000 </r>
       <r>   19.8798    0.0000 </r>
       <r>   20.0823    0.0000 </r>
       <r>   20.8815    0.0000 </r>
       <r>   21.2236    0.0000 </r>
       <r>   21.5272    0.0000 </r>
       <r>   21.5272    0.0000 </r>
       <r>   21.6694    0.0000 </r>
       <r>   22.2999    0.0000 </r>
       <r>   22.4546    0.0000 </r>
       <r>   22.4546    0.0000 </r>
       <r>   23.0603    0.0000 </r>
       <r>   23.4669    0.0000 </r>
       <r>   23.4669    0.0000 </r>
       <r>   23.8243    0.0000 </r>
       <r>   24.2306    0.0000 </r>
       <r>   24.5183    0.0000 </r>
       <r>   24.5971    0.0000 </r>
       <r>   24.5971    0.0000 </r>
       <r>   25.1774    0.0000 </r>
       <r>   25.7039    0.0000 </r>
       <r>   25.7039    0.0000 </r>
       <r>   26.3657    0.0000 </r>
       <r>   26.9528    0.0000 </r>
       <r>   27.2510    0.0000 </r>
       <r>   27.2510    0.0000 </r>
       <r>   27.8020    0.0000 </r>
       <r>   28.0481    0.0000 </r>
       <r>   28.1975    0.0000 </r>
       <r>   28.5969    0.0000 </r>
       <r>   28.6852    0.0000 </r>
       <r>   28.7639    0.0000 </r>
       <r>   28.7639    0.0000 </r>
       <r>   29.4069    0.0000 </r>
       <r>   29.6827    0.0000 </r>
       <r>   29.6827    0.0000 </r>
       <r>   30.0790    0.0000 </r>
       <r>   30.4746    0.0000 </r>
       <r>   30.8680    0.0000 </r>
       <r>   31.3830    0.0000 </r>
       <r>   31.4371    0.0000 </r>
       <r>   31.4371    0.0000 </r>
       <r>   32.7690    0.0000 </r>
       <r>   32.7690    0.0000 </r>
       <r>   32.8704    0.0000 </r>
       <r>   34.1061    0.0000 </r>
       <r>   34.8485    0.0000 </r>
       <r>   34.8485    0.0000 </r>
       <r>   34.8741    0.0000 </r>
       <r>   35.2559    0.0000 </r>
       <r>   36.0694    0.0000 </r>
       <r>   36.0694    0.0000 </r>
       <r>   36.6480    0.0000 </r>
       <r>   36.6480    0.0000 </r>
       <r>   36.9059    0.0000 </r>
       <r>   37.0058    0.0000 </r>
       <r>   37.2581    0.0000 </r>
       <r>   37.4964    0.0000 </r>
       <r>   37.5601    0.0000 </r>
       <r>   37.5601    0.0000 </r>
       <r>   38.3807    0.0000 </r>
       <r>   38.3807    0.0000 </r>
       <r>   38.5263    0.0000 </r>
       <r>   38.7068    0.0000 </r>
       <r>   40.0213    0.0000 </r>
       <r>   40.0240    0.0000 </r>
       <r>   40.0240    0.0000 </r>
       <r>   40.6109    0.0000 </r>
       <r>   40.6871    0.0000 </r>
       <r>   40.6871    0.0000 </r>
       <r>   40.7970    0.0000 </r>
       <r>   41.0090    0.0000 </r>
       <r>   41.7692    0.0000 </r>
       <r>   42.0720    0.0000 </r>
       <r>   42.2189    0.0000 </r>
       <r>   42.4662    0.0000 </r>
       <r>   42.4662    0.0000 </r>
       <r>   42.8485    0.0000 </r>
       <r>   43.4430    0.0000 </r>
       <r>   43.4430    0.0000 </r>
       <r>   43.6544    0.0000 </r>
       <r>   44.3924    0.0000 </r>
       <r>   44.4331    0.0000 </r>
       <r>   44.6197    0.0000 </r>
       <r>   44.7566    0.0000 </r>
       <r>   44.7566    0.0000 </r>
       <r>   44.9422    0.0000 </r>
       <r>   45.1041    0.0000 </r>
       <r>   45.1041    0.0000 </r>
       <r>   45.2176    0.0000 </r>
       <r>   45.3889    0.0000 </r>
       <r>   45.7503    0.0000 </r>
       <r>   45.7503    0.0000 </r>
       <r>   46.2049    0.0000 </r>
       <r>   46.2096    0.0000 </r>
      </set>
      <set comment="kpoint 3">
       <r>   -6.2805    1.0000 </r>
       <r>   -5.5384    1.0000 </r>
       <r>   -3.1635    1.0000 </r>
       <r>   -2.8172    1.0000 </r>
       <r>   -2.8172    1.0000 </r>
       <r>   -0.4768    1.0000 </r>
       <r>    0.7592    1.0000 </r>
       <r>    0.8912    1.0000 </r>
       <r>    1.1540    1.0000 </r>
       <r>    1.1540    1.0000 </r>
       <r>    2.6547    1.0000 </r>
       <r>    2.6547    1.0000 </r>
       <r>    3.0061    1.0000 </r>
       <r>    3.7035    1.0000 </r>
       <r>    5.0141    0.0000 </r>
       <r>    5.0141    0.0000 </r>
       <r>    6.1858    0.0000 </r>
       <r>    6.5695    0.0000 </r>
       <r>    8.1662    0.0000 </r>
       <r>    9.1540    0.0000 </r>
       <r>    9.1540    0.0000 </r>
       <r>    9.1740    0.0000 </r>
       <r>    9.3901    0.0000 </r>
       <r>    9.6962    0.0000 </r>
       <r>    9.7765    0.0000 </r>
       <r>    9.7765    0.0000 </r>
       <r>   10.5450    0.0000 </r>
       <r>   10.6021    0.0000 </r>
       <r>   11.2174    0.0000 </r>
       <r>   11.2174    0.0000 </r>
       <r>   13.1608    0.0000 </r>
       <r>   13.1608    0.0000 </r>
       <r>   13.5393    0.0000 </r>
       <r>   14.1869    0.0000 </r>
       <r>   14.7935    0.0000 </r>
       <r>   14.8813    0.0000 </r>
       <r>   15.3045    0.0000 </r>
       <r>   15.8612    0.0000 </r>
       <r>   15.8612    0.0000 </r>
       <r>   16.4396    0.0000 </r>
       <r>   16.9025    0.0000 </r>
       <r>   17.5298    0.0000 </r>
       <r>   17.6541    0.0000 </r>
       <r>   17.6541    0.0000 </r>
       <r>   18.3746    0.0000 </r>
       <r>   18.3803    0.0000 </r>
       <r>   18.7496    0.0000 </r>
       <r>   18.7496    0.0000 </r>
       <r>   19.5746    0.0000 </r>
       <r>   19.7374    0.0000 </r>
       <r>   19.7374    0.0000 </r>
       <r>   20.6380    0.0000 </r>
       <r>   21.5613    0.0000 </r>
       <r>   21.5613    0.0000 </r>
       <r>   21.5855    0.0000 </r>
       <r>   21.7846    0.0000 </r>
       <r>   22.4197    0.0000 </r>
       <r>   22.4197    0.0000 </r>
       <r>   22.5821    0.0000 </r>
       <r>   22.5821    0.0000 </r>
       <r>   23.0254    0.0000 </r>
       <r>   23.1097    0.0000 </r>
       <r>   23.6256    0.0000 </r>
       <r>   23.6256    0.0000 </r>
       <r>   23.8980    0.0000 </r>
       <r>   24.0273    0.0000 </r>
       <r>   24.2078    0.0000 </r>
       <r>   24.7126    0.0000 </r>
       <r>   24.8353    0.0000 </r>
       <r>   25.6673    0.0000 </r>
       <r>   26.3928    0.0000 </r>
       <r>   26.3928    0.0000 </r>
       <r>   26.5853    0.0000 </r>
       <r>   26.7882    0.0000 </r>
       <r>   27.0466    0.0000 </r>
       <r>   27.0466    0.0000 </r>
       <r>   27.3280    0.0000 </r>
       <r>   27.4340    0.0000 </r>
       <r>   29.5175    0.0000 </r>
       <r>   29.5768    0.0000 </r>
       <r>   29.9698    0.0000 </r>
       <r>   29.9698    0.0000 </r>
       <r>   30.2291    0.0000 </r>
       <r>   31.4220    0.0000 </r>
       <r>   31.7571    0.0000 </r>
       <r>   31.7865    0.0000 </r>
       <r>   31.7865    0.0000 </r>
       <r>   32.0559    0.0000 </r>
       <r>   32.2731    0.0000 </r>
       <r>   32.5735    0.0000 </r>
       <r>   32.5735    0.0000 </r>
       <r>   32.6494    0.0000 </r>
       <r>   32.6498    0.0000 </r>
       <r>   32.6498    0.0000 </r>
       <r>   33.8534    0.0000 </r>
       <r>   34.0896    0.0000 </r>
       <r>   34.2021    0.0000 </r>
       <r>   34.2021    0.0000 </r>
       <r>   34.3986    0.0000 </r>
       <r>   34.6586    0.0000 </r>
       <r>   34.7665    0.0000 </r>
       <r>   34.7665    0.0000 </r>
       <r>   34.9901    0.0000 </r>
       <r>   35.5081    0.0000 </r>
       <r>   35.5081    0.0000 </r>
       <r>   35.9045    0.0000 </r>
       <r>   36.3063    0.0000 </r>
       <r>   36.3063    0.0000 </r>
       <r>   36.6787    0.0000 </r>
       <r>   38.0630    0.0000 </r>
       <r>   38.3899    0.0000 </r>
       <r>   38.3899    0.0000 </r>
       <r>   38.8711    0.0000 </r>
       <r>   39.8420    0.0000 </r>
       <r>   40.0345    0.0000 </r>
       <r>   40.3188    0.0000 </r>
       <r>   40.5692    0.0000 </r>
       <r>   40.5692    0.0000 </r>
       <r>   40.5896    0.0000 </r>
       <r>   41.5899    0.0000 </r>
       <r>   41.5899    0.0000 </r>
       <r>   41.6021    0.0000 </r>
       <r>   41.7596    0.0000 </r>
       <r>   41.9940    0.0000 </r>
       <r>   41.9940    0.0000 </r>
       <r>   42.2637    0.0000 </r>
       <r>   42.7078    0.0000 </r>
       <r>   42.7078    0.0000 </r>
       <r>   42.8541    0.0000 </r>
       <r>   42.8601    0.0000 </r>
       <r>   43.3792    0.0000 </r>
       <r>   43.3792    0.0000 </r>
       <r>   44.4552    0.0000 </r>
       <r>   44.8290    0.0000 </r>
       <r>   44.8743    0.0000 </r>
       <r>   44.8743    0.0000 </r>
       <r>   45.2294    0.0000 </r>
       <r>   45.2861    0.0000 </r>
       <r>   45.2861    0.0000 </r>
       <r>   45.5682    0.0000 </r>
       <r>   45.5998    0.0000 </r>
       <r>   45.8903    0.0000 </r>
       <r>   46.7044    0.0000 </r>
       <r>   46.8062    0.0000 </r>
      </set>
      <set comment="kpoint 4">
       <r>   -6.5089    1.0000 </r>
       <r>   -4.7019    1.0000 </r>
       <r>   -4.2270    1.0000 </r>
       <r>   -2.9513    1.0000 </r>
       <r>   -2.0357    1.0000 </r>
       <r>   -1.1680    1.0000 </r>
       <r>    0.5072    1.0000 </r>
       <r>    1.3262    1.0000 </r>
       <r>    1.5045    1.0000 </r>
       <r>    1.8499    1.0000 </r>
       <r>    1.8504    1.0000 </r>
       <r>    2.7898    1.0000 </r>
       <r>    2.8594    1.0000 </r>
       <r>    4.1815    0.5000 </r>
       <r>    4.9341    0.0000 </r>
       <r>    5.8357    0.0000 </r>
       <r>    6.2694    0.0000 </r>
       <r>    6.8492    0.0000 </r>
       <r>    7.2161    0.0000 </r>
       <r>    7.5538    0.0000 </r>
       <r>    7.5592    0.0000 </r>
       <r>    9.0472    0.0000 </r>
       <r>    9.4720    0.0000 </r>
       <r>    9.5357    0.0000 </r>
       <r>    9.7311    0.0000 </r>
       <r>   10.2842    0.0000 </r>
       <r>   11.6053    0.0000 </r>
       <r>   11.6174    0.0000 </r>
       <r>   12.2199    0.0000 </r>
       <r>   12.3713    0.0000 </r>
       <r>   12.6559    0.0000 </r>
       <r>   13.2414    0.0000 </r>
       <r>   13.2714    0.0000 </r>
       <r>   14.1516    0.0000 </r>
       <r>   14.3840    0.0000 </r>
       <r>   14.9868    0.0000 </r>
       <r>   15.0989    0.0000 </r>
       <r>   15.4854    0.0000 </r>
       <r>   15.9802    0.0000 </r>
       <r>   16.3491    0.0000 </r>
       <r>   16.5143    0.0000 </r>
       <r>   16.7593    0.0000 </r>
       <r>   17.7118    0.0000 </r>
       <r>   18.1945    0.0000 </r>
       <r>   18.6148    0.0000 </r>
       <r>   18.8465    0.0000 </r>
       <r>   18.8957    0.0000 </r>
       <r>   19.2918    0.0000 </r>
       <r>   19.5570    0.0000 </r>
       <r>   19.6301    0.0000 </r>
       <r>   19.9461    0.0000 </r>
       <r>   20.0459    0.0000 </r>
       <r>   20.3680    0.0000 </r>
       <r>   21.0252    0.0000 </r>
       <r>   21.3339    0.0000 </r>
       <r>   21.5089    0.0000 </r>
       <r>   21.6634    0.0000 </r>
       <r>   22.4465    0.0000 </r>
       <r>   22.5517    0.0000 </r>
       <r>   22.8526    0.0000 </r>
       <r>   22.9213    0.0000 </r>
       <r>   23.1790    0.0000 </r>
       <r>   23.4312    0.0000 </r>
       <r>   23.9380    0.0000 </r>
       <r>   24.4916    0.0000 </r>
       <r>   24.8769    0.0000 </r>
       <r>   25.1579    0.0000 </r>
       <r>   25.1868    0.0000 </r>
       <r>   25.9572    0.0000 </r>
       <r>   25.9772    0.0000 </r>
       <r>   26.4023    0.0000 </r>
       <r>   26.5147    0.0000 </r>
       <r>   26.6448    0.0000 </r>
       <r>   27.0719    0.0000 </r>
       <r>   27.2865    0.0000 </r>
       <r>   27.5266    0.0000 </r>
       <r>   27.5816    0.0000 </r>
       <r>   27.9250    0.0000 </r>
       <r>   28.4567    0.0000 </r>
       <r>   28.6742    0.0000 </r>
       <r>   28.8602    0.0000 </r>
       <r>   29.2350    0.0000 </r>
       <r>   29.4083    0.0000 </r>
       <r>   30.0368    0.0000 </r>
       <r>   30.4087    0.0000 </r>
       <r>   30.7778    0.0000 </r>
       <r>   31.0907    0.0000 </r>
       <r>   31.1687    0.0000 </r>
       <r>   32.1948    0.0000 </r>
       <r>   32.3426    0.0000 </r>
       <r>   32.6274    0.0000 </r>
       <r>   33.0267    0.0000 </r>
       <r>   33.1529    0.0000 </r>
       <r>   33.2252    0.0000 </r>
       <r>   33.5868    0.0000 </r>
       <r>   33.7321    0.0000 </r>
       <r>   34.5093    0.0000 </r>
       <r>   34.6068    0.0000 </r>
       <r>   34.7712    0.0000 </r>
       <r>   35.3331    0.0000 </r>
       <r>   35.5774    0.0000 </r>
       <r>   35.5921    0.0000 </r>
       <r>   36.1346    0.0000 </r>
       <r>   36.6375    0.0000 </r>
       <r>   36.9291    0.0000 </r>
       <r>   37.1730    0.0000 </r>
       <r>   37.4291    0.0000 </r>
       <r>   37.6308    0.0000 </r>
       <r>   37.8545    0.0000 </r>
       <r>   38.0125    0.0000 </r>
       <r>   38.2209    0.0000 </r>
       <r>   38.2830    0.0000 </r>
       <r>   38.6772    0.0000 </r>
       <r>   38.7653    0.0000 </r>
       <r>   39.2035    0.0000 </r>
       <r>   39.3132    0.0000 </r>
       <r>   39.6419    0.0000 </r>
       <r>   39.6673    0.0000 </r>
       <r>   40.1523    0.0000 </r>
       <r>   40.1831    0.0000 </r>
       <r>   40.7338    0.0000 </r>
       <r>   41.1026    0.0000 </r>
       <r>   41.3832    0.0000 </r>
       <r>   42.2478    0.0000 </r>
       <r>   42.3934    0.0000 </r>
       <r>   42.3948    0.0000 </r>
       <r>   42.6417    0.0000 </r>
       <r>   43.0912    0.0000 </r>
       <r>   43.2355    0.0000 </r>
       <r>   43.3949    0.0000 </r>
       <r>   43.5095    0.0000 </r>
       <r>   43.5908    0.0000 </r>
       <r>   44.2712    0.0000 </r>
       <r>   44.2905    0.0000 </r>
       <r>   44.6706    0.0000 </r>
       <r>   44.9553    0.0000 </r>
       <r>   44.9800    0.0000 </r>
       <r>   45.1534    0.0000 </r>
       <r>   45.1989    0.0000 </r>
       <r>   46.0449    0.0000 </r>
       <r>   46.0600    0.0000 </r>
       <r>   46.2320    0.0000 </r>
       <r>   46.4884    0.0000 </r>
       <r>   46.8415    0.0000 </r>
      </set>
      <set comment="kpoint 5">
       <r>   -6.0378    1.0000 </r>
       <r>   -5.4104    1.0000 </r>
       <r>   -4.2531    1.0000 </r>
       <r>   -3.0623    1.0000 </r>
       <r>   -1.7767    1.0000 </r>
       <r>   -0.6324    1.0000 </r>
       <r>    0.2506    1.0000 </r>
       <r>    0.6180    1.0000 </r>
       <r>    1.4941    1.0000 </r>
       <r>    1.7334    1.0000 </r>
       <r>    2.4419    1.0000 </r>
       <r>    2.4839    1.0000 </r>
       <r>    3.0145    1.0000 </r>
       <r>    3.7344    1.0000 </r>
       <r>    5.0247    0.0000 </r>
       <r>    5.1021    0.0000 </r>
       <r>    7.3437    0.0000 </r>
       <r>    7.7418    0.0000 </r>
       <r>    7.7817    0.0000 </r>
       <r>    7.8271    0.0000 </r>
       <r>    9.0518    0.0000 </r>
       <r>    9.3840    0.0000 </r>
       <r>    9.4615    0.0000 </r>
       <r>    9.8839    0.0000 </r>
       <r>    9.9693    0.0000 </r>
       <r>   10.1284    0.0000 </r>
       <r>   10.3863    0.0000 </r>
       <r>   10.7891    0.0000 </r>
       <r>   11.6792    0.0000 </r>
       <r>   11.9405    0.0000 </r>
       <r>   12.4631    0.0000 </r>
       <r>   12.5284    0.0000 </r>
       <r>   13.1017    0.0000 </r>
       <r>   13.1826    0.0000 </r>
       <r>   13.5198    0.0000 </r>
       <r>   14.2651    0.0000 </r>
       <r>   15.4400    0.0000 </r>
       <r>   15.5851    0.0000 </r>
       <r>   15.8762    0.0000 </r>
       <r>   16.4136    0.0000 </r>
       <r>   16.8149    0.0000 </r>
       <r>   17.0063    0.0000 </r>
       <r>   17.3782    0.0000 </r>
       <r>   17.8589    0.0000 </r>
       <r>   18.8258    0.0000 </r>
       <r>   18.9162    0.0000 </r>
       <r>   19.0927    0.0000 </r>
       <r>   19.3697    0.0000 </r>
       <r>   19.6173    0.0000 </r>
       <r>   19.8598    0.0000 </r>
       <r>   20.0702    0.0000 </r>
       <r>   20.3368    0.0000 </r>
       <r>   20.3978    0.0000 </r>
       <r>   20.5940    0.0000 </r>
       <r>   21.0849    0.0000 </r>
       <r>   21.4410    0.0000 </r>
       <r>   22.1563    0.0000 </r>
       <r>   22.3163    0.0000 </r>
       <r>   22.4946    0.0000 </r>
       <r>   22.9870    0.0000 </r>
       <r>   23.0167    0.0000 </r>
       <r>   23.7306    0.0000 </r>
       <r>   23.8665    0.0000 </r>
       <r>   23.9012    0.0000 </r>
       <r>   24.7721    0.0000 </r>
       <r>   24.9160    0.0000 </r>
       <r>   25.1718    0.0000 </r>
       <r>   25.6722    0.0000 </r>
       <r>   25.6964    0.0000 </r>
       <r>   26.0309    0.0000 </r>
       <r>   26.1724    0.0000 </r>
       <r>   26.7269    0.0000 </r>
       <r>   27.2880    0.0000 </r>
       <r>   27.3086    0.0000 </r>
       <r>   27.3676    0.0000 </r>
       <r>   27.5768    0.0000 </r>
       <r>   27.9649    0.0000 </r>
       <r>   28.3955    0.0000 </r>
       <r>   28.8042    0.0000 </r>
       <r>   29.1582    0.0000 </r>
       <r>   29.1630    0.0000 </r>
       <r>   29.7201    0.0000 </r>
       <r>   29.7461    0.0000 </r>
       <r>   30.3988    0.0000 </r>
       <r>   30.8830    0.0000 </r>
       <r>   31.2368    0.0000 </r>
       <r>   31.6679    0.0000 </r>
       <r>   31.7146    0.0000 </r>
       <r>   32.3090    0.0000 </r>
       <r>   32.3774    0.0000 </r>
       <r>   32.4912    0.0000 </r>
       <r>   32.9763    0.0000 </r>
       <r>   32.9776    0.0000 </r>
       <r>   33.1981    0.0000 </r>
       <r>   33.5500    0.0000 </r>
       <r>   33.9367    0.0000 </r>
       <r>   34.0023    0.0000 </r>
       <r>   34.3887    0.0000 </r>
       <r>   34.6988    0.0000 </r>
       <r>   34.8928    0.0000 </r>
       <r>   35.0844    0.0000 </r>
       <r>   35.1427    0.0000 </r>
       <r>   35.6973    0.0000 </r>
       <r>   36.2083    0.0000 </r>
       <r>   36.2871    0.0000 </r>
       <r>   36.3981    0.0000 </r>
       <r>   36.5065    0.0000 </r>
       <r>   36.9429    0.0000 </r>
       <r>   37.3099    0.0000 </r>
       <r>   37.4652    0.0000 </r>
       <r>   37.7074    0.0000 </r>
       <r>   38.2551    0.0000 </r>
       <r>   38.3804    0.0000 </r>
       <r>   38.6051    0.0000 </r>
       <r>   38.9827    0.0000 </r>
       <r>   39.2194    0.0000 </r>
       <r>   39.3675    0.0000 </r>
       <r>   39.5430    0.0000 </r>
       <r>   40.3633    0.0000 </r>
       <r>   40.4073    0.0000 </r>
       <r>   40.5199    0.0000 </r>
       <r>   40.8400    0.0000 </r>
       <r>   41.0721    0.0000 </r>
       <r>   41.7285    0.0000 </r>
       <r>   41.8180    0.0000 </r>
       <r>   42.0587    0.0000 </r>
       <r>   42.1408    0.0000 </r>
       <r>   42.8161    0.0000 </r>
       <r>   42.8957    0.0000 </r>
       <r>   43.2296    0.0000 </r>
       <r>   43.3161    0.0000 </r>
       <r>   43.6116    0.0000 </r>
       <r>   43.9887    0.0000 </r>
       <r>   44.0739    0.0000 </r>
       <r>   44.3403    0.0000 </r>
       <r>   44.8820    0.0000 </r>
       <r>   45.1321    0.0000 </r>
       <r>   45.2552    0.0000 </r>
       <r>   45.5320    0.0000 </r>
       <r>   45.7214    0.0000 </r>
       <r>   45.7594    0.0000 </r>
       <r>   46.1395    0.0000 </r>
       <r>   46.3601    0.0000 </r>
       <r>   46.5645    0.0000 </r>
      </set>
      <set comment="kpoint 6">
       <r>   -5.4057    1.0000 </r>
       <r>   -5.2516    1.0000 </r>
       <r>   -5.2516    1.0000 </r>
       <r>   -3.3565    1.0000 </r>
       <r>   -0.6999    1.0000 </r>
       <r>   -0.6240    1.0000 </r>
       <r>   -0.6240    1.0000 </r>
       <r>    0.5857    1.0000 </r>
       <r>    1.3244    1.0000 </r>
       <r>    1.3244    1.0000 </r>
       <r>    2.6892    1.0000 </r>
       <r>    3.0459    1.0000 </r>
       <r>    3.3196    1.0000 </r>
       <r>    3.3782    1.0000 </r>
       <r>    5.4765    0.0000 </r>
       <r>    5.4765    0.0000 </r>
       <r>    7.0176    0.0000 </r>
       <r>    7.0176    0.0000 </r>
       <r>    8.6171    0.0000 </r>
       <r>    8.7469    0.0000 </r>
       <r>    9.4278    0.0000 </r>
       <r>    9.5263    0.0000 </r>
       <r>    9.7507    0.0000 </r>
       <r>    9.7507    0.0000 </r>
       <r>   10.0147    0.0000 </r>
       <r>   10.3056    0.0000 </r>
       <r>   10.3056    0.0000 </r>
       <r>   10.3946    0.0000 </r>
       <r>   11.1900    0.0000 </r>
       <r>   11.9130    0.0000 </r>
       <r>   11.9130    0.0000 </r>
       <r>   12.9180    0.0000 </r>
       <r>   12.9180    0.0000 </r>
       <r>   13.0782    0.0000 </r>
       <r>   13.1167    0.0000 </r>
       <r>   13.1562    0.0000 </r>
       <r>   14.4953    0.0000 </r>
       <r>   15.5939    0.0000 </r>
       <r>   15.5939    0.0000 </r>
       <r>   15.7092    0.0000 </r>
       <r>   17.1667    0.0000 </r>
       <r>   17.7379    0.0000 </r>
       <r>   17.7379    0.0000 </r>
       <r>   17.9291    0.0000 </r>
       <r>   18.3917    0.0000 </r>
       <r>   18.3917    0.0000 </r>
       <r>   18.5826    0.0000 </r>
       <r>   19.1513    0.0000 </r>
       <r>   19.2881    0.0000 </r>
       <r>   19.2881    0.0000 </r>
       <r>   19.5541    0.0000 </r>
       <r>   20.8679    0.0000 </r>
       <r>   21.6132    0.0000 </r>
       <r>   21.6906    0.0000 </r>
       <r>   21.6906    0.0000 </r>
       <r>   21.9069    0.0000 </r>
       <r>   22.1219    0.0000 </r>
       <r>   22.1219    0.0000 </r>
       <r>   22.1802    0.0000 </r>
       <r>   22.1900    0.0000 </r>
       <r>   23.2668    0.0000 </r>
       <r>   23.4739    0.0000 </r>
       <r>   23.5761    0.0000 </r>
       <r>   23.5761    0.0000 </r>
       <r>   24.7203    0.0000 </r>
       <r>   25.4055    0.0000 </r>
       <r>   26.1531    0.0000 </r>
       <r>   26.1531    0.0000 </r>
       <r>   26.4432    0.0000 </r>
       <r>   26.4432    0.0000 </r>
       <r>   26.6707    0.0000 </r>
       <r>   27.2403    0.0000 </r>
       <r>   27.2479    0.0000 </r>
       <r>   27.2479    0.0000 </r>
       <r>   27.7326    0.0000 </r>
       <r>   27.9975    0.0000 </r>
       <r>   29.0570    0.0000 </r>
       <r>   29.3815    0.0000 </r>
       <r>   29.3815    0.0000 </r>
       <r>   29.7575    0.0000 </r>
       <r>   29.9040    0.0000 </r>
       <r>   29.9040    0.0000 </r>
       <r>   30.1344    0.0000 </r>
       <r>   30.8096    0.0000 </r>
       <r>   31.2139    0.0000 </r>
       <r>   31.2274    0.0000 </r>
       <r>   31.5610    0.0000 </r>
       <r>   31.5610    0.0000 </r>
       <r>   31.8699    0.0000 </r>
       <r>   31.9984    0.0000 </r>
       <r>   32.1170    0.0000 </r>
       <r>   32.1170    0.0000 </r>
       <r>   32.7528    0.0000 </r>
       <r>   32.7528    0.0000 </r>
       <r>   32.7647    0.0000 </r>
       <r>   32.9421    0.0000 </r>
       <r>   32.9421    0.0000 </r>
       <r>   33.6178    0.0000 </r>
       <r>   33.8369    0.0000 </r>
       <r>   33.8607    0.0000 </r>
       <r>   34.5091    0.0000 </r>
       <r>   34.7039    0.0000 </r>
       <r>   35.6687    0.0000 </r>
       <r>   35.8910    0.0000 </r>
       <r>   35.8910    0.0000 </r>
       <r>   36.1007    0.0000 </r>
       <r>   36.5974    0.0000 </r>
       <r>   36.5974    0.0000 </r>
       <r>   37.5772    0.0000 </r>
       <r>   37.5772    0.0000 </r>
       <r>   37.7411    0.0000 </r>
       <r>   38.9342    0.0000 </r>
       <r>   38.9914    0.0000 </r>
       <r>   38.9914    0.0000 </r>
       <r>   39.3855    0.0000 </r>
       <r>   40.3674    0.0000 </r>
       <r>   40.3866    0.0000 </r>
       <r>   40.8213    0.0000 </r>
       <r>   40.8213    0.0000 </r>
       <r>   40.9988    0.0000 </r>
       <r>   41.0058    0.0000 </r>
       <r>   41.2012    0.0000 </r>
       <r>   41.4913    0.0000 </r>
       <r>   41.9166    0.0000 </r>
       <r>   41.9166    0.0000 </r>
       <r>   42.1501    0.0000 </r>
       <r>   42.2567    0.0000 </r>
       <r>   42.6022    0.0000 </r>
       <r>   42.8298    0.0000 </r>
       <r>   42.8298    0.0000 </r>
       <r>   43.0230    0.0000 </r>
       <r>   43.0230    0.0000 </r>
       <r>   43.0880    0.0000 </r>
       <r>   43.2799    0.0000 </r>
       <r>   43.2799    0.0000 </r>
       <r>   43.5244    0.0000 </r>
       <r>   43.7916    0.0000 </r>
       <r>   44.0881    0.0000 </r>
       <r>   44.0881    0.0000 </r>
       <r>   44.3906    0.0000 </r>
       <r>   44.5428    0.0000 </r>
       <r>   44.5428    0.0000 </r>
       <r>   44.9619    0.0000 </r>
       <r>   45.4744    0.0000 </r>
      </set>
      <set comment="kpoint 7">
       <r>   -6.2800    1.0000 </r>
       <r>   -4.6077    1.0000 </r>
       <r>   -4.6077    1.0000 </r>
       <r>   -3.2841    1.0000 </r>
       <r>   -1.4714    1.0000 </r>
       <r>   -1.4714    1.0000 </r>
       <r>    0.0806    1.0000 </r>
       <r>    1.1800    1.0000 </r>
       <r>    1.1800    1.0000 </r>
       <r>    2.3483    1.0000 </r>
       <r>    2.3596    1.0000 </r>
       <r>    2.9847    1.0000 </r>
       <r>    2.9847    1.0000 </r>
       <r>    3.7975    1.0000 </r>
       <r>    5.6235    0.0000 </r>
       <r>    5.6235    0.0000 </r>
       <r>    6.3207    0.0000 </r>
       <r>    6.5929    0.0000 </r>
       <r>    6.5929    0.0000 </r>
       <r>    8.8092    0.0000 </r>
       <r>    8.8092    0.0000 </r>
       <r>    8.8551    0.0000 </r>
       <r>    9.8749    0.0000 </r>
       <r>    9.9277    0.0000 </r>
       <r>    9.9277    0.0000 </r>
       <r>   10.3457    0.0000 </r>
       <r>   10.3457    0.0000 </r>
       <r>   10.4225    0.0000 </r>
       <r>   11.8529    0.0000 </r>
       <r>   11.8529    0.0000 </r>
       <r>   12.7375    0.0000 </r>
       <r>   13.2264    0.0000 </r>
       <r>   13.2264    0.0000 </r>
       <r>   14.0350    0.0000 </r>
       <r>   14.2141    0.0000 </r>
       <r>   15.2636    0.0000 </r>
       <r>   15.4688    0.0000 </r>
       <r>   15.4688    0.0000 </r>
       <r>   15.8882    0.0000 </r>
       <r>   15.8882    0.0000 </r>
       <r>   15.9763    0.0000 </r>
       <r>   17.1982    0.0000 </r>
       <r>   17.3975    0.0000 </r>
       <r>   17.5620    0.0000 </r>
       <r>   17.5620    0.0000 </r>
       <r>   17.9082    0.0000 </r>
       <r>   18.9275    0.0000 </r>
       <r>   18.9275    0.0000 </r>
       <r>   19.4980    0.0000 </r>
       <r>   19.4980    0.0000 </r>
       <r>   19.6211    0.0000 </r>
       <r>   20.3694    0.0000 </r>
       <r>   20.3694    0.0000 </r>
       <r>   22.1730    0.0000 </r>
       <r>   22.1730    0.0000 </r>
       <r>   22.4598    0.0000 </r>
       <r>   22.5100    0.0000 </r>
       <r>   22.7538    0.0000 </r>
       <r>   22.7538    0.0000 </r>
       <r>   23.2152    0.0000 </r>
       <r>   23.4431    0.0000 </r>
       <r>   23.4431    0.0000 </r>
       <r>   23.9505    0.0000 </r>
       <r>   24.0365    0.0000 </r>
       <r>   24.0365    0.0000 </r>
       <r>   24.5111    0.0000 </r>
       <r>   24.7759    0.0000 </r>
       <r>   24.9670    0.0000 </r>
       <r>   24.9670    0.0000 </r>
       <r>   26.2445    0.0000 </r>
       <r>   26.2445    0.0000 </r>
       <r>   26.3534    0.0000 </r>
       <r>   26.7129    0.0000 </r>
       <r>   26.9317    0.0000 </r>
       <r>   26.9317    0.0000 </r>
       <r>   27.7221    0.0000 </r>
       <r>   27.7221    0.0000 </r>
       <r>   29.1572    0.0000 </r>
       <r>   29.1896    0.0000 </r>
       <r>   29.1896    0.0000 </r>
       <r>   29.9519    0.0000 </r>
       <r>   29.9519    0.0000 </r>
       <r>   30.0018    0.0000 </r>
       <r>   30.0420    0.0000 </r>
       <r>   30.5431    0.0000 </r>
       <r>   30.5431    0.0000 </r>
       <r>   31.5966    0.0000 </r>
       <r>   32.3192    0.0000 </r>
       <r>   32.3192    0.0000 </r>
       <r>   32.6254    0.0000 </r>
       <r>   32.8944    0.0000 </r>
       <r>   32.8944    0.0000 </r>
       <r>   33.6285    0.0000 </r>
       <r>   33.6285    0.0000 </r>
       <r>   33.7232    0.0000 </r>
       <r>   33.7911    0.0000 </r>
       <r>   34.2003    0.0000 </r>
       <r>   34.5357    0.0000 </r>
       <r>   34.5357    0.0000 </r>
       <r>   34.5667    0.0000 </r>
       <r>   34.9567    0.0000 </r>
       <r>   34.9567    0.0000 </r>
       <r>   36.0485    0.0000 </r>
       <r>   36.0485    0.0000 </r>
       <r>   36.1991    0.0000 </r>
       <r>   36.3786    0.0000 </r>
       <r>   36.4344    0.0000 </r>
       <r>   36.4344    0.0000 </r>
       <r>   37.2771    0.0000 </r>
       <r>   37.4160    0.0000 </r>
       <r>   37.4160    0.0000 </r>
       <r>   38.0926    0.0000 </r>
       <r>   38.0926    0.0000 </r>
       <r>   38.9530    0.0000 </r>
       <r>   39.2639    0.0000 </r>
       <r>   39.2639    0.0000 </r>
       <r>   39.3847    0.0000 </r>
       <r>   40.1544    0.0000 </r>
       <r>   40.1544    0.0000 </r>
       <r>   40.7753    0.0000 </r>
       <r>   40.7753    0.0000 </r>
       <r>   41.2355    0.0000 </r>
       <r>   41.3886    0.0000 </r>
       <r>   41.3886    0.0000 </r>
       <r>   41.6172    0.0000 </r>
       <r>   41.8055    0.0000 </r>
       <r>   41.8655    0.0000 </r>
       <r>   41.8655    0.0000 </r>
       <r>   42.9546    0.0000 </r>
       <r>   42.9546    0.0000 </r>
       <r>   42.9964    0.0000 </r>
       <r>   43.4451    0.0000 </r>
       <r>   43.5790    0.0000 </r>
       <r>   43.5790    0.0000 </r>
       <r>   44.0683    0.0000 </r>
       <r>   44.7674    0.0000 </r>
       <r>   44.7674    0.0000 </r>
       <r>   44.9175    0.0000 </r>
       <r>   45.3222    0.0000 </r>
       <r>   45.7521    0.0000 </r>
       <r>   45.7521    0.0000 </r>
       <r>   46.8851    0.0000 </r>
       <r>   46.8862    0.0000 </r>
       <r>   46.9904    0.0000 </r>
      </set>
      <set comment="kpoint 8">
       <r>   -5.8146    1.0000 </r>
       <r>   -5.2942    1.0000 </r>
       <r>   -4.5000    1.0000 </r>
       <r>   -3.2817    1.0000 </r>
       <r>   -1.7750    1.0000 </r>
       <r>   -1.1425    1.0000 </r>
       <r>   -0.4800    1.0000 </r>
       <r>    1.1629    1.0000 </r>
       <r>    1.9851    1.0000 </r>
       <r>    2.1943    1.0000 </r>
       <r>    2.4564    1.0000 </r>
       <r>    2.5353    1.0000 </r>
       <r>    2.9354    1.0000 </r>
       <r>    4.5245    0.0000 </r>
       <r>    5.0602    0.0000 </r>
       <r>    5.4592    0.0000 </r>
       <r>    6.9443    0.0000 </r>
       <r>    7.6666    0.0000 </r>
       <r>    7.8877    0.0000 </r>
       <r>    7.9765    0.0000 </r>
       <r>    8.0347    0.0000 </r>
       <r>    8.6920    0.0000 </r>
       <r>    9.7048    0.0000 </r>
       <r>    9.8009    0.0000 </r>
       <r>   10.0938    0.0000 </r>
       <r>   10.2526    0.0000 </r>
       <r>   10.4442    0.0000 </r>
       <r>   10.8649    0.0000 </r>
       <r>   11.9915    0.0000 </r>
       <r>   12.0054    0.0000 </r>
       <r>   12.4534    0.0000 </r>
       <r>   12.7615    0.0000 </r>
       <r>   12.8390    0.0000 </r>
       <r>   13.3830    0.0000 </r>
       <r>   14.2399    0.0000 </r>
       <r>   14.8631    0.0000 </r>
       <r>   15.1749    0.0000 </r>
       <r>   15.2407    0.0000 </r>
       <r>   15.4681    0.0000 </r>
       <r>   15.8525    0.0000 </r>
       <r>   16.0329    0.0000 </r>
       <r>   16.6928    0.0000 </r>
       <r>   16.9535    0.0000 </r>
       <r>   17.1456    0.0000 </r>
       <r>   18.3627    0.0000 </r>
       <r>   18.7056    0.0000 </r>
       <r>   18.7743    0.0000 </r>
       <r>   18.9621    0.0000 </r>
       <r>   19.0385    0.0000 </r>
       <r>   19.0398    0.0000 </r>
       <r>   20.4068    0.0000 </r>
       <r>   20.6454    0.0000 </r>
       <r>   20.8991    0.0000 </r>
       <r>   20.9130    0.0000 </r>
       <r>   21.4266    0.0000 </r>
       <r>   22.2315    0.0000 </r>
       <r>   22.3336    0.0000 </r>
       <r>   22.6607    0.0000 </r>
       <r>   22.9757    0.0000 </r>
       <r>   23.2019    0.0000 </r>
       <r>   23.4298    0.0000 </r>
       <r>   23.6304    0.0000 </r>
       <r>   24.0036    0.0000 </r>
       <r>   24.2815    0.0000 </r>
       <r>   24.3502    0.0000 </r>
       <r>   24.8888    0.0000 </r>
       <r>   25.1187    0.0000 </r>
       <r>   25.9252    0.0000 </r>
       <r>   26.0649    0.0000 </r>
       <r>   26.3414    0.0000 </r>
       <r>   26.6259    0.0000 </r>
       <r>   26.7151    0.0000 </r>
       <r>   27.0446    0.0000 </r>
       <r>   27.5767    0.0000 </r>
       <r>   28.0676    0.0000 </r>
       <r>   28.1657    0.0000 </r>
       <r>   28.3934    0.0000 </r>
       <r>   28.8180    0.0000 </r>
       <r>   29.5498    0.0000 </r>
       <r>   29.5837    0.0000 </r>
       <r>   29.7164    0.0000 </r>
       <r>   30.0815    0.0000 </r>
       <r>   30.3657    0.0000 </r>
       <r>   30.4292    0.0000 </r>
       <r>   30.6092    0.0000 </r>
       <r>   31.0909    0.0000 </r>
       <r>   31.1607    0.0000 </r>
       <r>   31.2831    0.0000 </r>
       <r>   31.9243    0.0000 </r>
       <r>   32.0250    0.0000 </r>
       <r>   32.3283    0.0000 </r>
       <r>   32.4668    0.0000 </r>
       <r>   32.8810    0.0000 </r>
       <r>   33.4337    0.0000 </r>
       <r>   34.0994    0.0000 </r>
       <r>   34.3585    0.0000 </r>
       <r>   34.4945    0.0000 </r>
       <r>   34.7336    0.0000 </r>
       <r>   34.8698    0.0000 </r>
       <r>   35.0863    0.0000 </r>
       <r>   35.1685    0.0000 </r>
       <r>   35.3457    0.0000 </r>
       <r>   35.6386    0.0000 </r>
       <r>   35.8367    0.0000 </r>
       <r>   36.0954    0.0000 </r>
       <r>   36.2536    0.0000 </r>
       <r>   36.4544    0.0000 </r>
       <r>   36.8561    0.0000 </r>
       <r>   36.9268    0.0000 </r>
       <r>   37.0414    0.0000 </r>
       <r>   37.2678    0.0000 </r>
       <r>   37.4742    0.0000 </r>
       <r>   37.5442    0.0000 </r>
       <r>   37.5728    0.0000 </r>
       <r>   38.0442    0.0000 </r>
       <r>   38.4733    0.0000 </r>
       <r>   39.0786    0.0000 </r>
       <r>   39.6509    0.0000 </r>
       <r>   39.7488    0.0000 </r>
       <r>   39.9969    0.0000 </r>
       <r>   40.0786    0.0000 </r>
       <r>   40.5952    0.0000 </r>
       <r>   41.1102    0.0000 </r>
       <r>   41.4368    0.0000 </r>
       <r>   41.4427    0.0000 </r>
       <r>   41.6150    0.0000 </r>
       <r>   41.7188    0.0000 </r>
       <r>   42.3315    0.0000 </r>
       <r>   42.3320    0.0000 </r>
       <r>   42.7545    0.0000 </r>
       <r>   43.2968    0.0000 </r>
       <r>   43.3328    0.0000 </r>
       <r>   43.6605    0.0000 </r>
       <r>   43.7214    0.0000 </r>
       <r>   44.1174    0.0000 </r>
       <r>   44.3489    0.0000 </r>
       <r>   44.9048    0.0000 </r>
       <r>   45.0867    0.0000 </r>
       <r>   45.4970    0.0000 </r>
       <r>   45.6378    0.0000 </r>
       <r>   45.9715    0.0000 </r>
       <r>   46.3588    0.0000 </r>
       <r>   47.1071    0.0000 </r>
       <r>   47.1260    0.0000 </r>
      </set>
      <set comment="kpoint 9">
       <r>   -5.2503    1.0000 </r>
       <r>   -5.1543    1.0000 </r>
       <r>   -5.1543    1.0000 </r>
       <r>   -3.4430    1.0000 </r>
       <r>   -1.5050    1.0000 </r>
       <r>   -1.3543    1.0000 </r>
       <r>   -1.3543    1.0000 </r>
       <r>    1.4749    1.0000 </r>
       <r>    2.0064    1.0000 </r>
       <r>    2.3742    1.0000 </r>
       <r>    2.3742    1.0000 </r>
       <r>    3.1183    1.0000 </r>
       <r>    3.3342    1.0000 </r>
       <r>    4.8757    0.0000 </r>
       <r>    5.6269    0.0000 </r>
       <r>    5.6269    0.0000 </r>
       <r>    6.9401    0.0000 </r>
       <r>    6.9401    0.0000 </r>
       <r>    7.6194    0.0000 </r>
       <r>    8.2830    0.0000 </r>
       <r>    8.2830    0.0000 </r>
       <r>    8.3865    0.0000 </r>
       <r>    8.8332    0.0000 </r>
       <r>    9.3460    0.0000 </r>
       <r>    9.4262    0.0000 </r>
       <r>   10.4983    0.0000 </r>
       <r>   10.4983    0.0000 </r>
       <r>   11.0255    0.0000 </r>
       <r>   12.5185    0.0000 </r>
       <r>   12.6433    0.0000 </r>
       <r>   12.6577    0.0000 </r>
       <r>   12.6577    0.0000 </r>
       <r>   13.7840    0.0000 </r>
       <r>   14.0320    0.0000 </r>
       <r>   14.0320    0.0000 </r>
       <r>   14.3207    0.0000 </r>
       <r>   14.6053    0.0000 </r>
       <r>   15.1338    0.0000 </r>
       <r>   15.1338    0.0000 </r>
       <r>   15.3608    0.0000 </r>
       <r>   16.1039    0.0000 </r>
       <r>   16.2871    0.0000 </r>
       <r>   16.2871    0.0000 </r>
       <r>   17.1084    0.0000 </r>
       <r>   18.3240    0.0000 </r>
       <r>   18.3240    0.0000 </r>
       <r>   18.5917    0.0000 </r>
       <r>   18.8148    0.0000 </r>
       <r>   19.0199    0.0000 </r>
       <r>   19.2383    0.0000 </r>
       <r>   19.2383    0.0000 </r>
       <r>   19.5789    0.0000 </r>
       <r>   20.4531    0.0000 </r>
       <r>   21.7322    0.0000 </r>
       <r>   21.7322    0.0000 </r>
       <r>   22.1728    0.0000 </r>
       <r>   22.3874    0.0000 </r>
       <r>   22.6766    0.0000 </r>
       <r>   22.7184    0.0000 </r>
       <r>   22.7184    0.0000 </r>
       <r>   23.9326    0.0000 </r>
       <r>   23.9619    0.0000 </r>
       <r>   23.9619    0.0000 </r>
       <r>   25.2749    0.0000 </r>
       <r>   25.6348    0.0000 </r>
       <r>   25.8738    0.0000 </r>
       <r>   26.0084    0.0000 </r>
       <r>   26.0084    0.0000 </r>
       <r>   26.9860    0.0000 </r>
       <r>   26.9860    0.0000 </r>
       <r>   27.2161    0.0000 </r>
       <r>   27.2468    0.0000 </r>
       <r>   27.5619    0.0000 </r>
       <r>   27.7011    0.0000 </r>
       <r>   27.7011    0.0000 </r>
       <r>   28.6447    0.0000 </r>
       <r>   28.9234    0.0000 </r>
       <r>   28.9234    0.0000 </r>
       <r>   29.2580    0.0000 </r>
       <r>   29.2878    0.0000 </r>
       <r>   29.7745    0.0000 </r>
       <r>   30.4375    0.0000 </r>
       <r>   30.4375    0.0000 </r>
       <r>   30.5636    0.0000 </r>
       <r>   30.8107    0.0000 </r>
       <r>   30.8107    0.0000 </r>
       <r>   30.8422    0.0000 </r>
       <r>   31.3980    0.0000 </r>
       <r>   32.2412    0.0000 </r>
       <r>   32.2412    0.0000 </r>
       <r>   32.3626    0.0000 </r>
       <r>   32.3653    0.0000 </r>
       <r>   33.0724    0.0000 </r>
       <r>   33.3196    0.0000 </r>
       <r>   33.3196    0.0000 </r>
       <r>   33.5474    0.0000 </r>
       <r>   33.8253    0.0000 </r>
       <r>   33.8253    0.0000 </r>
       <r>   33.8583    0.0000 </r>
       <r>   34.3063    0.0000 </r>
       <r>   34.9093    0.0000 </r>
       <r>   35.4028    0.0000 </r>
       <r>   35.4028    0.0000 </r>
       <r>   35.4675    0.0000 </r>
       <r>   36.0872    0.0000 </r>
       <r>   36.3141    0.0000 </r>
       <r>   36.3141    0.0000 </r>
       <r>   36.4387    0.0000 </r>
       <r>   37.0561    0.0000 </r>
       <r>   37.5557    0.0000 </r>
       <r>   37.5557    0.0000 </r>
       <r>   37.6968    0.0000 </r>
       <r>   37.7075    0.0000 </r>
       <r>   38.5159    0.0000 </r>
       <r>   38.5159    0.0000 </r>
       <r>   38.6333    0.0000 </r>
       <r>   39.2954    0.0000 </r>
       <r>   39.3936    0.0000 </r>
       <r>   39.3936    0.0000 </r>
       <r>   39.3993    0.0000 </r>
       <r>   39.8465    0.0000 </r>
       <r>   39.8465    0.0000 </r>
       <r>   40.0722    0.0000 </r>
       <r>   40.8989    0.0000 </r>
       <r>   41.0756    0.0000 </r>
       <r>   41.6518    0.0000 </r>
       <r>   41.6518    0.0000 </r>
       <r>   41.8553    0.0000 </r>
       <r>   42.1868    0.0000 </r>
       <r>   42.9294    0.0000 </r>
       <r>   43.2329    0.0000 </r>
       <r>   43.3211    0.0000 </r>
       <r>   43.3211    0.0000 </r>
       <r>   43.6163    0.0000 </r>
       <r>   44.3083    0.0000 </r>
       <r>   44.3083    0.0000 </r>
       <r>   44.5407    0.0000 </r>
       <r>   45.3146    0.0000 </r>
       <r>   45.3146    0.0000 </r>
       <r>   45.6018    0.0000 </r>
       <r>   45.7559    0.0000 </r>
       <r>   45.7639    0.0000 </r>
       <r>   45.7640    0.0000 </r>
       <r>   46.2914    0.0000 </r>
      </set>
      <set comment="kpoint 10">
       <r>   -5.0431    1.0000 </r>
       <r>   -5.0431    1.0000 </r>
       <r>   -5.0431    1.0000 </r>
       <r>   -3.6359    1.0000 </r>
       <r>   -1.8549    1.0000 </r>
       <r>   -1.8549    1.0000 </r>
       <r>   -1.8549    1.0000 </r>
       <r>    0.9498    1.0000 </r>
       <r>    3.2092    1.0000 </r>
       <r>    3.2092    1.0000 </r>
       <r>    3.3347    1.0000 </r>
       <r>    3.3347    1.0000 </r>
       <r>    3.3347    1.0000 </r>
       <r>    5.9576    0.0000 </r>
       <r>    5.9576    0.0000 </r>
       <r>    5.9576    0.0000 </r>
       <r>    6.3006    0.0000 </r>
       <r>    6.3006    0.0000 </r>
       <r>    6.3006    0.0000 </r>
       <r>    7.8783    0.0000 </r>
       <r>    7.8783    0.0000 </r>
       <r>    7.8783    0.0000 </r>
       <r>    9.0096    0.0000 </r>
       <r>    9.0096    0.0000 </r>
       <r>    9.9342    0.0000 </r>
       <r>    9.9342    0.0000 </r>
       <r>    9.9342    0.0000 </r>
       <r>   10.0393    0.0000 </r>
       <r>   12.4528    0.0000 </r>
       <r>   13.1184    0.0000 </r>
       <r>   13.1184    0.0000 </r>
       <r>   13.1184    0.0000 </r>
       <r>   15.1514    0.0000 </r>
       <r>   15.1514    0.0000 </r>
       <r>   15.1514    0.0000 </r>
       <r>   15.3119    0.0000 </r>
       <r>   15.3119    0.0000 </r>
       <r>   15.6791    0.0000 </r>
       <r>   15.6791    0.0000 </r>
       <r>   15.6791    0.0000 </r>
       <r>   16.4881    0.0000 </r>
       <r>   16.5528    0.0000 </r>
       <r>   16.5528    0.0000 </r>
       <r>   16.5528    0.0000 </r>
       <r>   16.7086    0.0000 </r>
       <r>   16.7086    0.0000 </r>
       <r>   16.7086    0.0000 </r>
       <r>   17.7154    0.0000 </r>
       <r>   17.7154    0.0000 </r>
       <r>   17.7154    0.0000 </r>
       <r>   18.1821    0.0000 </r>
       <r>   18.1821    0.0000 </r>
       <r>   19.4206    0.0000 </r>
       <r>   21.1703    0.0000 </r>
       <r>   21.1703    0.0000 </r>
       <r>   21.1703    0.0000 </r>
       <r>   24.5937    0.0000 </r>
       <r>   25.0196    0.0000 </r>
       <r>   25.0196    0.0000 </r>
       <r>   25.0196    0.0000 </r>
       <r>   25.3676    0.0000 </r>
       <r>   25.3676    0.0000 </r>
       <r>   25.3676    0.0000 </r>
       <r>   25.8471    0.0000 </r>
       <r>   26.2141    0.0000 </r>
       <r>   26.2141    0.0000 </r>
       <r>   26.3206    0.0000 </r>
       <r>   26.3206    0.0000 </r>
       <r>   26.3206    0.0000 </r>
       <r>   26.7173    0.0000 </r>
       <r>   26.7173    0.0000 </r>
       <r>   26.7173    0.0000 </r>
       <r>   26.7760    0.0000 </r>
       <r>   26.7760    0.0000 </r>
       <r>   26.7760    0.0000 </r>
       <r>   28.3536    0.0000 </r>
       <r>   28.3536    0.0000 </r>
       <r>   28.3536    0.0000 </r>
       <r>   30.0371    0.0000 </r>
       <r>   30.0371    0.0000 </r>
       <r>   30.3309    0.0000 </r>
       <r>   30.7829    0.0000 </r>
       <r>   30.7829    0.0000 </r>
       <r>   30.7829    0.0000 </r>
       <r>   31.5775    0.0000 </r>
       <r>   31.5775    0.0000 </r>
       <r>   31.5775    0.0000 </r>
       <r>   31.7739    0.0000 </r>
       <r>   31.7739    0.0000 </r>
       <r>   32.2124    0.0000 </r>
       <r>   32.2124    0.0000 </r>
       <r>   32.2124    0.0000 </r>
       <r>   32.6442    0.0000 </r>
       <r>   32.6442    0.0000 </r>
       <r>   32.6442    0.0000 </r>
       <r>   33.1661    0.0000 </r>
       <r>   33.1661    0.0000 </r>
       <r>   33.1661    0.0000 </r>
       <r>   33.9201    0.0000 </r>
       <r>   33.9201    0.0000 </r>
       <r>   34.1642    0.0000 </r>
       <r>   35.4169    0.0000 </r>
       <r>   36.7504    0.0000 </r>
       <r>   36.7504    0.0000 </r>
       <r>   36.7504    0.0000 </r>
       <r>   36.9415    0.0000 </r>
       <r>   36.9415    0.0000 </r>
       <r>   36.9415    0.0000 </r>
       <r>   37.0826    0.0000 </r>
       <r>   37.0826    0.0000 </r>
       <r>   37.0826    0.0000 </r>
       <r>   37.6057    0.0000 </r>
       <r>   37.6057    0.0000 </r>
       <r>   38.1081    0.0000 </r>
       <r>   38.1081    0.0000 </r>
       <r>   38.1081    0.0000 </r>
       <r>   38.1747    0.0000 </r>
       <r>   38.1747    0.0000 </r>
       <r>   38.1747    0.0000 </r>
       <r>   38.6372    0.0000 </r>
       <r>   39.5433    0.0000 </r>
       <r>   39.5433    0.0000 </r>
       <r>   39.5433    0.0000 </r>
       <r>   41.2288    0.0000 </r>
       <r>   41.2288    0.0000 </r>
       <r>   41.3131    0.0000 </r>
       <r>   41.7961    0.0000 </r>
       <r>   41.7961    0.0000 </r>
       <r>   41.7961    0.0000 </r>
       <r>   41.8214    0.0000 </r>
       <r>   41.9883    0.0000 </r>
       <r>   41.9883    0.0000 </r>
       <r>   41.9883    0.0000 </r>
       <r>   42.5337    0.0000 </r>
       <r>   42.5337    0.0000 </r>
       <r>   42.5337    0.0000 </r>
       <r>   45.4400    0.0000 </r>
       <r>   45.4400    0.0000 </r>
       <r>   45.9540    0.0000 </r>
       <r>   45.9540    0.0000 </r>
       <r>   45.9540    0.0000 </r>
       <r>   47.5337    0.0000 </r>
       <r>   47.5342    0.0000 </r>
       <r>   47.5348    0.0000 </r>
      </set>
     </set>
     <set comment="spin 2">
      <set comment="kpoint 1">
       <r>   -6.9833    1.0000 </r>
       <r>   -3.2963    1.0000 </r>
       <r>   -3.2963    1.0000 </r>
       <r>   -2.9514    1.0000 </r>
       <r>   -2.9514    1.0000 </r>
       <r>   -2.9514    1.0000 </r>
       <r>    1.4712    1.0000 </r>
       <r>    1.7108    1.0000 </r>
       <r>    1.7108    1.0000 </r>
       <r>    1.7108    1.0000 </r>
       <r>    2.7898    1.0000 </r>
       <r>    2.7898    1.0000 </r>
       <r>    2.7898    1.0000 </r>
       <r>    5.7066    0.0000 </r>
       <r>    5.7066    0.0000 </r>
       <r>    5.7066    0.0000 </r>
       <r>    5.8707    0.0000 </r>
       <r>    5.8707    0.0000 </r>
       <r>    6.0944    0.0000 </r>
       <r>    6.1369    0.0000 </r>
       <r>    6.1369    0.0000 </r>
       <r>    6.1369    0.0000 </r>
       <r>    8.9036    0.0000 </r>
       <r>    8.9036    0.0000 </r>
       <r>    8.9036    0.0000 </r>
       <r>   10.5353    0.0000 </r>
[...]
        <r>  0.0039  0.0003  0.0003  0.0002  0.0000  0.0000  0.0000  0.0000  0.0000 </r>
       </set>
       <set comment="band 117">
        <r>  0.0000  0.0005  0.0010  0.0026  0.0000  0.0000  0.0000  0.0000  0.0000 </r>
        <r>  0.0000  0.0017  0.0000  0.0151  0.0000  0.0000  0.0000  0.0000  0.0000 </r>
        <r>  0.0000  0.0003  0.0041  0.0026  0.0000  0.0000  0.0000  0.0000  0.0000 </r>
        <r>  0.0000  0.0000  0.0017  0.0012  0.0000  0.0000  0.0000  0.0000  0.0000 </r>
        <r>  0.0000  0.0005  0.0041  0.0024  0.0000  0.0000  0.0000  0.0000  0.0000 </r>
        <r>  0.0000  0.0012  0.0151  0.0000  0.0000  0.0000  0.0000  0.0000  0.0000 </r>
        <r>  0.0000  0.0003  0.0010  0.0024  0.0000  0.0000  0.0000  0.0000  0.0000 </r>
       </set>
       <set comment="band 118">
        <r>  0.0000  0.0036  0.0042  0.0002  0.0000  0.0000  0.0000  0.0000  0.0000 </r>
        <r>  0.0000  0.0146  0.0000  0.0022  0.0000  0.0000  0.0000  0.0000  0.0000 </r>
        <r>  0.0000  0.0012  0.0009  0.0002  0.0000  0.0000  0.0000  0.0000  0.0000 </r>
        <r>  0.0000  0.0000  0.0146  0.0012  0.0000  0.0000  0.0000  0.0000  0.0000 </r>
        <r>  0.0000  0.0036  0.0009  0.0009  0.0000  0.0000  0.0000  0.0000  0.0000 </r>
        <r>  0.0000  0.0012  0.0022  0.0000  0.0000  0.0000  0.0000  0.0000  0.0000 </r>
        <r>  0.0000  0.0012  0.0042  0.0009  0.0000  0.0000  0.0000  0.0000  0.0000 </r>
       </set>
       <set comment="band 119">
        <r>  0.0000  0.0013  0.0003  0.0027  0.0000  0.0000  0.0000  0.0000  0.0000 </r>
        <r>  0.0000  0.0018  0.0000  0.0007  0.0000  0.0000  0.0000  0.0000  0.0000 </r>
        <r>  0.0000  0.0039  0.0005  0.0027  0.0000  0.0000  0.0000  0.0000  0.0000 </r>
        <r>  0.0000  0.0000  0.0018  0.0155  0.0000  0.0000  0.0000  0.0000  0.0000 </r>
        <r>  0.0000  0.0013  0.0005  0.0022  0.0000  0.0000  0.0000  0.0000  0.0000 </r>
        <r>  0.0000  0.0155  0.0007  0.0000  0.0000  0.0000  0.0000  0.0000  0.0000 </r>
        <r>  0.0000  0.0039  0.0003  0.0022  0.0000  0.0000  0.0000  0.0000  0.0000 </r>
       </set>
       <set comment="band 120">
        <r>  0.0166  0.0000  0.0000  0.0000  0.0000  0.0000  0.0000  0.0000  0.0000 </r>
        <r>  0.0000  0.0000  0.0000  0.0000  0.0000  0.0000  0.0000  0.0000  0.0000 </r>
        <r>  0.0166  0.0000  0.0000  0.0000  0.0000  0.0000  0.0000  0.0000  0.0000 </r>
        <r>  0.0000  0.0000  0.0000  0.0000  0.0000  0.0000  0.0000  0.0000  0.0000 </r>
        <r>  0.0166  0.0000  0.0000  0.0000  0.0000  0.0000  0.0000  0.0000  0.0000 </r>
        <r>  0.0000  0.0000  0.0000  0.0000  0.0000  0.0000  0.0000  0.0000  0.0000 </r>
        <r>  0.0166  0.0000  0.0000  0.0000  0.0000  0.0000  0.0000  0.0000  0.0000 </r>
       </set>
       <set comment="band 121">
        <r>  0.0222  0.0024  0.0031  0.0016  0.0000  0.0000  0.0000  0.0000  0.0000 </r>
        <r>  0.0004  0.0098  0.0000  0.0026  0.0000  0.0000  0.0000  0.0000  0.0000 </r>
        <r>  0.0023  0.0007  0.0003  0.0000  0.0000  0.0000  0.0000  0.0000  0.0000 </r>
        <r>  0.0011  0.0000  0.0098  0.0010  0.0000  0.0000  0.0000  0.0000  0.0000 </r>
        <r>  0.0054  0.0011  0.0006  0.0004  0.0000  0.0000  0.0000  0.0000  0.0000 </r>
        <r>  0.0042  0.0010  0.0026  0.0000  0.0000  0.0000  0.0000  0.0000  0.0000 </r>
        <r>  0.0219  0.0023  0.0031  0.0017  0.0000  0.0000  0.0000  0.0000  0.0000 </r>
       </set>
       <set comment="band 122">
        <r>  0.0142  0.0018  0.0008  0.0021  0.0000  0.0000  0.0000  0.0000  0.0000 </r>
        <r>  0.0052  0.0009  0.0000  0.0004  0.0000  0.0000  0.0000  0.0000  0.0000 </r>
        <r>  0.0187  0.0024  0.0011  0.0025  0.0000  0.0000  0.0000  0.0000  0.0000 </r>
        <r>  0.0002  0.0000  0.0009  0.0122  0.0000  0.0000  0.0000  0.0000  0.0000 </r>
        <r>  0.0069  0.0012  0.0002  0.0011  0.0000  0.0000  0.0000  0.0000  0.0000 </r>
        <r>  0.0004  0.0122  0.0004  0.0000  0.0000  0.0000  0.0000  0.0000  0.0000 </r>
        <r>  0.0119  0.0019  0.0006  0.0015  0.0000  0.0000  0.0000  0.0000  0.0000 </r>
       </set>
       <set comment="band 123">
        <r>  0.0024  0.0001  0.0004  0.0006  0.0000  0.0000  0.0000  0.0000  0.0000 </r>
        <r>  0.0001  0.0027  0.0000  0.0105  0.0000  0.0000  0.0000  0.0000  0.0000 </r>
        <r>  0.0178  0.0011  0.0028  0.0018  0.0000  0.0000  0.0000  0.0000  0.0000 </r>
        <r>  0.0045  0.0000  0.0027  0.0002  0.0000  0.0000  0.0000  0.0000  0.0000 </r>
        <r>  0.0265  0.0020  0.0035  0.0029  0.0000  0.0000  0.0000  0.0000  0.0000 </r>
        <r>  0.0012  0.0002  0.0105  0.0000  0.0000  0.0000  0.0000  0.0000  0.0000 </r>
        <r>  0.0050  0.0001  0.0006  0.0012  0.0000  0.0000  0.0000  0.0000  0.0000 </r>
       </set>
       <set comment="band 124">
        <r>  0.0000  0.0027  0.0074  0.0022  0.0000  0.0000  0.0000  0.0000  0.0000 </r>
        <r>  0.0000  0.0000  0.0073  0.0000  0.0000  0.0000  0.0000  0.0000  0.0000 </r>
        <r>  0.0000  0.0027  0.0074  0.0022  0.0000  0.0000  0.0000  0.0000  0.0000 </r>
        <r>  0.0000  0.0026  0.0000  0.0000  0.0000  0.0000  0.0000  0.0000  0.0000 </r>
        <r>  0.0000  0.0027  0.0074  0.0022  0.0000  0.0000  0.0000  0.0000  0.0000 </r>
        <r>  0.0000  0.0000  0.0000  0.0022  0.0000  0.0000  0.0000  0.0000  0.0000 </r>
        <r>  0.0000  0.0027  0.0074  0.0022  0.0000  0.0000  0.0000  0.0000  0.0000 </r>
       </set>
       <set comment="band 125">
        <r>  0.0000  0.0055  0.0008  0.0059  0.0000  0.0000  0.0000  0.0000  0.0000 </r>
        <r>  0.0000  0.0000  0.0008  0.0000  0.0000  0.0000  0.0000  0.0000  0.0000 </r>
        <r>  0.0000  0.0055  0.0008  0.0059  0.0000  0.0000  0.0000  0.0000  0.0000 </r>
        <r>  0.0000  0.0054  0.0000  0.0000  0.0000  0.0000  0.0000  0.0000  0.0000 </r>
        <r>  0.0000  0.0055  0.0008  0.0059  0.0000  0.0000  0.0000  0.0000  0.0000 </r>
        <r>  0.0000  0.0000  0.0000  0.0059  0.0000  0.0000  0.0000  0.0000  0.0000 </r>
        <r>  0.0000  0.0055  0.0008  0.0059  0.0000  0.0000  0.0000  0.0000  0.0000 </r>
       </set>
       <set comment="band 126">
        <r>  0.0000  0.0000  0.0000  0.0000  0.0000  0.0000  0.0000  0.0000  0.0000 </r>
        <r>  0.0000  0.0000  0.0000  0.0000  0.0000  0.0000  0.0000  0.0000  0.0000 </r>
        <r>  0.0000  0.0000  0.0000  0.0000  0.0000  0.0000  0.0000  0.0000  0.0000 </r>
        <r>  0.0000  0.0000  0.0000  0.0000  0.0000  0.0000  0.0000  0.0000  0.0000 </r>
        <r>  0.0000  0.0000  0.0000  0.0000  0.0000  0.0000  0.0000  0.0000  0.0000 </r>
        <r>  0.0000  0.0000  0.0000  0.0000  0.0000  0.0000  0.0000  0.0000  0.0000 </r>
        <r>  0.0000  0.0000  0.0000  0.0000  0.0000  0.0000  0.0000  0.0000  0.0000 </r>
       </set>
       <set comment="band 127">
        <r>  0.0007  0.0013  0.0011  0.0023  0.0000  0.0000  0.0000  0.0000  0.0000 </r>
        <r>  0.0032  0.0025  0.0000  0.0016  0.0000  0.0000  0.0000  0.0000  0.0000 </r>
        <r>  0.0001  0.0028  0.0005  0.0033  0.0000  0.0000  0.0000  0.0000  0.0000 </r>
        <r>  0.0135  0.0000  0.0025  0.0004  0.0000  0.0000  0.0000  0.0000  0.0000 </r>
        <r>  0.0001  0.0022  0.0004  0.0037  0.0000  0.0000  0.0000  0.0000  0.0000 </r>
        <r>  0.0217  0.0004  0.0016  0.0000  0.0000  0.0000  0.0000  0.0000  0.0000 </r>
        <r>  0.0013  0.0009  0.0002  0.0020  0.0000  0.0000  0.0000  0.0000  0.0000 </r>
       </set>
       <set comment="band 128">
        <r>  0.0009  0.0003  0.0039  0.0000  0.0000  0.0000  0.0000  0.0000  0.0000 </r>
        <r>  0.0338  0.0003  0.0000  0.0003  0.0000  0.0000  0.0000  0.0000  0.0000 </r>
        <r>  0.0003  0.0003  0.0045  0.0008  0.0000  0.0000  0.0000  0.0000  0.0000 </r>
        <r>  0.0023  0.0000  0.0003  0.0039  0.0000  0.0000  0.0000  0.0000  0.0000 </r>
        <r>  0.0006  0.0007  0.0041  0.0001  0.0000  0.0000  0.0000  0.0000  0.0000 </r>
        <r>  0.0023  0.0039  0.0003  0.0000  0.0000  0.0000  0.0000  0.0000  0.0000 </r>
        <r>  0.0003  0.0004  0.0048  0.0007  0.0000  0.0000  0.0000  0.0000  0.0000 </r>
       </set>
       <set comment="band 129">
        <r>  0.0000  0.0035  0.0002  0.0028  0.0000  0.0000  0.0000  0.0000  0.0000 </r>
        <r>  0.0014  0.0017  0.0000  0.0026  0.0000  0.0000  0.0000  0.0000  0.0000 </r>
        <r>  0.0012  0.0021  0.0002  0.0011  0.0000  0.0000  0.0000  0.0000  0.0000 </r>
        <r>  0.0226  0.0000  0.0017  0.0002  0.0000  0.0000  0.0000  0.0000  0.0000 </r>
        <r>  0.0008  0.0023  0.0007  0.0013  0.0000  0.0000  0.0000  0.0000  0.0000 </r>
        <r>  0.0144  0.0002  0.0026  0.0000  0.0000  0.0000  0.0000  0.0000  0.0000 </r>
        <r>  0.0001  0.0038  0.0002  0.0025  0.0000  0.0000  0.0000  0.0000  0.0000 </r>
       </set>
       <set comment="band 130">
        <r>  0.0071  0.0019  0.0019  0.0019  0.0000  0.0000  0.0000  0.0000  0.0000 </r>
        <r>  0.0000  0.0000  0.0035  0.0000  0.0000  0.0000  0.0000  0.0000  0.0000 </r>
        <r>  0.0071  0.0019  0.0019  0.0019  0.0000  0.0000  0.0000  0.0000  0.0000 </r>
        <r>  0.0000  0.0035  0.0000  0.0000  0.0000  0.0000  0.0000  0.0000  0.0000 </r>
        <r>  0.0071  0.0019  0.0019  0.0019  0.0000  0.0000  0.0000  0.0000  0.0000 </r>
        <r>  0.0000  0.0000  0.0000  0.0035  0.0000  0.0000  0.0000  0.0000  0.0000 </r>
        <r>  0.0071  0.0019  0.0019  0.0019  0.0000  0.0000  0.0000  0.0000  0.0000 </r>
       </set>
       <set comment="band 131">
        <r>  0.0000  0.0005  0.0005  0.0017  0.0000  0.0000  0.0000  0.0000  0.0000 </r>
        <r>  0.0000  0.0000  0.0000  0.0000  0.0000  0.0000  0.0000  0.0000  0.0000 </r>
        <r>  0.0000  0.0012  0.0001  0.0017  0.0000  0.0000  0.0000  0.0000  0.0000 </r>
        <r>  0.0000  0.0000  0.0000  0.0001  0.0000  0.0000  0.0000  0.0000  0.0000 </r>
        <r>  0.0000  0.0005  0.0001  0.0005  0.0000  0.0000  0.0000  0.0000  0.0000 </r>
        <r>  0.0000  0.0001  0.0000  0.0000  0.0000  0.0000  0.0000  0.0000  0.0000 </r>
        <r>  0.0000  0.0012  0.0005  0.0005  0.0000  0.0000  0.0000  0.0000  0.0000 </r>
       </set>
       <set comment="band 132">
        <r>  0.0000  0.0014  0.0005  0.0003  0.0000  0.0000  0.0000  0.0000  0.0000 </r>
        <r>  0.0000  0.0001  0.0000  0.0000  0.0000  0.0000  0.0000  0.0000  0.0000 </r>
        <r>  0.0000  0.0005  0.0015  0.0003  0.0000  0.0000  0.0000  0.0000  0.0000 </r>
        <r>  0.0000  0.0000  0.0001  0.0000  0.0000  0.0000  0.0000  0.0000  0.0000 </r>
        <r>  0.0000  0.0014  0.0015  0.0003  0.0000  0.0000  0.0000  0.0000  0.0000 </r>
        <r>  0.0000  0.0000  0.0000  0.0000  0.0000  0.0000  0.0000  0.0000  0.0000 </r>
        <r>  0.0000  0.0005  0.0005  0.0003  0.0000  0.0000  0.0000  0.0000  0.0000 </r>
       </set>
       <set comment="band 133">
        <r>  0.0000  0.0004  0.0012  0.0002  0.0000  0.0000  0.0000  0.0000  0.0000 </r>
        <r>  0.0000  0.0000  0.0000  0.0001  0.0000  0.0000  0.0000  0.0000  0.0000 </r>
        <r>  0.0000  0.0006  0.0006  0.0002  0.0000  0.0000  0.0000  0.0000  0.0000 </r>
        <r>  0.0000  0.0000  0.0000  0.0000  0.0000  0.0000  0.0000  0.0000  0.0000 </r>
        <r>  0.0000  0.0004  0.0006  0.0015  0.0000  0.0000  0.0000  0.0000  0.0000 </r>
        <r>  0.0000  0.0000  0.0001  0.0000  0.0000  0.0000  0.0000  0.0000  0.0000 </r>
        <r>  0.0000  0.0006  0.0012  0.0015  0.0000  0.0000  0.0000  0.0000  0.0000 </r>
       </set>
       <set comment="band 134">
        <r>  0.0338  0.0001  0.0000  0.0000  0.0000  0.0000  0.0000  0.0000  0.0000 </r>
        <r>  0.0035  0.0000  0.0000  0.0000  0.0000  0.0000  0.0000  0.0000  0.0000 </r>
        <r>  0.0001  0.0000  0.0001  0.0003  0.0000  0.0000  0.0000  0.0000  0.0000 </r>
        <r>  0.0006  0.0000  0.0000  0.0000  0.0000  0.0000  0.0000  0.0000  0.0000 </r>
        <r>  0.0183  0.0003  0.0000  0.0000  0.0000  0.0000  0.0000  0.0000  0.0000 </r>
        <r>  0.0070  0.0000  0.0000  0.0000  0.0000  0.0000  0.0000  0.0000  0.0000 </r>
        <r>  0.0039  0.0000  0.0003  0.0001  0.0000  0.0000  0.0000  0.0000  0.0000 </r>
       </set>
       <set comment="band 135">
        <r>  0.0046  0.0000  0.0001  0.0003  0.0000  0.0000  0.0000  0.0000  0.0000 </r>
        <r>  0.0059  0.0000  0.0000  0.0000  0.0000  0.0000  0.0000  0.0000  0.0000 </r>
        <r>  0.0358  0.0001  0.0000  0.0000  0.0000  0.0000  0.0000  0.0000  0.0000 </r>
        <r>  0.0019  0.0000  0.0000  0.0000  0.0000  0.0000  0.0000  0.0000  0.0000 </r>
        <r>  0.0011  0.0000  0.0003  0.0001  0.0000  0.0000  0.0000  0.0000  0.0000 </r>
        <r>  0.0034  0.0000  0.0000  0.0000  0.0000  0.0000  0.0000  0.0000  0.0000 </r>
        <r>  0.0145  0.0003  0.0000  0.0000  0.0000  0.0000  0.0000  0.0000  0.0000 </r>
       </set>
       <set comment="band 136">
        <r>  0.0036  0.0002  0.0002  0.0000  0.0000  0.0000  0.0000  0.0000  0.0000 </r>
        <r>  0.0017  0.0000  0.0000  0.0000  0.0000  0.0000  0.0000  0.0000  0.0000 </r>
        <r>  0.0061  0.0002  0.0002  0.0000  0.0000  0.0000  0.0000  0.0000  0.0000 </r>
        <r>  0.0086  0.0000  0.0000  0.0000  0.0000  0.0000  0.0000  0.0000  0.0000 </r>
        <r>  0.0226  0.0000  0.0000  0.0002  0.0000  0.0000  0.0000  0.0000  0.0000 </r>
        <r>  0.0008  0.0000  0.0000  0.0000  0.0000  0.0000  0.0000  0.0000  0.0000 </r>
        <r>  0.0236  0.0001  0.0000  0.0002  0.0000  0.0000  0.0000  0.0000  0.0000 </r>
       </set>
       <set comment="band 137">
        <r>  0.0000  0.0005  0.0004  0.0003  0.0000  0.0000  0.0000  0.0000  0.0000 </r>
        <r>  0.0000  0.0000  0.0003  0.0000  0.0000  0.0000  0.0000  0.0000  0.0000 </r>
        <r>  0.0000  0.0005  0.0004  0.0003  0.0000  0.0000  0.0000  0.0000  0.0000 </r>
        <r>  0.0000  0.0004  0.0000  0.0000  0.0000  0.0000  0.0000  0.0000  0.0000 </r>
        <r>  0.0000  0.0005  0.0004  0.0003  0.0000  0.0000  0.0000  0.0000  0.0000 </r>
        <r>  0.0000  0.0000  0.0000  0.0002  0.0000  0.0000  0.0000  0.0000  0.0000 </r>
        <r>  0.0000  0.0005  0.0004  0.0003  0.0000  0.0000  0.0000  0.0000  0.0000 </r>
       </set>
       <set comment="band 138">
        <r>  0.0000  0.0003  0.0004  0.0005  0.0000  0.0000  0.0000  0.0000  0.0000 </r>
        <r>  0.0000  0.0000  0.0003  0.0000  0.0000  0.0000  0.0000  0.0000  0.0000 </r>
        <r>  0.0000  0.0003  0.0004  0.0005  0.0000  0.0000  0.0000  0.0000  0.0000 </r>
        <r>  0.0000  0.0002  0.0000  0.0000  0.0000  0.0000  0.0000  0.0000  0.0000 </r>
        <r>  0.0000  0.0003  0.0004  0.0005  0.0000  0.0000  0.0000  0.0000  0.0000 </r>
        <r>  0.0000  0.0000  0.0000  0.0004  0.0000  0.0000  0.0000  0.0000  0.0000 </r>
        <r>  0.0000  0.0003  0.0004  0.0005  0.0000  0.0000  0.0000  0.0000  0.0000 </r>
       </set>
       <set comment="band 139">
        <r>  0.0000  0.0001  0.0000  0.0000  0.0000  0.0000  0.0000  0.0000  0.0000 </r>
        <r>  0.0000  0.0000  0.0000  0.0000  0.0000  0.0000  0.0000  0.0000  0.0000 </r>
        <r>  0.0000  0.0000  0.0001  0.0000  0.0000  0.0000  0.0000  0.0000  0.0000 </r>
        <r>  0.0000  0.0000  0.0000  0.0000  0.0000  0.0000  0.0000  0.0000  0.0000 </r>
        <r>  0.0000  0.0001  0.0001  0.0001  0.0000  0.0000  0.0000  0.0000  0.0000 </r>
        <r>  0.0000  0.0000  0.0000  0.0000  0.0000  0.0000  0.0000  0.0000  0.0000 </r>
        <r>  0.0000  0.0000  0.0000  0.0001  0.0000  0.0000  0.0000  0.0000  0.0000 </r>
       </set>
       <set comment="band 140">
        <r>  0.0000  0.0000  0.0001  0.0000  0.0000  0.0000  0.0000  0.0000  0.0000 </r>
        <r>  0.0000  0.0000  0.0000  0.0000  0.0000  0.0000  0.0000  0.0000  0.0000 </r>
        <r>  0.0000  0.0000  0.0000  0.0000  0.0000  0.0000  0.0000  0.0000  0.0000 </r>
        <r>  0.0000  0.0000  0.0000  0.0000  0.0000  0.0000  0.0000  0.0000  0.0000 </r>
        <r>  0.0000  0.0000  0.0000  0.0000  0.0000  0.0000  0.0000  0.0000  0.0000 </r>
        <r>  0.0000  0.0000  0.0000  0.0000  0.0000  0.0000  0.0000  0.0000  0.0000 </r>
        <r>  0.0000  0.0000  0.0001  0.0000  0.0000  0.0000  0.0000  0.0000  0.0000 </r>
       </set>
       <set comment="band 141">
        <r>  0.0000  0.0000  0.0000  0.0001  0.0000  0.0000  0.0000  0.0000  0.0000 </r>
        <r>  0.0000  0.0000  0.0000  0.0000  0.0000  0.0000  0.0000  0.0000  0.0000 </r>
        <r>  0.0000  0.0001  0.0000  0.0001  0.0000  0.0000  0.0000  0.0000  0.0000 </r>
        <r>  0.0000  0.0000  0.0000  0.0000  0.0000  0.0000  0.0000  0.0000  0.0000 </r>
        <r>  0.0000  0.0000  0.0000  0.0001  0.0000  0.0000  0.0000  0.0000  0.0000 </r>
        <r>  0.0000  0.0000  0.0000  0.0000  0.0000  0.0000  0.0000  0.0000  0.0000 </r>
        <r>  0.0000  0.0001  0.0000  0.0001  0.0000  0.0000  0.0000  0.0000  0.0000 </r>
       </set>
       <set comment="band 142">
        <r>  0.0064  0.0003  0.0001  0.0006  0.0000  0.0000  0.0000  0.0000  0.0000 </r>
        <r>  0.0000  0.0012  0.0000  0.0006  0.0000  0.0000  0.0000  0.0000  0.0000 </r>
        <r>  0.0007  0.0001  0.0001  0.0004  0.0000  0.0000  0.0000  0.0000  0.0000 </r>
        <r>  0.0002  0.0000  0.0012  0.0001  0.0000  0.0000  0.0000  0.0000  0.0000 </r>
        <r>  0.0010  0.0002  0.0001  0.0004  0.0000  0.0000  0.0000  0.0000  0.0000 </r>
        <r>  0.0004  0.0001  0.0005  0.0000  0.0000  0.0000  0.0000  0.0000  0.0000 </r>
        <r>  0.0101  0.0004  0.0002  0.0007  0.0000  0.0000  0.0000  0.0000  0.0000 </r>
       </set>
       <set comment="band 143">
        <r>  0.0065  0.0001  0.0007  0.0001  0.0000  0.0000  0.0000  0.0000  0.0000 </r>
        <r>  0.0006  0.0001  0.0000  0.0002  0.0000  0.0000  0.0000  0.0000  0.0000 </r>
        <r>  0.0026  0.0001  0.0006  0.0000  0.0000  0.0000  0.0000  0.0000  0.0000 </r>
        <r>  0.0001  0.0000  0.0001  0.0016  0.0000  0.0000  0.0000  0.0000  0.0000 </r>
        <r>  0.0058  0.0001  0.0007  0.0001  0.0000  0.0000  0.0000  0.0000  0.0000 </r>
        <r>  0.0000  0.0015  0.0003  0.0000  0.0000  0.0000  0.0000  0.0000  0.0000 </r>
        <r>  0.0032  0.0001  0.0006  0.0000  0.0000  0.0000  0.0000  0.0000  0.0000 </r>
       </set>
       <set comment="band 144">
        <r>  0.0006  0.0003  0.0001  0.0001  0.0000  0.0000  0.0000  0.0000  0.0000 </r>
        <r>  0.0001  0.0006  0.0000  0.0011  0.0000  0.0000  0.0000  0.0000  0.0000 </r>
        <r>  0.0106  0.0007  0.0002  0.0005  0.0000  0.0000  0.0000  0.0000  0.0000 </r>
        <r>  0.0004  0.0000  0.0006  0.0002  0.0000  0.0000  0.0000  0.0000  0.0000 </r>
        <r>  0.0062  0.0005  0.0001  0.0003  0.0000  0.0000  0.0000  0.0000  0.0000 </r>
        <r>  0.0002  0.0002  0.0011  0.0000  0.0000  0.0000  0.0000  0.0000  0.0000 </r>
        <r>  0.0008  0.0004  0.0001  0.0002  0.0000  0.0000  0.0000  0.0000  0.0000 </r>
       </set>
      </set>
     </set>
    </set>
   </array>
  </projected>
 </calculation>
 <structure name="finalpos" >
  <crystal>
   <varray name="basis" >
    <v>       5.43784835       0.00000000       0.00000000 </v>
    <v>       0.00000000       5.43784835       0.00000000 </v>
    <v>       0.00000000       0.00000000       5.43784835 </v>
   </varray>
   <i name="volume">    160.79823434 </i>
   <varray name="rec_basis" >
    <v>       0.18389626       0.00000000       0.00000000 </v>
    <v>       0.00000000       0.18389626       0.00000000 </v>
    <v>       0.00000000       0.00000000       0.18389626 </v>
   </varray>
  </crystal>
  <varray name="positions" >
   <v>       0.24607912       0.75392088       0.24607912 </v>
   <v>       0.00000000       0.00000000       0.50000000 </v>
   <v>       0.24607912       0.24607912       0.75392088 </v>
   <v>       0.00000000       0.50000000       0.00000000 </v>
   <v>       0.75392088       0.75392088       0.75392088 </v>
   <v>       0.50000000       0.00000000       0.00000000 </v>
   <v>       0.75392088       0.24607912       0.24607912 </v>
  </varray>
 </structure>
</modeling>
