 vasp.6.2.1 16May21 (build Dec 17 2021 11:21:50) complex
 executed on             LinuxGNU date 2022.09.17  09:14:21
 running on  192 total cores
 distrk:  each k-point on  192 cores,    1 groups
 distr:  one band on NCORE=  24 cores,    8 groups


--------------------------------------------------------------------------------------------------------


 INCAR:
   ALGO = Normal
   EDIFF = 1e-07
   ENAUG = 1360
   ENCUT = 700
   GGA = Ps
   IBRION = 2
   ISIF = 3
   ISMEAR = 0
   ISPIN = 2
   LAECHG = False
   LASPH = True
   LCHARG = False
   LELF = False
   LMAXMIX = 4
   LMIXTAU = True
   LORBIT = 11
   LREAL = False
   LVTOT = True
   LWAVE = False
   MAGMOM = 10*0.6
   NELM = 200
   NPAR = 8
   NSW = 0
   PREC = Accurate
   SIGMA = 0.05

 POTCAR:    PAW_PBE Mg 13Apr2007
 POTCAR:    PAW_PBE Sb 06Sep2000
 WARNING: For LVTOT=.TRUE., VASP.5.x writes the TOTAL local potential to the
     file LOCPOT. If you want only the Hartree contributions, use LVHAR=.TRUE.
     instead.

 POTCAR:    PAW_PBE Mg 13Apr2007
   VRHFIN =Mg: s2p0
   LEXCH  = PE
   EATOM  =    23.0369 eV,    1.6932 Ry

   TITEL  = PAW_PBE Mg 13Apr2007
   LULTRA =        F    use ultrasoft PP ?
   IUNSCR =        1    unscreen: 0-lin 1-nonlin 2-no
   RPACOR =    1.500    partial core radius
   POMASS =   24.305; ZVAL   =    2.000    mass and valenz
   RCORE  =    2.000    outmost cutoff radius
   RWIGS  =    2.880; RWIGS  =    1.524    wigner-seitz radius (au A)
   ENMAX  =  200.000; ENMIN  =  100.000 eV
   RCLOC  =    1.506    cutoff for local pot
   LCOR   =        T    correct aug charges
   LPAW   =        T    paw PP
   EAUG   =  454.734
   DEXC   =    0.000
   RMAX   =    2.045    core radius for proj-oper
   RAUG   =    1.300    factor for augmentation sphere
   RDEP   =    2.025    radius for radial grids
   RDEPT  =    1.942    core radius for aug-charge

   Atomic configuration
    6 entries
     n  l   j            E        occ.
     1  0  0.50     -1259.6230   2.0000
     2  0  0.50       -79.8442   2.0000
     2  1  1.50       -46.6121   6.0000
     3  0  0.50        -4.7055   2.0000
     3  1  0.50        -1.3660   0.0000
     3  2  1.50        -1.3606   0.0000
   Description
     l       E           TYP  RCUT    TYP  RCUT
     0     -4.7054661     23  2.000
     0     27.2116520     23  2.000
     1      1.3605826     23  2.000
     1     27.2116520     23  2.000
     2     -1.3605826     23  2.000
  local pseudopotential read in
  partial core-charges read in
  partial kinetic energy density read in
  atomic valenz-charges read in
  non local Contribution for L=           0  read in
    real space projection operators read in
  non local Contribution for L=           0  read in
    real space projection operators read in
  non local Contribution for L=           1  read in
    real space projection operators read in
  non local Contribution for L=           1  read in
    real space projection operators read in
  non local Contribution for L=           2  read in
    real space projection operators read in
    PAW grid and wavefunctions read in

   number of l-projection  operators is LMAX  =           5
   number of lm-projection operators is LMMAX =          13

 POTCAR:    PAW_PBE Sb 06Sep2000
   VRHFIN =Sb: s2p3
   LEXCH  = PE
   EATOM  =   149.9515 eV,   11.0211 Ry

   TITEL  = PAW_PBE Sb 06Sep2000
   LULTRA =        F    use ultrasoft PP ?
   IUNSCR =        1    unscreen: 0-lin 1-nonlin 2-no
   RPACOR =    2.200    partial core radius
   POMASS =  121.750; ZVAL   =    5.000    mass and valenz
   RCORE  =    2.300    outmost cutoff radius
   RWIGS  =    2.980; RWIGS  =    1.577    wigner-seitz radius (au A)
   ENMAX  =  172.069; ENMIN  =  129.052 eV
   ICORE  =        3    local potential
   LCOR   =        T    correct aug charges
   LPAW   =        T    paw PP
   EAUG   =  380.513
   DEXC   =    0.000
   RMAX   =    2.346    core radius for proj-oper
   RAUG   =    1.300    factor for augmentation sphere
   RDEP   =    2.360    radius for radial grids
   RDEPT  =    2.192    core radius for aug-charge

   Atomic configuration
   13 entries
     n  l   j            E        occ.
     1  0  0.50    -30298.2797   2.0000
     2  0  0.50     -4610.2252   2.0000
     2  1  1.50     -4138.3407   6.0000
     3  0  0.50      -903.8815   2.0000
     3  1  1.50      -750.1337   6.0000
     3  2  2.50      -515.7092  10.0000
     4  0  0.50      -148.8034   2.0000
     4  1  1.50      -101.7581   6.0000
     4  2  2.50       -33.5048  10.0000
     5  0  0.50       -12.8298   2.0000
     5  1  0.50        -4.8276   3.0000
     5  2  1.50        -4.0817   0.0000
     4  3  2.50        -4.0817   0.0000
   Description
     l       E           TYP  RCUT    TYP  RCUT
     0    -12.8297861     23  2.300
     0     13.6058260     23  2.300
     1     -4.8275512     23  2.300
     1     -0.7245443     23  2.300
     2     -4.0817478     23  2.300
     3     -1.3605826     23  2.300
  local pseudopotential read in
  partial core-charges read in
  partial kinetic energy density read in
  atomic valenz-charges read in
  non local Contribution for L=           0  read in
    real space projection operators read in
  non local Contribution for L=           0  read in
    real space projection operators read in
  non local Contribution for L=           1  read in
    real space projection operators read in
  non local Contribution for L=           1  read in
    real space projection operators read in
  non local Contribution for L=           2  read in
    real space projection operators read in
    PAW grid and wavefunctions read in

   number of l-projection  operators is LMAX  =           5
   number of lm-projection operators is LMMAX =          13

 -----------------------------------------------------------------------------
|                                                                             |
|               ----> ADVICE to this user running VASP <----                  |
|                                                                             |
|     You enforced a specific xc type in the INCAR file but a different       |
|     type was found in the POTCAR file.                                      |
|     I HOPE YOU KNOW WHAT YOU ARE DOING!                                     |
|                                                                             |
 -----------------------------------------------------------------------------

  PAW_PBE Mg 13Apr2007                  :
 energy of atom  1       EATOM=  -23.0369
 kinetic energy error for atom=    0.0000 (will be added to EATOM!!)
  PAW_PBE Sb 06Sep2000                  :
 energy of atom  2       EATOM= -149.9515
 kinetic energy error for atom=    0.0002 (will be added to EATOM!!)


 POSCAR: Mg6 Sb4
  positions in direct lattice
  No initial velocities read in
 exchange correlation table for  LEXCH =       14
   RHO(1)=    0.500       N(1)  =     2000
   RHO(2)=  100.500       N(2)  =     4000



--------------------------------------------------------------------------------------------------------


 ion  position               nearest neighbor table
   1  0.000  0.000  0.000-   7 3.12   9 3.12   7 3.12   9 3.12   8 3.12  10 3.12
   2  0.500  0.500  0.000-   8 3.12  10 3.12   8 3.12  10 3.12   9 3.12   7 3.12
   3  0.834  0.501  0.368-   9 2.85  10 2.85  10 2.86   7 2.96   5 3.27   6 3.28   6 3.28
   4  0.333  0.000  0.368-  10 2.85   9 2.85   9 2.85   8 2.96   6 3.28   5 3.28   5 3.28
   5  0.167  0.500  0.632-   7 2.85   8 2.85   8 2.85   9 2.96   3 3.27   4 3.28   4 3.28
   6  0.667  0.000  0.632-   8 2.85   7 2.85   7 2.85  10 2.96   4 3.28   3 3.28   3 3.28
   7  0.833  0.500  0.775-   5 2.85   6 2.85   6 2.85   3 2.96   1 3.12   1 3.12   2 3.12
   8  0.333  0.000  0.775-   6 2.85   5 2.85   5 2.85   4 2.96   2 3.12   2 3.12   1 3.12
   9  0.167  0.500  0.225-   3 2.85   4 2.85   4 2.85   5 2.96   1 3.12   1 3.12   2 3.12
  10  0.667  0.000  0.225-   4 2.85   3 2.85   3 2.86   6 2.96   2 3.12   2 3.12   1 3.12

  LATTYP: Found a simple orthorhombic cell.
 ALAT       =     4.6007429778
 B/A-ratio  =     1.5826422026
 C/A-ratio  =     1.7320508076

  Lattice vectors:

 A1 = (   4.6007429778,   0.0000000000,   0.0000000000)
 A2 = (   0.0000000000,   0.0000000000,   7.2813300000)
 A3 = (   0.0000000000,  -7.9687205902,   0.0000000000)


Analysis of symmetry for initial positions (statically):
=====================================================================
 Subroutine PRICEL returns:
 Original cell was already a primitive cell.


 Routine SETGRP: Setting up the symmetry group for a
 simple orthorhombic supercell.


 Subroutine GETGRP returns: Found  1 space group operations
 (whereof  1 operations were pure point group operations)
 out of a pool of  8 trial point group operations.


The static configuration has the point symmetry C_1 .


Analysis of symmetry for dynamics (positions and initial velocities):
=====================================================================
 Subroutine PRICEL returns:
 Original cell was already a primitive cell.


 Routine SETGRP: Setting up the symmetry group for a
 simple orthorhombic supercell.


 Subroutine GETGRP returns: Found  1 space group operations
 (whereof  1 operations were pure point group operations)
 out of a pool of  8 trial point group operations.


The dynamic configuration has the point symmetry C_1 .


Analysis of structural, dynamic, and magnetic symmetry:
=====================================================================
 Subroutine PRICEL returns:
 Original cell was already a primitive cell.


 Routine SETGRP: Setting up the symmetry group for a
 simple orthorhombic supercell.


 Subroutine GETGRP returns: Found  1 space group operations
 (whereof  1 operations were pure point group operations)
 out of a pool of  8 trial point group operations.


The overall configuration has the point symmetry C_1 .


 Subroutine INISYM returns: Found  1 space group operations
 (whereof  1 operations are pure point group operations),
 and found     1 'primitive' translations


----------------------------------------------------------------------------------------

                                     Primitive cell

  volume of cell :     266.9484

  direct lattice vectors                    reciprocal lattice vectors
     0.000000000 -7.968720590  0.000000000     0.000000000 -0.125490659  0.000000000
     4.600742978  0.000000000  0.000000000     0.217356198  0.000000000 -0.000000000
     0.000000000  0.000000000  7.281330000    -0.000000000  0.000000000  0.137337547

  length of vectors
     7.968720590  4.600742978  7.281330000     0.125490659  0.217356198  0.137337547

  position of ions in fractional coordinates (direct lattice)
     0.000000000  0.000000000  0.000000000
     0.500000000  0.500000000  0.000000000
     0.834420114  0.501086781  0.368325000
     0.333333333  0.000000000  0.368325000
     0.166666667  0.500000000  0.631675000
     0.666666667  0.000000000  0.631675000
     0.833333333  0.500000000  0.774749000
     0.333333333  0.000000000  0.774749000
     0.166666667  0.500000000  0.225251000
     0.666666667  0.000000000  0.225251000

  ion indices of the primitive-cell ions
   primitive index   ion index
                 1           1
                 2           2
                 3           3
                 4           4
                 5           5
                 6           6
                 7           7
                 8           8
                 9           9
                10          10

----------------------------------------------------------------------------------------



 KPOINTS: pymatgen with grid density = 7000 / numb

Automatic generation of k-mesh.
 Grid dimensions read from file:
 generate k-points for:    7   12    7

 Generating k-lattice:

  Cartesian coordinates                     Fractional coordinates (reciprocal lattice)
     0.000000000 -0.017927237  0.000000000     0.142857143  0.000000000  0.000000000
     0.018113016  0.000000000 -0.000000000     0.000000000  0.083333333  0.000000000
    -0.000000000  0.000000000  0.019619650     0.000000000  0.000000000  0.142857143

  Length of vectors
     0.017927237  0.018113016  0.019619650

  Shift w.r.t. Gamma in fractional coordinates (k-lattice)
     0.000000000  0.000000000  0.000000000


 Subroutine IBZKPT returns following result:
 ===========================================

 Found    295 irreducible k-points:

 Following reciprocal coordinates:
            Coordinates               Weight
  0.000000  0.000000  0.000000      1.000000
  0.142857  0.000000  0.000000      2.000000
  0.285714  0.000000  0.000000      2.000000
  0.428571  0.000000  0.000000      2.000000
  0.000000  0.083333  0.000000      2.000000
  0.142857  0.083333  0.000000      2.000000
 -0.142857  0.083333  0.000000      2.000000
  0.285714  0.083333  0.000000      2.000000
 -0.285714  0.083333  0.000000      2.000000
  0.428571  0.083333  0.000000      2.000000
 -0.428571  0.083333  0.000000      2.000000
  0.000000  0.166667  0.000000      2.000000
  0.142857  0.166667  0.000000      2.000000
 -0.142857  0.166667  0.000000      2.000000
  0.285714  0.166667  0.000000      2.000000
 -0.285714  0.166667  0.000000      2.000000
  0.428571  0.166667  0.000000      2.000000
 -0.428571  0.166667  0.000000      2.000000
  0.000000  0.250000  0.000000      2.000000
  0.142857  0.250000  0.000000      2.000000
 -0.142857  0.250000  0.000000      2.000000
  0.285714  0.250000  0.000000      2.000000
 -0.285714  0.250000  0.000000      2.000000
  0.428571  0.250000  0.000000      2.000000
 -0.428571  0.250000  0.000000      2.000000
  0.000000  0.333333  0.000000      2.000000
  0.142857  0.333333  0.000000      2.000000
 -0.142857  0.333333  0.000000      2.000000
  0.285714  0.333333  0.000000      2.000000
 -0.285714  0.333333  0.000000      2.000000
  0.428571  0.333333  0.000000      2.000000
 -0.428571  0.333333  0.000000      2.000000
  0.000000  0.416667  0.000000      2.000000
  0.142857  0.416667  0.000000      2.000000
 -0.142857  0.416667  0.000000      2.000000
  0.285714  0.416667  0.000000      2.000000
 -0.285714  0.416667  0.000000      2.000000
  0.428571  0.416667  0.000000      2.000000
 -0.428571  0.416667  0.000000      2.000000
  0.000000  0.500000  0.000000      1.000000
  0.142857  0.500000  0.000000      2.000000
  0.285714  0.500000  0.000000      2.000000
  0.428571  0.500000  0.000000      2.000000
  0.000000  0.000000  0.142857      2.000000
  0.142857  0.000000  0.142857      2.000000
 -0.142857  0.000000  0.142857      2.000000
  0.285714  0.000000  0.142857      2.000000
 -0.285714  0.000000  0.142857      2.000000
  0.428571  0.000000  0.142857      2.000000
 -0.428571  0.000000  0.142857      2.000000
  0.000000  0.083333  0.142857      2.000000
  0.000000  0.083333 -0.142857      2.000000
  0.142857  0.083333  0.142857      2.000000
 -0.142857  0.083333 -0.142857      2.000000
 -0.142857 -0.083333  0.142857      2.000000
  0.142857 -0.083333 -0.142857      2.000000
  0.285714  0.083333  0.142857      2.000000
 -0.285714  0.083333 -0.142857      2.000000
 -0.285714 -0.083333  0.142857      2.000000
  0.285714 -0.083333 -0.142857      2.000000
  0.428571  0.083333  0.142857      2.000000
 -0.428571  0.083333 -0.142857      2.000000
 -0.428571 -0.083333  0.142857      2.000000
  0.428571 -0.083333 -0.142857      2.000000
  0.000000  0.166667  0.142857      2.000000
  0.000000  0.166667 -0.142857      2.000000
  0.142857  0.166667  0.142857      2.000000
 -0.142857  0.166667 -0.142857      2.000000
 -0.142857 -0.166667  0.142857      2.000000
  0.142857 -0.166667 -0.142857      2.000000
  0.285714  0.166667  0.142857      2.000000
 -0.285714  0.166667 -0.142857      2.000000
 -0.285714 -0.166667  0.142857      2.000000
  0.285714 -0.166667 -0.142857      2.000000
  0.428571  0.166667  0.142857      2.000000
 -0.428571  0.166667 -0.142857      2.000000
 -0.428571 -0.166667  0.142857      2.000000
  0.428571 -0.166667 -0.142857      2.000000
  0.000000  0.250000  0.142857      2.000000
  0.000000  0.250000 -0.142857      2.000000
  0.142857  0.250000  0.142857      2.000000
 -0.142857  0.250000 -0.142857      2.000000
 -0.142857 -0.250000  0.142857      2.000000
  0.142857 -0.250000 -0.142857      2.000000
  0.285714  0.250000  0.142857      2.000000
 -0.285714  0.250000 -0.142857      2.000000
 -0.285714 -0.250000  0.142857      2.000000
  0.285714 -0.250000 -0.142857      2.000000
  0.428571  0.250000  0.142857      2.000000
 -0.428571  0.250000 -0.142857      2.000000
 -0.428571 -0.250000  0.142857      2.000000
  0.428571 -0.250000 -0.142857      2.000000
  0.000000  0.333333  0.142857      2.000000
  0.000000  0.333333 -0.142857      2.000000
  0.142857  0.333333  0.142857      2.000000
 -0.142857  0.333333 -0.142857      2.000000
 -0.142857 -0.333333  0.142857      2.000000
  0.142857 -0.333333 -0.142857      2.000000
  0.285714  0.333333  0.142857      2.000000
 -0.285714  0.333333 -0.142857      2.000000
 -0.285714 -0.333333  0.142857      2.000000
  0.285714 -0.333333 -0.142857      2.000000
  0.428571  0.333333  0.142857      2.000000
 -0.428571  0.333333 -0.142857      2.000000
 -0.428571 -0.333333  0.142857      2.000000
  0.428571 -0.333333 -0.142857      2.000000
  0.000000  0.416667  0.142857      2.000000
  0.000000  0.416667 -0.142857      2.000000
  0.142857  0.416667  0.142857      2.000000
 -0.142857  0.416667 -0.142857      2.000000
 -0.142857 -0.416667  0.142857      2.000000
  0.142857 -0.416667 -0.142857      2.000000
  0.285714  0.416667  0.142857      2.000000
 -0.285714  0.416667 -0.142857      2.000000
 -0.285714 -0.416667  0.142857      2.000000
  0.285714 -0.416667 -0.142857      2.000000
  0.428571  0.416667  0.142857      2.000000
 -0.428571  0.416667 -0.142857      2.000000
 -0.428571 -0.416667  0.142857      2.000000
  0.428571 -0.416667 -0.142857      2.000000
  0.000000  0.500000  0.142857      2.000000
  0.142857  0.500000  0.142857      2.000000
 -0.142857  0.500000  0.142857      2.000000
  0.285714  0.500000  0.142857      2.000000
 -0.285714  0.500000  0.142857      2.000000
  0.428571  0.500000  0.142857      2.000000
 -0.428571  0.500000  0.142857      2.000000
  0.000000  0.000000  0.285714      2.000000
  0.142857  0.000000  0.285714      2.000000
 -0.142857  0.000000  0.285714      2.000000
  0.285714  0.000000  0.285714      2.000000
 -0.285714  0.000000  0.285714      2.000000
  0.428571  0.000000  0.285714      2.000000
 -0.428571  0.000000  0.285714      2.000000
  0.000000  0.083333  0.285714      2.000000
  0.000000  0.083333 -0.285714      2.000000
  0.142857  0.083333  0.285714      2.000000
 -0.142857  0.083333 -0.285714      2.000000
 -0.142857 -0.083333  0.285714      2.000000
  0.142857 -0.083333 -0.285714      2.000000
  0.285714  0.083333  0.285714      2.000000
 -0.285714  0.083333 -0.285714      2.000000
 -0.285714 -0.083333  0.285714      2.000000
  0.285714 -0.083333 -0.285714      2.000000
  0.428571  0.083333  0.285714      2.000000
 -0.428571  0.083333 -0.285714      2.000000
 -0.428571 -0.083333  0.285714      2.000000
  0.428571 -0.083333 -0.285714      2.000000
  0.000000  0.166667  0.285714      2.000000
  0.000000  0.166667 -0.285714      2.000000
  0.142857  0.166667  0.285714      2.000000
 -0.142857  0.166667 -0.285714      2.000000
 -0.142857 -0.166667  0.285714      2.000000
  0.142857 -0.166667 -0.285714      2.000000
  0.285714  0.166667  0.285714      2.000000
 -0.285714  0.166667 -0.285714      2.000000
 -0.285714 -0.166667  0.285714      2.000000
  0.285714 -0.166667 -0.285714      2.000000
  0.428571  0.166667  0.285714      2.000000
 -0.428571  0.166667 -0.285714      2.000000
 -0.428571 -0.166667  0.285714      2.000000
  0.428571 -0.166667 -0.285714      2.000000
  0.000000  0.250000  0.285714      2.000000
  0.000000  0.250000 -0.285714      2.000000
  0.142857  0.250000  0.285714      2.000000
 -0.142857  0.250000 -0.285714      2.000000
 -0.142857 -0.250000  0.285714      2.000000
  0.142857 -0.250000 -0.285714      2.000000
  0.285714  0.250000  0.285714      2.000000
 -0.285714  0.250000 -0.285714      2.000000
 -0.285714 -0.250000  0.285714      2.000000
  0.285714 -0.250000 -0.285714      2.000000
  0.428571  0.250000  0.285714      2.000000
 -0.428571  0.250000 -0.285714      2.000000
 -0.428571 -0.250000  0.285714      2.000000
  0.428571 -0.250000 -0.285714      2.000000
  0.000000  0.333333  0.285714      2.000000
  0.000000  0.333333 -0.285714      2.000000
  0.142857  0.333333  0.285714      2.000000
 -0.142857  0.333333 -0.285714      2.000000
 -0.142857 -0.333333  0.285714      2.000000
  0.142857 -0.333333 -0.285714      2.000000
  0.285714  0.333333  0.285714      2.000000
 -0.285714  0.333333 -0.285714      2.000000
 -0.285714 -0.333333  0.285714      2.000000
  0.285714 -0.333333 -0.285714      2.000000
  0.428571  0.333333  0.285714      2.000000
 -0.428571  0.333333 -0.285714      2.000000
 -0.428571 -0.333333  0.285714      2.000000
  0.428571 -0.333333 -0.285714      2.000000
  0.000000  0.416667  0.285714      2.000000
  0.000000  0.416667 -0.285714      2.000000
  0.142857  0.416667  0.285714      2.000000
 -0.142857  0.416667 -0.285714      2.000000
 -0.142857 -0.416667  0.285714      2.000000
  0.142857 -0.416667 -0.285714      2.000000
  0.285714  0.416667  0.285714      2.000000
 -0.285714  0.416667 -0.285714      2.000000
 -0.285714 -0.416667  0.285714      2.000000
  0.285714 -0.416667 -0.285714      2.000000
  0.428571  0.416667  0.285714      2.000000
 -0.428571  0.416667 -0.285714      2.000000
 -0.428571 -0.416667  0.285714      2.000000
  0.428571 -0.416667 -0.285714      2.000000
  0.000000  0.500000  0.285714      2.000000
  0.142857  0.500000  0.285714      2.000000
 -0.142857  0.500000  0.285714      2.000000
  0.285714  0.500000  0.285714      2.000000
 -0.285714  0.500000  0.285714      2.000000
  0.428571  0.500000  0.285714      2.000000
 -0.428571  0.500000  0.285714      2.000000
  0.000000  0.000000  0.428571      2.000000
  0.142857  0.000000  0.428571      2.000000
 -0.142857  0.000000  0.428571      2.000000
  0.285714  0.000000  0.428571      2.000000
 -0.285714  0.000000  0.428571      2.000000
  0.428571  0.000000  0.428571      2.000000
 -0.428571  0.000000  0.428571      2.000000
  0.000000  0.083333  0.428571      2.000000
  0.000000  0.083333 -0.428571      2.000000
  0.142857  0.083333  0.428571      2.000000
 -0.142857  0.083333 -0.428571      2.000000
 -0.142857 -0.083333  0.428571      2.000000
  0.142857 -0.083333 -0.428571      2.000000
  0.285714  0.083333  0.428571      2.000000
 -0.285714  0.083333 -0.428571      2.000000
 -0.285714 -0.083333  0.428571      2.000000
  0.285714 -0.083333 -0.428571      2.000000
  0.428571  0.083333  0.428571      2.000000
 -0.428571  0.083333 -0.428571      2.000000
 -0.428571 -0.083333  0.428571      2.000000
  0.428571 -0.083333 -0.428571      2.000000
  0.000000  0.166667  0.428571      2.000000
  0.000000  0.166667 -0.428571      2.000000
  0.142857  0.166667  0.428571      2.000000
 -0.142857  0.166667 -0.428571      2.000000
 -0.142857 -0.166667  0.428571      2.000000
  0.142857 -0.166667 -0.428571      2.000000
  0.285714  0.166667  0.428571      2.000000
 -0.285714  0.166667 -0.428571      2.000000
 -0.285714 -0.166667  0.428571      2.000000
  0.285714 -0.166667 -0.428571      2.000000
  0.428571  0.166667  0.428571      2.000000
 -0.428571  0.166667 -0.428571      2.000000
 -0.428571 -0.166667  0.428571      2.000000
  0.428571 -0.166667 -0.428571      2.000000
  0.000000  0.250000  0.428571      2.000000
  0.000000  0.250000 -0.428571      2.000000
  0.142857  0.250000  0.428571      2.000000
 -0.142857  0.250000 -0.428571      2.000000
 -0.142857 -0.250000  0.428571      2.000000
  0.142857 -0.250000 -0.428571      2.000000
  0.285714  0.250000  0.428571      2.000000
 -0.285714  0.250000 -0.428571      2.000000
 -0.285714 -0.250000  0.428571      2.000000
  0.285714 -0.250000 -0.428571      2.000000
  0.428571  0.250000  0.428571      2.000000
 -0.428571  0.250000 -0.428571      2.000000
 -0.428571 -0.250000  0.428571      2.000000
  0.428571 -0.250000 -0.428571      2.000000
  0.000000  0.333333  0.428571      2.000000
  0.000000  0.333333 -0.428571      2.000000
  0.142857  0.333333  0.428571      2.000000
 -0.142857  0.333333 -0.428571      2.000000
 -0.142857 -0.333333  0.428571      2.000000
  0.142857 -0.333333 -0.428571      2.000000
  0.285714  0.333333  0.428571      2.000000
 -0.285714  0.333333 -0.428571      2.000000
 -0.285714 -0.333333  0.428571      2.000000
  0.285714 -0.333333 -0.428571      2.000000
  0.428571  0.333333  0.428571      2.000000
 -0.428571  0.333333 -0.428571      2.000000
 -0.428571 -0.333333  0.428571      2.000000
  0.428571 -0.333333 -0.428571      2.000000
  0.000000  0.416667  0.428571      2.000000
  0.000000  0.416667 -0.428571      2.000000
  0.142857  0.416667  0.428571      2.000000
 -0.142857  0.416667 -0.428571      2.000000
 -0.142857 -0.416667  0.428571      2.000000
  0.142857 -0.416667 -0.428571      2.000000
  0.285714  0.416667  0.428571      2.000000
 -0.285714  0.416667 -0.428571      2.000000
 -0.285714 -0.416667  0.428571      2.000000
  0.285714 -0.416667 -0.428571      2.000000
  0.428571  0.416667  0.428571      2.000000
 -0.428571  0.416667 -0.428571      2.000000
 -0.428571 -0.416667  0.428571      2.000000
  0.428571 -0.416667 -0.428571      2.000000
  0.000000  0.500000  0.428571      2.000000
  0.142857  0.500000  0.428571      2.000000
 -0.142857  0.500000  0.428571      2.000000
  0.285714  0.500000  0.428571      2.000000
 -0.285714  0.500000  0.428571      2.000000
  0.428571  0.500000  0.428571      2.000000
 -0.428571  0.500000  0.428571      2.000000

 Following cartesian coordinates:
            Coordinates               Weight
  0.000000 -0.000000  0.000000      1.000000
  0.000000 -0.017927  0.000000      2.000000
  0.000000 -0.035854  0.000000      2.000000
  0.000000 -0.053782  0.000000      2.000000
  0.018113 -0.000000  0.000000      2.000000
  0.018113 -0.017927  0.000000      2.000000
  0.018113  0.017927  0.000000      2.000000
  0.018113 -0.035854  0.000000      2.000000
  0.018113  0.035854  0.000000      2.000000
  0.018113 -0.053782  0.000000      2.000000
  0.018113  0.053782  0.000000      2.000000
  0.036226 -0.000000  0.000000      2.000000
  0.036226 -0.017927  0.000000      2.000000
  0.036226  0.017927  0.000000      2.000000
  0.036226 -0.035854  0.000000      2.000000
  0.036226  0.035854  0.000000      2.000000
  0.036226 -0.053782  0.000000      2.000000
  0.036226  0.053782  0.000000      2.000000
  0.054339 -0.000000  0.000000      2.000000
  0.054339 -0.017927  0.000000      2.000000
  0.054339  0.017927  0.000000      2.000000
  0.054339 -0.035854  0.000000      2.000000
  0.054339  0.035854  0.000000      2.000000
  0.054339 -0.053782  0.000000      2.000000
  0.054339  0.053782  0.000000      2.000000
  0.072452 -0.000000  0.000000      2.000000
  0.072452 -0.017927  0.000000      2.000000
  0.072452  0.017927  0.000000      2.000000
  0.072452 -0.035854  0.000000      2.000000
  0.072452  0.035854  0.000000      2.000000
  0.072452 -0.053782  0.000000      2.000000
  0.072452  0.053782  0.000000      2.000000
  0.090565 -0.000000  0.000000      2.000000
  0.090565 -0.017927  0.000000      2.000000
  0.090565  0.017927  0.000000      2.000000
  0.090565 -0.035854  0.000000      2.000000
  0.090565  0.035854  0.000000      2.000000
  0.090565 -0.053782  0.000000      2.000000
  0.090565  0.053782  0.000000      2.000000
  0.108678 -0.000000  0.000000      1.000000
  0.108678 -0.017927  0.000000      2.000000
  0.108678 -0.035854  0.000000      2.000000
  0.108678 -0.053782  0.000000      2.000000
  0.000000 -0.000000  0.019620      2.000000
  0.000000 -0.017927  0.019620      2.000000
  0.000000  0.017927  0.019620      2.000000
  0.000000 -0.035854  0.019620      2.000000
  0.000000  0.035854  0.019620      2.000000
  0.000000 -0.053782  0.019620      2.000000
  0.000000  0.053782  0.019620      2.000000
  0.018113 -0.000000  0.019620      2.000000
  0.018113 -0.000000 -0.019620      2.000000
  0.018113 -0.017927  0.019620      2.000000
  0.018113  0.017927 -0.019620      2.000000
 -0.018113  0.017927  0.019620      2.000000
 -0.018113 -0.017927 -0.019620      2.000000
  0.018113 -0.035854  0.019620      2.000000
  0.018113  0.035854 -0.019620      2.000000
 -0.018113  0.035854  0.019620      2.000000
 -0.018113 -0.035854 -0.019620      2.000000
  0.018113 -0.053782  0.019620      2.000000
  0.018113  0.053782 -0.019620      2.000000
 -0.018113  0.053782  0.019620      2.000000
 -0.018113 -0.053782 -0.019620      2.000000
  0.036226 -0.000000  0.019620      2.000000
  0.036226 -0.000000 -0.019620      2.000000
  0.036226 -0.017927  0.019620      2.000000
  0.036226  0.017927 -0.019620      2.000000
 -0.036226  0.017927  0.019620      2.000000
 -0.036226 -0.017927 -0.019620      2.000000
  0.036226 -0.035854  0.019620      2.000000
  0.036226  0.035854 -0.019620      2.000000
 -0.036226  0.035854  0.019620      2.000000
 -0.036226 -0.035854 -0.019620      2.000000
  0.036226 -0.053782  0.019620      2.000000
  0.036226  0.053782 -0.019620      2.000000
 -0.036226  0.053782  0.019620      2.000000
 -0.036226 -0.053782 -0.019620      2.000000
  0.054339 -0.000000  0.019620      2.000000
  0.054339 -0.000000 -0.019620      2.000000
  0.054339 -0.017927  0.019620      2.000000
  0.054339  0.017927 -0.019620      2.000000
 -0.054339  0.017927  0.019620      2.000000
 -0.054339 -0.017927 -0.019620      2.000000
  0.054339 -0.035854  0.019620      2.000000
  0.054339  0.035854 -0.019620      2.000000
 -0.054339  0.035854  0.019620      2.000000
 -0.054339 -0.035854 -0.019620      2.000000
  0.054339 -0.053782  0.019620      2.000000
  0.054339  0.053782 -0.019620      2.000000
 -0.054339  0.053782  0.019620      2.000000
 -0.054339 -0.053782 -0.019620      2.000000
  0.072452 -0.000000  0.019620      2.000000
  0.072452 -0.000000 -0.019620      2.000000
  0.072452 -0.017927  0.019620      2.000000
  0.072452  0.017927 -0.019620      2.000000
 -0.072452  0.017927  0.019620      2.000000
 -0.072452 -0.017927 -0.019620      2.000000
  0.072452 -0.035854  0.019620      2.000000
  0.072452  0.035854 -0.019620      2.000000
 -0.072452  0.035854  0.019620      2.000000
 -0.072452 -0.035854 -0.019620      2.000000
  0.072452 -0.053782  0.019620      2.000000
  0.072452  0.053782 -0.019620      2.000000
 -0.072452  0.053782  0.019620      2.000000
 -0.072452 -0.053782 -0.019620      2.000000
  0.090565 -0.000000  0.019620      2.000000
  0.090565 -0.000000 -0.019620      2.000000
  0.090565 -0.017927  0.019620      2.000000
  0.090565  0.017927 -0.019620      2.000000
 -0.090565  0.017927  0.019620      2.000000
 -0.090565 -0.017927 -0.019620      2.000000
  0.090565 -0.035854  0.019620      2.000000
  0.090565  0.035854 -0.019620      2.000000
 -0.090565  0.035854  0.019620      2.000000
 -0.090565 -0.035854 -0.019620      2.000000
  0.090565 -0.053782  0.019620      2.000000
  0.090565  0.053782 -0.019620      2.000000
 -0.090565  0.053782  0.019620      2.000000
 -0.090565 -0.053782 -0.019620      2.000000
  0.108678 -0.000000  0.019620      2.000000
  0.108678 -0.017927  0.019620      2.000000
  0.108678  0.017927  0.019620      2.000000
  0.108678 -0.035854  0.019620      2.000000
  0.108678  0.035854  0.019620      2.000000
  0.108678 -0.053782  0.019620      2.000000
  0.108678  0.053782  0.019620      2.000000
  0.000000 -0.000000  0.039239      2.000000
  0.000000 -0.017927  0.039239      2.000000
  0.000000  0.017927  0.039239      2.000000
  0.000000 -0.035854  0.039239      2.000000
  0.000000  0.035854  0.039239      2.000000
  0.000000 -0.053782  0.039239      2.000000
  0.000000  0.053782  0.039239      2.000000
  0.018113 -0.000000  0.039239      2.000000
  0.018113 -0.000000 -0.039239      2.000000
  0.018113 -0.017927  0.039239      2.000000
  0.018113  0.017927 -0.039239      2.000000
 -0.018113  0.017927  0.039239      2.000000
 -0.018113 -0.017927 -0.039239      2.000000
  0.018113 -0.035854  0.039239      2.000000
  0.018113  0.035854 -0.039239      2.000000
 -0.018113  0.035854  0.039239      2.000000
 -0.018113 -0.035854 -0.039239      2.000000
  0.018113 -0.053782  0.039239      2.000000
  0.018113  0.053782 -0.039239      2.000000
 -0.018113  0.053782  0.039239      2.000000
 -0.018113 -0.053782 -0.039239      2.000000
  0.036226 -0.000000  0.039239      2.000000
  0.036226 -0.000000 -0.039239      2.000000
  0.036226 -0.017927  0.039239      2.000000
  0.036226  0.017927 -0.039239      2.000000
 -0.036226  0.017927  0.039239      2.000000
 -0.036226 -0.017927 -0.039239      2.000000
  0.036226 -0.035854  0.039239      2.000000
  0.036226  0.035854 -0.039239      2.000000
 -0.036226  0.035854  0.039239      2.000000
 -0.036226 -0.035854 -0.039239      2.000000
  0.036226 -0.053782  0.039239      2.000000
  0.036226  0.053782 -0.039239      2.000000
 -0.036226  0.053782  0.039239      2.000000
 -0.036226 -0.053782 -0.039239      2.000000
  0.054339 -0.000000  0.039239      2.000000
  0.054339 -0.000000 -0.039239      2.000000
  0.054339 -0.017927  0.039239      2.000000
  0.054339  0.017927 -0.039239      2.000000
 -0.054339  0.017927  0.039239      2.000000
 -0.054339 -0.017927 -0.039239      2.000000
  0.054339 -0.035854  0.039239      2.000000
  0.054339  0.035854 -0.039239      2.000000
 -0.054339  0.035854  0.039239      2.000000
 -0.054339 -0.035854 -0.039239      2.000000
  0.054339 -0.053782  0.039239      2.000000
  0.054339  0.053782 -0.039239      2.000000
 -0.054339  0.053782  0.039239      2.000000
 -0.054339 -0.053782 -0.039239      2.000000
  0.072452 -0.000000  0.039239      2.000000
  0.072452 -0.000000 -0.039239      2.000000
  0.072452 -0.017927  0.039239      2.000000
  0.072452  0.017927 -0.039239      2.000000
 -0.072452  0.017927  0.039239      2.000000
 -0.072452 -0.017927 -0.039239      2.000000
  0.072452 -0.035854  0.039239      2.000000
  0.072452  0.035854 -0.039239      2.000000
 -0.072452  0.035854  0.039239      2.000000
 -0.072452 -0.035854 -0.039239      2.000000
  0.072452 -0.053782  0.039239      2.000000
  0.072452  0.053782 -0.039239      2.000000
 -0.072452  0.053782  0.039239      2.000000
 -0.072452 -0.053782 -0.039239      2.000000
  0.090565 -0.000000  0.039239      2.000000
  0.090565 -0.000000 -0.039239      2.000000
  0.090565 -0.017927  0.039239      2.000000
  0.090565  0.017927 -0.039239      2.000000
 -0.090565  0.017927  0.039239      2.000000
 -0.090565 -0.017927 -0.039239      2.000000
  0.090565 -0.035854  0.039239      2.000000
  0.090565  0.035854 -0.039239      2.000000
 -0.090565  0.035854  0.039239      2.000000
 -0.090565 -0.035854 -0.039239      2.000000
  0.090565 -0.053782  0.039239      2.000000
  0.090565  0.053782 -0.039239      2.000000
 -0.090565  0.053782  0.039239      2.000000
 -0.090565 -0.053782 -0.039239      2.000000
  0.108678 -0.000000  0.039239      2.000000
  0.108678 -0.017927  0.039239      2.000000
  0.108678  0.017927  0.039239      2.000000
  0.108678 -0.035854  0.039239      2.000000
  0.108678  0.035854  0.039239      2.000000
  0.108678 -0.053782  0.039239      2.000000
  0.108678  0.053782  0.039239      2.000000
  0.000000 -0.000000  0.058859      2.000000
  0.000000 -0.017927  0.058859      2.000000
  0.000000  0.017927  0.058859      2.000000
  0.000000 -0.035854  0.058859      2.000000
  0.000000  0.035854  0.058859      2.000000
  0.000000 -0.053782  0.058859      2.000000
  0.000000  0.053782  0.058859      2.000000
  0.018113 -0.000000  0.058859      2.000000
  0.018113 -0.000000 -0.058859      2.000000
  0.018113 -0.017927  0.058859      2.000000
  0.018113  0.017927 -0.058859      2.000000
 -0.018113  0.017927  0.058859      2.000000
 -0.018113 -0.017927 -0.058859      2.000000
  0.018113 -0.035854  0.058859      2.000000
  0.018113  0.035854 -0.058859      2.000000
 -0.018113  0.035854  0.058859      2.000000
 -0.018113 -0.035854 -0.058859      2.000000
  0.018113 -0.053782  0.058859      2.000000
  0.018113  0.053782 -0.058859      2.000000
 -0.018113  0.053782  0.058859      2.000000
 -0.018113 -0.053782 -0.058859      2.000000
  0.036226 -0.000000  0.058859      2.000000
  0.036226 -0.000000 -0.058859      2.000000
  0.036226 -0.017927  0.058859      2.000000
  0.036226  0.017927 -0.058859      2.000000
 -0.036226  0.017927  0.058859      2.000000
 -0.036226 -0.017927 -0.058859      2.000000
  0.036226 -0.035854  0.058859      2.000000
  0.036226  0.035854 -0.058859      2.000000
 -0.036226  0.035854  0.058859      2.000000
 -0.036226 -0.035854 -0.058859      2.000000
  0.036226 -0.053782  0.058859      2.000000
  0.036226  0.053782 -0.058859      2.000000
 -0.036226  0.053782  0.058859      2.000000
 -0.036226 -0.053782 -0.058859      2.000000
  0.054339 -0.000000  0.058859      2.000000
  0.054339 -0.000000 -0.058859      2.000000
  0.054339 -0.017927  0.058859      2.000000
  0.054339  0.017927 -0.058859      2.000000
 -0.054339  0.017927  0.058859      2.000000
 -0.054339 -0.017927 -0.058859      2.000000
  0.054339 -0.035854  0.058859      2.000000
  0.054339  0.035854 -0.058859      2.000000
 -0.054339  0.035854  0.058859      2.000000
 -0.054339 -0.035854 -0.058859      2.000000
  0.054339 -0.053782  0.058859      2.000000
  0.054339  0.053782 -0.058859      2.000000
 -0.054339  0.053782  0.058859      2.000000
 -0.054339 -0.053782 -0.058859      2.000000
  0.072452 -0.000000  0.058859      2.000000
  0.072452 -0.000000 -0.058859      2.000000
  0.072452 -0.017927  0.058859      2.000000
  0.072452  0.017927 -0.058859      2.000000
 -0.072452  0.017927  0.058859      2.000000
 -0.072452 -0.017927 -0.058859      2.000000
  0.072452 -0.035854  0.058859      2.000000
  0.072452  0.035854 -0.058859      2.000000
 -0.072452  0.035854  0.058859      2.000000
 -0.072452 -0.035854 -0.058859      2.000000
  0.072452 -0.053782  0.058859      2.000000
  0.072452  0.053782 -0.058859      2.000000
 -0.072452  0.053782  0.058859      2.000000
 -0.072452 -0.053782 -0.058859      2.000000
  0.090565 -0.000000  0.058859      2.000000
  0.090565 -0.000000 -0.058859      2.000000
  0.090565 -0.017927  0.058859      2.000000
  0.090565  0.017927 -0.058859      2.000000
 -0.090565  0.017927  0.058859      2.000000
 -0.090565 -0.017927 -0.058859      2.000000
  0.090565 -0.035854  0.058859      2.000000
  0.090565  0.035854 -0.058859      2.000000
 -0.090565  0.035854  0.058859      2.000000
 -0.090565 -0.035854 -0.058859      2.000000
  0.090565 -0.053782  0.058859      2.000000
  0.090565  0.053782 -0.058859      2.000000
 -0.090565  0.053782  0.058859      2.000000
 -0.090565 -0.053782 -0.058859      2.000000
  0.108678 -0.000000  0.058859      2.000000
  0.108678 -0.017927  0.058859      2.000000
  0.108678  0.017927  0.058859      2.000000
  0.108678 -0.035854  0.058859      2.000000
  0.108678  0.035854  0.058859      2.000000
  0.108678 -0.053782  0.058859      2.000000
  0.108678  0.053782  0.058859      2.000000



--------------------------------------------------------------------------------------------------------




 Dimension of arrays:
   k-points           NKPTS =    295   k-points in BZ     NKDIM =    295   number of bands    NBANDS=     32
   number of dos      NEDOS =    301   number of ions     NIONS =     10
   non local maximal  LDIM  =      5   non local SUM 2l+1 LMDIM =     13
   total plane-waves  NPLWV = 179200
   max r-space proj   IRMAX =      1   max aug-charges    IRDMAX=  37449
   dimension x,y,z NGX =    70 NGY =   40 NGZ =   64
   dimension x,y,z NGXF=   140 NGYF=   80 NGZF=  128
   support grid    NGXF=   140 NGYF=   80 NGZF=  128
   ions per type =               6   4
   NGX,Y,Z   is equivalent  to a cutoff of  14.60, 14.45, 14.61 a.u.
   NGXF,Y,Z  is equivalent  to a cutoff of  29.21, 28.91, 29.22 a.u.

 SYSTEM =  unknown system
 POSCAR =  Mg6 Sb4

 Startparameter for this run:
   NWRITE =      2    write-flag & timer
   PREC   = accura    normal or accurate (medium, high low for compatibility)
   ISTART =      0    job   : 0-new  1-cont  2-samecut
   ICHARG =      2    charge: 1-file 2-atom 10-const
   ISPIN  =      2    spin polarized calculation?
   LNONCOLLINEAR =      F non collinear calculations
   LSORBIT =      F    spin-orbit coupling
   INIWAV =      1    electr: 0-lowe 1-rand  2-diag
   LASPH  =      T    aspherical Exc in radial PAW
 Electronic Relaxation 1
   ENCUT  =  700.0 eV  51.45 Ry    7.17 a.u.  17.19  9.93 15.71*2*pi/ulx,y,z
   ENINI  =  700.0     initial cutoff
   ENAUG  = 1360.0 eV  augmentation charge cutoff
   NELM   =    200;   NELMIN=  2; NELMDL= -5     # of ELM steps
   EDIFF  = 0.1E-06   stopping-criterion for ELM
   LREAL  =      F    real-space projection
   NLSPLINE    = F    spline interpolate recip. space projectors
   LCOMPAT=      F    compatible to vasp.4.4
   GGA_COMPAT  = T    GGA compatible to vasp.4.4-vasp.4.6
   LMAXPAW     = -100 max onsite density
   LMAXMIX     =    4 max onsite mixed and CHGCAR
   VOSKOWN=      0    Vosko Wilk Nusair interpolation
   ROPT   =    0.00000   0.00000
 Ionic relaxation
   EDIFFG = 0.1E-05   stopping-criterion for IOM
   NSW    =      0    number of steps for IOM
   NBLOCK =      1;   KBLOCK =      1    inner block; outer block
   IBRION =     -1    ionic relax: 0-MD 1-quasi-New 2-CG
   NFREE  =      1    steps in history (QN), initial steepest desc. (CG)
   ISIF   =      3    stress and relaxation
   IWAVPR =     10    prediction:  0-non 1-charg 2-wave 3-comb
   ISYM   =      2    0-nonsym 1-usesym 2-fastsym
   LCORR  =      T    Harris-Foulkes like correction to forces

   POTIM  = 0.5000    time-step for ionic-motion
   TEIN   =    0.0    initial temperature
   TEBEG  =    0.0;   TEEND  =   0.0 temperature during run
   SMASS  =  -3.00    Nose mass-parameter (am)
   estimated Nose-frequenzy (Omega)   =  0.10E-29 period in steps = 0.13E+47 mass=  -0.145E-26a.u.
   SCALEE = 1.0000    scale energy and forces
   NPACO  =    256;   APACO  = 16.0  distance and # of slots for P.C.
   PSTRESS=    0.0 pullay stress

  Mass of Ions in am
   POMASS =  24.30121.75
  Ionic Valenz
   ZVAL   =   2.00  5.00
  Atomic Wigner-Seitz radii
   RWIGS  =  -1.00 -1.00
  virtual crystal weights
   VCA    =   1.00  1.00
   NELECT =      32.0000    total number of electrons
   NUPDOWN=      -1.0000    fix difference up-down

 DOS related values:
   EMIN   =  10.00;   EMAX   =-10.00  energy-range for DOS
   EFERMI =   0.00
   ISMEAR =     0;   SIGMA  =   0.05  broadening in eV -4-tet -1-fermi 0-gaus

 Electronic relaxation 2 (details)
   IALGO  =     38    algorithm
   LDIAG  =      T    sub-space diagonalisation (order eigenvalues)
   LSUBROT=      F    optimize rotation matrix (better conditioning)
   TURBO    =      0    0=normal 1=particle mesh
   IRESTART =      0    0=no restart 2=restart with 2 vectors
   NREBOOT  =      0    no. of reboots
   NMIN     =      0    reboot dimension
   EREF     =   0.00    reference energy to select bands
   IMIX   =      4    mixing-type and parameters
     AMIX     =   0.40;   BMIX     =  1.00
     AMIX_MAG =   1.60;   BMIX_MAG =  1.00
     AMIN     =   0.10
     WC   =   100.;   INIMIX=   1;  MIXPRE=   1;  MAXMIX= -45

 Intra band minimization:
   WEIMIN = 0.0000     energy-eigenvalue tresh-hold
   EBREAK =  0.78E-09  absolut break condition
   DEPER  =   0.30     relativ break condition

   TIME   =   0.40     timestep for ELM

  volume/ion in A,a.u.               =      26.69       180.15
  Fermi-wavevector in a.u.,A,eV,Ry     =   0.807202  1.525391  8.865224  0.651576
  Thomas-Fermi vector in A             =   1.915778

 Write flags
   LWAVE        =      F    write WAVECAR
   LDOWNSAMPLE  =      F    k-point downsampling of WAVECAR
   LCHARG       =      F    write CHGCAR
   LVTOT        =      T    write LOCPOT, total local potential
   LVHAR        =      F    write LOCPOT, Hartree potential only
   LELF         =      F    write electronic localiz. function (ELF)
   LORBIT       =     11    0 simple, 1 ext, 2 COOP (PROOUT), +10 PAW based schemes


 Dipole corrections
   LMONO  =      F    monopole corrections only (constant potential shift)
   LDIPOL =      F    correct potential (dipole corrections)
   IDIPOL =      0    1-x, 2-y, 3-z, 4-all directions
   EPSILON=  1.0000000 bulk dielectric constant

 Exchange correlation treatment:
   GGA     =    PS    GGA type
   LEXCH   =    14    internal setting for exchange type
   VOSKOWN=      0    Vosko Wilk Nusair interpolation
   LHFCALC =     F    Hartree Fock is set to
   LHFONE  =     F    Hartree Fock one center treatment
   AEXX    =    0.0000 exact exchange contribution

 Linear response parameters
   LEPSILON=     F    determine dielectric tensor
   LRPA    =     F    only Hartree local field effects (RPA)
   LNABLA  =     F    use nabla operator in PAW spheres
   LVEL    =     F    velocity operator in full k-point grid
   LINTERFAST=   F  fast interpolation
   KINTER  =     0    interpolate to denser k-point grid
   CSHIFT  =0.1000    complex shift for real part using Kramers Kronig
   OMEGAMAX=  -1.0    maximum frequency
   DEG_THRESHOLD= 0.2000000E-02 threshold for treating states as degnerate
   RTIME   =   -0.100 relaxation time in fs
  (WPLASMAI=    0.000 imaginary part of plasma frequency in eV, 0.658/RTIME)
   DFIELD  = 0.0000000 0.0000000 0.0000000 field for delta impulse in time

 Orbital magnetization related:
   ORBITALMAG=     F  switch on orbital magnetization
   LCHIMAG   =     F  perturbation theory with respect to B field
   DQ        =  0.001000  dq finite difference perturbation B field
   LLRAUG    =     F  two centre corrections for induced B field



--------------------------------------------------------------------------------------------------------


 Static calculation
 charge density and potential will be updated during run
 spin polarized calculation
 Variant of blocked Davidson
 Davidson routine will perform the subspace rotation
 perform sub-space diagonalisation
    after iterative eigenvector-optimisation
 modified Broyden-mixing scheme, WC =      100.0
 initial mixing is a Kerker type mixing with AMIX =  0.4000 and BMIX =      1.0000
 Hartree-type preconditioning will be used
 using additional bands           16
 reciprocal scheme for non local part
 use partial core corrections
 calculate Harris-corrections to forces   (improved forces if not selfconsistent)
 use gradient corrections
 use of overlap-Matrix (Vanderbilt PP)
 Gauss-broadening in eV      SIGMA  =   0.05


--------------------------------------------------------------------------------------------------------


  energy-cutoff  :      700.00
  volume of cell :      266.95
      direct lattice vectors                 reciprocal lattice vectors
     0.000000000 -7.968720590  0.000000000     0.000000000 -0.125490659  0.000000000
     4.600742978  0.000000000  0.000000000     0.217356198  0.000000000 -0.000000000
     0.000000000  0.000000000  7.281330000    -0.000000000  0.000000000  0.137337547

  length of vectors
     7.968720590  4.600742978  7.281330000     0.125490659  0.217356198  0.137337547



 k-points in units of 2pi/SCALE and weight: pymatgen with grid density = 7000 / numb
   0.00000000 -0.00000000  0.00000000       0.002
   0.00000000 -0.01792724  0.00000000       0.003
   0.00000000 -0.03585447  0.00000000       0.003
   0.00000000 -0.05378171  0.00000000       0.003
   0.01811302 -0.00000000  0.00000000       0.003
   0.01811302 -0.01792724  0.00000000       0.003
   0.01811302  0.01792724  0.00000000       0.003
   0.01811302 -0.03585447  0.00000000       0.003
   0.01811302  0.03585447  0.00000000       0.003
   0.01811302 -0.05378171  0.00000000       0.003
   0.01811302  0.05378171  0.00000000       0.003
   0.03622603 -0.00000000  0.00000000       0.003
   0.03622603 -0.01792724  0.00000000       0.003
   0.03622603  0.01792724  0.00000000       0.003
   0.03622603 -0.03585447  0.00000000       0.003
   0.03622603  0.03585447  0.00000000       0.003
   0.03622603 -0.05378171  0.00000000       0.003
   0.03622603  0.05378171  0.00000000       0.003
   0.05433905 -0.00000000  0.00000000       0.003
   0.05433905 -0.01792724  0.00000000       0.003
   0.05433905  0.01792724  0.00000000       0.003
   0.05433905 -0.03585447  0.00000000       0.003
   0.05433905  0.03585447  0.00000000       0.003
   0.05433905 -0.05378171  0.00000000       0.003
   0.05433905  0.05378171  0.00000000       0.003
   0.07245207 -0.00000000  0.00000000       0.003
   0.07245207 -0.01792724  0.00000000       0.003
   0.07245207  0.01792724  0.00000000       0.003
   0.07245207 -0.03585447  0.00000000       0.003
   0.07245207  0.03585447  0.00000000       0.003
   0.07245207 -0.05378171  0.00000000       0.003
   0.07245207  0.05378171  0.00000000       0.003
   0.09056508 -0.00000000  0.00000000       0.003
   0.09056508 -0.01792724  0.00000000       0.003
   0.09056508  0.01792724  0.00000000       0.003
   0.09056508 -0.03585447  0.00000000       0.003
   0.09056508  0.03585447  0.00000000       0.003
   0.09056508 -0.05378171  0.00000000       0.003
   0.09056508  0.05378171  0.00000000       0.003
   0.10867810 -0.00000000  0.00000000       0.002
   0.10867810 -0.01792724  0.00000000       0.003
   0.10867810 -0.03585447  0.00000000       0.003
   0.10867810 -0.05378171  0.00000000       0.003
   0.00000000 -0.00000000  0.01961965       0.003
   0.00000000 -0.01792724  0.01961965       0.003
   0.00000000  0.01792724  0.01961965       0.003
   0.00000000 -0.03585447  0.01961965       0.003
   0.00000000  0.03585447  0.01961965       0.003
   0.00000000 -0.05378171  0.01961965       0.003
   0.00000000  0.05378171  0.01961965       0.003
   0.01811302 -0.00000000  0.01961965       0.003
   0.01811302 -0.00000000 -0.01961965       0.003
   0.01811302 -0.01792724  0.01961965       0.003
   0.01811302  0.01792724 -0.01961965       0.003
  -0.01811302  0.01792724  0.01961965       0.003
  -0.01811302 -0.01792724 -0.01961965       0.003
   0.01811302 -0.03585447  0.01961965       0.003
   0.01811302  0.03585447 -0.01961965       0.003
  -0.01811302  0.03585447  0.01961965       0.003
  -0.01811302 -0.03585447 -0.01961965       0.003
   0.01811302 -0.05378171  0.01961965       0.003
   0.01811302  0.05378171 -0.01961965       0.003
  -0.01811302  0.05378171  0.01961965       0.003
  -0.01811302 -0.05378171 -0.01961965       0.003
   0.03622603 -0.00000000  0.01961965       0.003
   0.03622603 -0.00000000 -0.01961965       0.003
   0.03622603 -0.01792724  0.01961965       0.003
   0.03622603  0.01792724 -0.01961965       0.003
  -0.03622603  0.01792724  0.01961965       0.003
  -0.03622603 -0.01792724 -0.01961965       0.003
   0.03622603 -0.03585447  0.01961965       0.003
   0.03622603  0.03585447 -0.01961965       0.003
  -0.03622603  0.03585447  0.01961965       0.003
  -0.03622603 -0.03585447 -0.01961965       0.003
   0.03622603 -0.05378171  0.01961965       0.003
   0.03622603  0.05378171 -0.01961965       0.003
  -0.03622603  0.05378171  0.01961965       0.003
  -0.03622603 -0.05378171 -0.01961965       0.003
   0.05433905 -0.00000000  0.01961965       0.003
   0.05433905 -0.00000000 -0.01961965       0.003
   0.05433905 -0.01792724  0.01961965       0.003
   0.05433905  0.01792724 -0.01961965       0.003
  -0.05433905  0.01792724  0.01961965       0.003
  -0.05433905 -0.01792724 -0.01961965       0.003
   0.05433905 -0.03585447  0.01961965       0.003
   0.05433905  0.03585447 -0.01961965       0.003
  -0.05433905  0.03585447  0.01961965       0.003
  -0.05433905 -0.03585447 -0.01961965       0.003
   0.05433905 -0.05378171  0.01961965       0.003
   0.05433905  0.05378171 -0.01961965       0.003
  -0.05433905  0.05378171  0.01961965       0.003
  -0.05433905 -0.05378171 -0.01961965       0.003
   0.07245207 -0.00000000  0.01961965       0.003
   0.07245207 -0.00000000 -0.01961965       0.003
   0.07245207 -0.01792724  0.01961965       0.003
   0.07245207  0.01792724 -0.01961965       0.003
  -0.07245207  0.01792724  0.01961965       0.003
  -0.07245207 -0.01792724 -0.01961965       0.003
   0.07245207 -0.03585447  0.01961965       0.003
   0.07245207  0.03585447 -0.01961965       0.003
  -0.07245207  0.03585447  0.01961965       0.003
  -0.07245207 -0.03585447 -0.01961965       0.003
   0.07245207 -0.05378171  0.01961965       0.003
   0.07245207  0.05378171 -0.01961965       0.003
  -0.07245207  0.05378171  0.01961965       0.003
  -0.07245207 -0.05378171 -0.01961965       0.003
   0.09056508 -0.00000000  0.01961965       0.003
   0.09056508 -0.00000000 -0.01961965       0.003
   0.09056508 -0.01792724  0.01961965       0.003
   0.09056508  0.01792724 -0.01961965       0.003
  -0.09056508  0.01792724  0.01961965       0.003
  -0.09056508 -0.01792724 -0.01961965       0.003
   0.09056508 -0.03585447  0.01961965       0.003
   0.09056508  0.03585447 -0.01961965       0.003
  -0.09056508  0.03585447  0.01961965       0.003
  -0.09056508 -0.03585447 -0.01961965       0.003
   0.09056508 -0.05378171  0.01961965       0.003
   0.09056508  0.05378171 -0.01961965       0.003
  -0.09056508  0.05378171  0.01961965       0.003
  -0.09056508 -0.05378171 -0.01961965       0.003
   0.10867810 -0.00000000  0.01961965       0.003
   0.10867810 -0.01792724  0.01961965       0.003
   0.10867810  0.01792724  0.01961965       0.003
   0.10867810 -0.03585447  0.01961965       0.003
   0.10867810  0.03585447  0.01961965       0.003
   0.10867810 -0.05378171  0.01961965       0.003
   0.10867810  0.05378171  0.01961965       0.003
   0.00000000 -0.00000000  0.03923930       0.003
   0.00000000 -0.01792724  0.03923930       0.003
   0.00000000  0.01792724  0.03923930       0.003
   0.00000000 -0.03585447  0.03923930       0.003
   0.00000000  0.03585447  0.03923930       0.003
   0.00000000 -0.05378171  0.03923930       0.003
   0.00000000  0.05378171  0.03923930       0.003
   0.01811302 -0.00000000  0.03923930       0.003
   0.01811302 -0.00000000 -0.03923930       0.003
   0.01811302 -0.01792724  0.03923930       0.003
   0.01811302  0.01792724 -0.03923930       0.003
  -0.01811302  0.01792724  0.03923930       0.003
  -0.01811302 -0.01792724 -0.03923930       0.003
   0.01811302 -0.03585447  0.03923930       0.003
   0.01811302  0.03585447 -0.03923930       0.003
  -0.01811302  0.03585447  0.03923930       0.003
  -0.01811302 -0.03585447 -0.03923930       0.003
   0.01811302 -0.05378171  0.03923930       0.003
   0.01811302  0.05378171 -0.03923930       0.003
  -0.01811302  0.05378171  0.03923930       0.003
  -0.01811302 -0.05378171 -0.03923930       0.003
   0.03622603 -0.00000000  0.03923930       0.003
   0.03622603 -0.00000000 -0.03923930       0.003
   0.03622603 -0.01792724  0.03923930       0.003
   0.03622603  0.01792724 -0.03923930       0.003
  -0.03622603  0.01792724  0.03923930       0.003
  -0.03622603 -0.01792724 -0.03923930       0.003
   0.03622603 -0.03585447  0.03923930       0.003
   0.03622603  0.03585447 -0.03923930       0.003
  -0.03622603  0.03585447  0.03923930       0.003
  -0.03622603 -0.03585447 -0.03923930       0.003
   0.03622603 -0.05378171  0.03923930       0.003
   0.03622603  0.05378171 -0.03923930       0.003
  -0.03622603  0.05378171  0.03923930       0.003
  -0.03622603 -0.05378171 -0.03923930       0.003
   0.05433905 -0.00000000  0.03923930       0.003
   0.05433905 -0.00000000 -0.03923930       0.003
   0.05433905 -0.01792724  0.03923930       0.003
   0.05433905  0.01792724 -0.03923930       0.003
  -0.05433905  0.01792724  0.03923930       0.003
  -0.05433905 -0.01792724 -0.03923930       0.003
   0.05433905 -0.03585447  0.03923930       0.003
   0.05433905  0.03585447 -0.03923930       0.003
  -0.05433905  0.03585447  0.03923930       0.003
  -0.05433905 -0.03585447 -0.03923930       0.003
   0.05433905 -0.05378171  0.03923930       0.003
   0.05433905  0.05378171 -0.03923930       0.003
  -0.05433905  0.05378171  0.03923930       0.003
  -0.05433905 -0.05378171 -0.03923930       0.003
   0.07245207 -0.00000000  0.03923930       0.003
   0.07245207 -0.00000000 -0.03923930       0.003
   0.07245207 -0.01792724  0.03923930       0.003
   0.07245207  0.01792724 -0.03923930       0.003
  -0.07245207  0.01792724  0.03923930       0.003
  -0.07245207 -0.01792724 -0.03923930       0.003
   0.07245207 -0.03585447  0.03923930       0.003
   0.07245207  0.03585447 -0.03923930       0.003
  -0.07245207  0.03585447  0.03923930       0.003
  -0.07245207 -0.03585447 -0.03923930       0.003
   0.07245207 -0.05378171  0.03923930       0.003
   0.07245207  0.05378171 -0.03923930       0.003
  -0.07245207  0.05378171  0.03923930       0.003
  -0.07245207 -0.05378171 -0.03923930       0.003
   0.09056508 -0.00000000  0.03923930       0.003
   0.09056508 -0.00000000 -0.03923930       0.003
   0.09056508 -0.01792724  0.03923930       0.003
   0.09056508  0.01792724 -0.03923930       0.003
  -0.09056508  0.01792724  0.03923930       0.003
  -0.09056508 -0.01792724 -0.03923930       0.003
   0.09056508 -0.03585447  0.03923930       0.003
   0.09056508  0.03585447 -0.03923930       0.003
  -0.09056508  0.03585447  0.03923930       0.003
  -0.09056508 -0.03585447 -0.03923930       0.003
   0.09056508 -0.05378171  0.03923930       0.003
   0.09056508  0.05378171 -0.03923930       0.003
  -0.09056508  0.05378171  0.03923930       0.003
  -0.09056508 -0.05378171 -0.03923930       0.003
   0.10867810 -0.00000000  0.03923930       0.003
   0.10867810 -0.01792724  0.03923930       0.003
   0.10867810  0.01792724  0.03923930       0.003
   0.10867810 -0.03585447  0.03923930       0.003
   0.10867810  0.03585447  0.03923930       0.003
   0.10867810 -0.05378171  0.03923930       0.003
   0.10867810  0.05378171  0.03923930       0.003
   0.00000000 -0.00000000  0.05885895       0.003
   0.00000000 -0.01792724  0.05885895       0.003
   0.00000000  0.01792724  0.05885895       0.003
   0.00000000 -0.03585447  0.05885895       0.003
   0.00000000  0.03585447  0.05885895       0.003
   0.00000000 -0.05378171  0.05885895       0.003
   0.00000000  0.05378171  0.05885895       0.003
   0.01811302 -0.00000000  0.05885895       0.003
   0.01811302 -0.00000000 -0.05885895       0.003
   0.01811302 -0.01792724  0.05885895       0.003
   0.01811302  0.01792724 -0.05885895       0.003
  -0.01811302  0.01792724  0.05885895       0.003
  -0.01811302 -0.01792724 -0.05885895       0.003
   0.01811302 -0.03585447  0.05885895       0.003
   0.01811302  0.03585447 -0.05885895       0.003
  -0.01811302  0.03585447  0.05885895       0.003
  -0.01811302 -0.03585447 -0.05885895       0.003
   0.01811302 -0.05378171  0.05885895       0.003
   0.01811302  0.05378171 -0.05885895       0.003
  -0.01811302  0.05378171  0.05885895       0.003
  -0.01811302 -0.05378171 -0.05885895       0.003
   0.03622603 -0.00000000  0.05885895       0.003
   0.03622603 -0.00000000 -0.05885895       0.003
   0.03622603 -0.01792724  0.05885895       0.003
   0.03622603  0.01792724 -0.05885895       0.003
  -0.03622603  0.01792724  0.05885895       0.003
  -0.03622603 -0.01792724 -0.05885895       0.003
   0.03622603 -0.03585447  0.05885895       0.003
   0.03622603  0.03585447 -0.05885895       0.003
  -0.03622603  0.03585447  0.05885895       0.003
  -0.03622603 -0.03585447 -0.05885895       0.003
   0.03622603 -0.05378171  0.05885895       0.003
   0.03622603  0.05378171 -0.05885895       0.003
  -0.03622603  0.05378171  0.05885895       0.003
  -0.03622603 -0.05378171 -0.05885895       0.003
   0.05433905 -0.00000000  0.05885895       0.003
   0.05433905 -0.00000000 -0.05885895       0.003
   0.05433905 -0.01792724  0.05885895       0.003
   0.05433905  0.01792724 -0.05885895       0.003
  -0.05433905  0.01792724  0.05885895       0.003
  -0.05433905 -0.01792724 -0.05885895       0.003
   0.05433905 -0.03585447  0.05885895       0.003
   0.05433905  0.03585447 -0.05885895       0.003
  -0.05433905  0.03585447  0.05885895       0.003
  -0.05433905 -0.03585447 -0.05885895       0.003
   0.05433905 -0.05378171  0.05885895       0.003
   0.05433905  0.05378171 -0.05885895       0.003
  -0.05433905  0.05378171  0.05885895       0.003
  -0.05433905 -0.05378171 -0.05885895       0.003
   0.07245207 -0.00000000  0.05885895       0.003
   0.07245207 -0.00000000 -0.05885895       0.003
   0.07245207 -0.01792724  0.05885895       0.003
   0.07245207  0.01792724 -0.05885895       0.003
  -0.07245207  0.01792724  0.05885895       0.003
  -0.07245207 -0.01792724 -0.05885895       0.003
   0.07245207 -0.03585447  0.05885895       0.003
   0.07245207  0.03585447 -0.05885895       0.003
  -0.07245207  0.03585447  0.05885895       0.003
  -0.07245207 -0.03585447 -0.05885895       0.003
   0.07245207 -0.05378171  0.05885895       0.003
   0.07245207  0.05378171 -0.05885895       0.003
  -0.07245207  0.05378171  0.05885895       0.003
  -0.07245207 -0.05378171 -0.05885895       0.003
   0.09056508 -0.00000000  0.05885895       0.003
   0.09056508 -0.00000000 -0.05885895       0.003
   0.09056508 -0.01792724  0.05885895       0.003
   0.09056508  0.01792724 -0.05885895       0.003
  -0.09056508  0.01792724  0.05885895       0.003
  -0.09056508 -0.01792724 -0.05885895       0.003
   0.09056508 -0.03585447  0.05885895       0.003
   0.09056508  0.03585447 -0.05885895       0.003
  -0.09056508  0.03585447  0.05885895       0.003
  -0.09056508 -0.03585447 -0.05885895       0.003
   0.09056508 -0.05378171  0.05885895       0.003
   0.09056508  0.05378171 -0.05885895       0.003
  -0.09056508  0.05378171  0.05885895       0.003
  -0.09056508 -0.05378171 -0.05885895       0.003
   0.10867810 -0.00000000  0.05885895       0.003
   0.10867810 -0.01792724  0.05885895       0.003
   0.10867810  0.01792724  0.05885895       0.003
   0.10867810 -0.03585447  0.05885895       0.003
   0.10867810  0.03585447  0.05885895       0.003
   0.10867810 -0.05378171  0.05885895       0.003
   0.10867810  0.05378171  0.05885895       0.003

 k-points in reciprocal lattice and weights: pymatgen with grid density = 7000 / numb
   0.00000000  0.00000000  0.00000000       0.002
   0.14285714  0.00000000  0.00000000       0.003
   0.28571429  0.00000000  0.00000000       0.003
   0.42857143  0.00000000  0.00000000       0.003
   0.00000000  0.08333333  0.00000000       0.003
   0.14285714  0.08333333  0.00000000       0.003
  -0.14285714  0.08333333  0.00000000       0.003
   0.28571429  0.08333333  0.00000000       0.003
  -0.28571429  0.08333333  0.00000000       0.003
   0.42857143  0.08333333  0.00000000       0.003
  -0.42857143  0.08333333  0.00000000       0.003
   0.00000000  0.16666667  0.00000000       0.003
   0.14285714  0.16666667  0.00000000       0.003
  -0.14285714  0.16666667  0.00000000       0.003
   0.28571429  0.16666667  0.00000000       0.003
  -0.28571429  0.16666667  0.00000000       0.003
   0.42857143  0.16666667  0.00000000       0.003
  -0.42857143  0.16666667  0.00000000       0.003
   0.00000000  0.25000000  0.00000000       0.003
   0.14285714  0.25000000  0.00000000       0.003
  -0.14285714  0.25000000  0.00000000       0.003
   0.28571429  0.25000000  0.00000000       0.003
  -0.28571429  0.25000000  0.00000000       0.003
   0.42857143  0.25000000  0.00000000       0.003
  -0.42857143  0.25000000  0.00000000       0.003
   0.00000000  0.33333333  0.00000000       0.003
   0.14285714  0.33333333  0.00000000       0.003
  -0.14285714  0.33333333  0.00000000       0.003
   0.28571429  0.33333333  0.00000000       0.003
  -0.28571429  0.33333333  0.00000000       0.003
   0.42857143  0.33333333  0.00000000       0.003
  -0.42857143  0.33333333  0.00000000       0.003
   0.00000000  0.41666667  0.00000000       0.003
   0.14285714  0.41666667  0.00000000       0.003
  -0.14285714  0.41666667  0.00000000       0.003
   0.28571429  0.41666667  0.00000000       0.003
  -0.28571429  0.41666667  0.00000000       0.003
   0.42857143  0.41666667  0.00000000       0.003
  -0.42857143  0.41666667  0.00000000       0.003
   0.00000000  0.50000000  0.00000000       0.002
   0.14285714  0.50000000  0.00000000       0.003
   0.28571429  0.50000000  0.00000000       0.003
   0.42857143  0.50000000  0.00000000       0.003
   0.00000000  0.00000000  0.14285714       0.003
   0.14285714  0.00000000  0.14285714       0.003
  -0.14285714  0.00000000  0.14285714       0.003
   0.28571429  0.00000000  0.14285714       0.003
  -0.28571429  0.00000000  0.14285714       0.003
   0.42857143  0.00000000  0.14285714       0.003
  -0.42857143  0.00000000  0.14285714       0.003
   0.00000000  0.08333333  0.14285714       0.003
   0.00000000  0.08333333 -0.14285714       0.003
   0.14285714  0.08333333  0.14285714       0.003
  -0.14285714  0.08333333 -0.14285714       0.003
  -0.14285714 -0.08333333  0.14285714       0.003
   0.14285714 -0.08333333 -0.14285714       0.003
   0.28571429  0.08333333  0.14285714       0.003
  -0.28571429  0.08333333 -0.14285714       0.003
  -0.28571429 -0.08333333  0.14285714       0.003
   0.28571429 -0.08333333 -0.14285714       0.003
   0.42857143  0.08333333  0.14285714       0.003
  -0.42857143  0.08333333 -0.14285714       0.003
  -0.42857143 -0.08333333  0.14285714       0.003
   0.42857143 -0.08333333 -0.14285714       0.003
   0.00000000  0.16666667  0.14285714       0.003
   0.00000000  0.16666667 -0.14285714       0.003
   0.14285714  0.16666667  0.14285714       0.003
  -0.14285714  0.16666667 -0.14285714       0.003
  -0.14285714 -0.16666667  0.14285714       0.003
   0.14285714 -0.16666667 -0.14285714       0.003
   0.28571429  0.16666667  0.14285714       0.003
  -0.28571429  0.16666667 -0.14285714       0.003
  -0.28571429 -0.16666667  0.14285714       0.003
   0.28571429 -0.16666667 -0.14285714       0.003
   0.42857143  0.16666667  0.14285714       0.003
  -0.42857143  0.16666667 -0.14285714       0.003
  -0.42857143 -0.16666667  0.14285714       0.003
   0.42857143 -0.16666667 -0.14285714       0.003
   0.00000000  0.25000000  0.14285714       0.003
   0.00000000  0.25000000 -0.14285714       0.003
   0.14285714  0.25000000  0.14285714       0.003
  -0.14285714  0.25000000 -0.14285714       0.003
  -0.14285714 -0.25000000  0.14285714       0.003
   0.14285714 -0.25000000 -0.14285714       0.003
   0.28571429  0.25000000  0.14285714       0.003
  -0.28571429  0.25000000 -0.14285714       0.003
  -0.28571429 -0.25000000  0.14285714       0.003
   0.28571429 -0.25000000 -0.14285714       0.003
   0.42857143  0.25000000  0.14285714       0.003
  -0.42857143  0.25000000 -0.14285714       0.003
  -0.42857143 -0.25000000  0.14285714       0.003
   0.42857143 -0.25000000 -0.14285714       0.003
   0.00000000  0.33333333  0.14285714       0.003
   0.00000000  0.33333333 -0.14285714       0.003
   0.14285714  0.33333333  0.14285714       0.003
  -0.14285714  0.33333333 -0.14285714       0.003
  -0.14285714 -0.33333333  0.14285714       0.003
   0.14285714 -0.33333333 -0.14285714       0.003
   0.28571429  0.33333333  0.14285714       0.003
  -0.28571429  0.33333333 -0.14285714       0.003
  -0.28571429 -0.33333333  0.14285714       0.003
   0.28571429 -0.33333333 -0.14285714       0.003
   0.42857143  0.33333333  0.14285714       0.003
  -0.42857143  0.33333333 -0.14285714       0.003
  -0.42857143 -0.33333333  0.14285714       0.003
   0.42857143 -0.33333333 -0.14285714       0.003
   0.00000000  0.41666667  0.14285714       0.003
   0.00000000  0.41666667 -0.14285714       0.003
   0.14285714  0.41666667  0.14285714       0.003
  -0.14285714  0.41666667 -0.14285714       0.003
  -0.14285714 -0.41666667  0.14285714       0.003
   0.14285714 -0.41666667 -0.14285714       0.003
   0.28571429  0.41666667  0.14285714       0.003
  -0.28571429  0.41666667 -0.14285714       0.003
  -0.28571429 -0.41666667  0.14285714       0.003
   0.28571429 -0.41666667 -0.14285714       0.003
   0.42857143  0.41666667  0.14285714       0.003
  -0.42857143  0.41666667 -0.14285714       0.003
  -0.42857143 -0.41666667  0.14285714       0.003
   0.42857143 -0.41666667 -0.14285714       0.003
   0.00000000  0.50000000  0.14285714       0.003
   0.14285714  0.50000000  0.14285714       0.003
  -0.14285714  0.50000000  0.14285714       0.003
   0.28571429  0.50000000  0.14285714       0.003
  -0.28571429  0.50000000  0.14285714       0.003
   0.42857143  0.50000000  0.14285714       0.003
  -0.42857143  0.50000000  0.14285714       0.003
   0.00000000  0.00000000  0.28571429       0.003
   0.14285714  0.00000000  0.28571429       0.003
  -0.14285714  0.00000000  0.28571429       0.003
   0.28571429  0.00000000  0.28571429       0.003
  -0.28571429  0.00000000  0.28571429       0.003
   0.42857143  0.00000000  0.28571429       0.003
  -0.42857143  0.00000000  0.28571429       0.003
   0.00000000  0.08333333  0.28571429       0.003
   0.00000000  0.08333333 -0.28571429       0.003
   0.14285714  0.08333333  0.28571429       0.003
  -0.14285714  0.08333333 -0.28571429       0.003
  -0.14285714 -0.08333333  0.28571429       0.003
   0.14285714 -0.08333333 -0.28571429       0.003
   0.28571429  0.08333333  0.28571429       0.003
  -0.28571429  0.08333333 -0.28571429       0.003
  -0.28571429 -0.08333333  0.28571429       0.003
   0.28571429 -0.08333333 -0.28571429       0.003
   0.42857143  0.08333333  0.28571429       0.003
  -0.42857143  0.08333333 -0.28571429       0.003
  -0.42857143 -0.08333333  0.28571429       0.003
   0.42857143 -0.08333333 -0.28571429       0.003
   0.00000000  0.16666667  0.28571429       0.003
   0.00000000  0.16666667 -0.28571429       0.003
   0.14285714  0.16666667  0.28571429       0.003
  -0.14285714  0.16666667 -0.28571429       0.003
  -0.14285714 -0.16666667  0.28571429       0.003
   0.14285714 -0.16666667 -0.28571429       0.003
   0.28571429  0.16666667  0.28571429       0.003
  -0.28571429  0.16666667 -0.28571429       0.003
  -0.28571429 -0.16666667  0.28571429       0.003
   0.28571429 -0.16666667 -0.28571429       0.003
   0.42857143  0.16666667  0.28571429       0.003
  -0.42857143  0.16666667 -0.28571429       0.003
  -0.42857143 -0.16666667  0.28571429       0.003
   0.42857143 -0.16666667 -0.28571429       0.003
   0.00000000  0.25000000  0.28571429       0.003
   0.00000000  0.25000000 -0.28571429       0.003
   0.14285714  0.25000000  0.28571429       0.003
  -0.14285714  0.25000000 -0.28571429       0.003
  -0.14285714 -0.25000000  0.28571429       0.003
   0.14285714 -0.25000000 -0.28571429       0.003
   0.28571429  0.25000000  0.28571429       0.003
  -0.28571429  0.25000000 -0.28571429       0.003
  -0.28571429 -0.25000000  0.28571429       0.003
   0.28571429 -0.25000000 -0.28571429       0.003
   0.42857143  0.25000000  0.28571429       0.003
  -0.42857143  0.25000000 -0.28571429       0.003
  -0.42857143 -0.25000000  0.28571429       0.003
   0.42857143 -0.25000000 -0.28571429       0.003
   0.00000000  0.33333333  0.28571429       0.003
   0.00000000  0.33333333 -0.28571429       0.003
   0.14285714  0.33333333  0.28571429       0.003
  -0.14285714  0.33333333 -0.28571429       0.003
  -0.14285714 -0.33333333  0.28571429       0.003
   0.14285714 -0.33333333 -0.28571429       0.003
   0.28571429  0.33333333  0.28571429       0.003
  -0.28571429  0.33333333 -0.28571429       0.003
  -0.28571429 -0.33333333  0.28571429       0.003
   0.28571429 -0.33333333 -0.28571429       0.003
   0.42857143  0.33333333  0.28571429       0.003
  -0.42857143  0.33333333 -0.28571429       0.003
  -0.42857143 -0.33333333  0.28571429       0.003
   0.42857143 -0.33333333 -0.28571429       0.003
   0.00000000  0.41666667  0.28571429       0.003
   0.00000000  0.41666667 -0.28571429       0.003
   0.14285714  0.41666667  0.28571429       0.003
  -0.14285714  0.41666667 -0.28571429       0.003
  -0.14285714 -0.41666667  0.28571429       0.003
   0.14285714 -0.41666667 -0.28571429       0.003
   0.28571429  0.41666667  0.28571429       0.003
  -0.28571429  0.41666667 -0.28571429       0.003
  -0.28571429 -0.41666667  0.28571429       0.003
   0.28571429 -0.41666667 -0.28571429       0.003
   0.42857143  0.41666667  0.28571429       0.003
  -0.42857143  0.41666667 -0.28571429       0.003
  -0.42857143 -0.41666667  0.28571429       0.003
   0.42857143 -0.41666667 -0.28571429       0.003
   0.00000000  0.50000000  0.28571429       0.003
   0.14285714  0.50000000  0.28571429       0.003
  -0.14285714  0.50000000  0.28571429       0.003
   0.28571429  0.50000000  0.28571429       0.003
  -0.28571429  0.50000000  0.28571429       0.003
   0.42857143  0.50000000  0.28571429       0.003
  -0.42857143  0.50000000  0.28571429       0.003
   0.00000000  0.00000000  0.42857143       0.003
   0.14285714  0.00000000  0.42857143       0.003
  -0.14285714  0.00000000  0.42857143       0.003
   0.28571429  0.00000000  0.42857143       0.003
  -0.28571429  0.00000000  0.42857143       0.003
   0.42857143  0.00000000  0.42857143       0.003
  -0.42857143  0.00000000  0.42857143       0.003
   0.00000000  0.08333333  0.42857143       0.003
   0.00000000  0.08333333 -0.42857143       0.003
   0.14285714  0.08333333  0.42857143       0.003
  -0.14285714  0.08333333 -0.42857143       0.003
  -0.14285714 -0.08333333  0.42857143       0.003
   0.14285714 -0.08333333 -0.42857143       0.003
   0.28571429  0.08333333  0.42857143       0.003
  -0.28571429  0.08333333 -0.42857143       0.003
  -0.28571429 -0.08333333  0.42857143       0.003
   0.28571429 -0.08333333 -0.42857143       0.003
   0.42857143  0.08333333  0.42857143       0.003
  -0.42857143  0.08333333 -0.42857143       0.003
  -0.42857143 -0.08333333  0.42857143       0.003
   0.42857143 -0.08333333 -0.42857143       0.003
   0.00000000  0.16666667  0.42857143       0.003
   0.00000000  0.16666667 -0.42857143       0.003
   0.14285714  0.16666667  0.42857143       0.003
  -0.14285714  0.16666667 -0.42857143       0.003
  -0.14285714 -0.16666667  0.42857143       0.003
   0.14285714 -0.16666667 -0.42857143       0.003
   0.28571429  0.16666667  0.42857143       0.003
  -0.28571429  0.16666667 -0.42857143       0.003
  -0.28571429 -0.16666667  0.42857143       0.003
   0.28571429 -0.16666667 -0.42857143       0.003
   0.42857143  0.16666667  0.42857143       0.003
  -0.42857143  0.16666667 -0.42857143       0.003
  -0.42857143 -0.16666667  0.42857143       0.003
   0.42857143 -0.16666667 -0.42857143       0.003
   0.00000000  0.25000000  0.42857143       0.003
   0.00000000  0.25000000 -0.42857143       0.003
   0.14285714  0.25000000  0.42857143       0.003
  -0.14285714  0.25000000 -0.42857143       0.003
  -0.14285714 -0.25000000  0.42857143       0.003
   0.14285714 -0.25000000 -0.42857143       0.003
   0.28571429  0.25000000  0.42857143       0.003
  -0.28571429  0.25000000 -0.42857143       0.003
  -0.28571429 -0.25000000  0.42857143       0.003
   0.28571429 -0.25000000 -0.42857143       0.003
   0.42857143  0.25000000  0.42857143       0.003
  -0.42857143  0.25000000 -0.42857143       0.003
  -0.42857143 -0.25000000  0.42857143       0.003
   0.42857143 -0.25000000 -0.42857143       0.003
   0.00000000  0.33333333  0.42857143       0.003
   0.00000000  0.33333333 -0.42857143       0.003
   0.14285714  0.33333333  0.42857143       0.003
  -0.14285714  0.33333333 -0.42857143       0.003
  -0.14285714 -0.33333333  0.42857143       0.003
   0.14285714 -0.33333333 -0.42857143       0.003
   0.28571429  0.33333333  0.42857143       0.003
  -0.28571429  0.33333333 -0.42857143       0.003
  -0.28571429 -0.33333333  0.42857143       0.003
   0.28571429 -0.33333333 -0.42857143       0.003
   0.42857143  0.33333333  0.42857143       0.003
  -0.42857143  0.33333333 -0.42857143       0.003
  -0.42857143 -0.33333333  0.42857143       0.003
   0.42857143 -0.33333333 -0.42857143       0.003
   0.00000000  0.41666667  0.42857143       0.003
   0.00000000  0.41666667 -0.42857143       0.003
   0.14285714  0.41666667  0.42857143       0.003
  -0.14285714  0.41666667 -0.42857143       0.003
  -0.14285714 -0.41666667  0.42857143       0.003
   0.14285714 -0.41666667 -0.42857143       0.003
   0.28571429  0.41666667  0.42857143       0.003
  -0.28571429  0.41666667 -0.42857143       0.003
  -0.28571429 -0.41666667  0.42857143       0.003
   0.28571429 -0.41666667 -0.42857143       0.003
   0.42857143  0.41666667  0.42857143       0.003
  -0.42857143  0.41666667 -0.42857143       0.003
  -0.42857143 -0.41666667  0.42857143       0.003
   0.42857143 -0.41666667 -0.42857143       0.003
   0.00000000  0.50000000  0.42857143       0.003
   0.14285714  0.50000000  0.42857143       0.003
  -0.14285714  0.50000000  0.42857143       0.003
   0.28571429  0.50000000  0.42857143       0.003
  -0.28571429  0.50000000  0.42857143       0.003
   0.42857143  0.50000000  0.42857143       0.003
  -0.42857143  0.50000000  0.42857143       0.003

 position of ions in fractional coordinates (direct lattice)
   0.00000000  0.00000000  0.00000000
   0.50000000  0.50000000  0.00000000
   0.83442011  0.50108678  0.36832500
   0.33333333  0.00000000  0.36832500
   0.16666667  0.50000000  0.63167500
   0.66666667  0.00000000  0.63167500
   0.83333333  0.50000000  0.77474900
   0.33333333  0.00000000  0.77474900
   0.16666667  0.50000000  0.22525100
   0.66666667  0.00000000  0.22525100

 position of ions in cartesian coordinates  (Angst):
   0.00000000  0.00000000  0.00000000
   2.30037149 -3.98436030  0.00000000
   2.30537149 -6.64926075  2.68189587
   0.00000000 -2.65624020  2.68189587
   2.30037149 -1.32812010  4.59943413
   0.00000000 -5.31248039  4.59943413
   2.30037149 -6.64060049  5.64120314
   0.00000000 -2.65624020  5.64120314
   2.30037149 -1.32812010  1.64012686
   0.00000000 -5.31248039  1.64012686



--------------------------------------------------------------------------------------------------------


 k-point   1 :   0.0000 0.0000 0.0000  plane waves:   11211
 k-point   2 :   0.1429 0.0000 0.0000  plane waves:   11201
 k-point   3 :   0.2857 0.0000 0.0000  plane waves:   11222
 k-point   4 :   0.4286 0.0000 0.0000  plane waves:   11234
 k-point   5 :   0.0000 0.0833 0.0000  plane waves:   11206
 k-point   6 :   0.1429 0.0833 0.0000  plane waves:   11209
 k-point   7 :  -0.1429 0.0833 0.0000  plane waves:   11209
 k-point   8 :   0.2857 0.0833 0.0000  plane waves:   11216
 k-point   9 :  -0.2857 0.0833 0.0000  plane waves:   11216
 k-point  10 :   0.4286 0.0833 0.0000  plane waves:   11216
 k-point  11 :  -0.4286 0.0833 0.0000  plane waves:   11216
 k-point  12 :   0.0000 0.1667 0.0000  plane waves:   11204
 k-point  13 :   0.1429 0.1667 0.0000  plane waves:   11222
 k-point  14 :  -0.1429 0.1667 0.0000  plane waves:   11222
 k-point  15 :   0.2857 0.1667 0.0000  plane waves:   11223
 k-point  16 :  -0.2857 0.1667 0.0000  plane waves:   11223
 k-point  17 :   0.4286 0.1667 0.0000  plane waves:   11242
 k-point  18 :  -0.4286 0.1667 0.0000  plane waves:   11242
 k-point  19 :   0.0000 0.2500 0.0000  plane waves:   11240
 k-point  20 :   0.1429 0.2500 0.0000  plane waves:   11237
 k-point  21 :  -0.1429 0.2500 0.0000  plane waves:   11237
 k-point  22 :   0.2857 0.2500 0.0000  plane waves:   11242
 k-point  23 :  -0.2857 0.2500 0.0000  plane waves:   11242
 k-point  24 :   0.4286 0.2500 0.0000  plane waves:   11223
 k-point  25 :  -0.4286 0.2500 0.0000  plane waves:   11223
 k-point  26 :   0.0000 0.3333 0.0000  plane waves:   11272
 k-point  27 :   0.1429 0.3333 0.0000  plane waves:   11228
 k-point  28 :  -0.1429 0.3333 0.0000  plane waves:   11228
 k-point  29 :   0.2857 0.3333 0.0000  plane waves:   11227
 k-point  30 :  -0.2857 0.3333 0.0000  plane waves:   11227
 k-point  31 :   0.4286 0.3333 0.0000  plane waves:   11231
 k-point  32 :  -0.4286 0.3333 0.0000  plane waves:   11231
 k-point  33 :   0.0000 0.4167 0.0000  plane waves:   11250
 k-point  34 :   0.1429 0.4167 0.0000  plane waves:   11234
[...]
     17       5.7411      0.00000
     18       5.7433      0.00000
     19       5.8530      0.00000
     20       5.8547      0.00000
     21       6.9282      0.00000
     22       6.9304      0.00000
     23       7.1460      0.00000
     24       7.1482      0.00000
     25       7.4999      0.00000
     26       7.5036      0.00000
     27       8.4786      0.00000
     28       8.4804      0.00000
     29       9.4354      0.00000
     30       9.4401      0.00000
     31       9.6933      0.00000
     32       9.6968      0.00000

 k-point   292 :       0.2857    0.5000    0.4286
  band No.  band energies     occupation
      1      -4.8013      1.00000
      2      -4.7959      1.00000
      3      -4.6749      1.00000
      4      -4.6694      1.00000
      5      -0.5137      1.00000
      6      -0.5119      1.00000
      7      -0.1236      1.00000
      8      -0.1190      1.00000
      9       1.6440      1.00000
     10       1.6453      1.00000
     11       2.1074      1.00000
     12       2.1104      1.00000
     13       2.6711      1.00000
     14       2.6749      1.00000
     15       3.1237      1.00000
     16       3.1255      1.00000
     17       4.8904      0.00000
     18       4.8911      0.00000
     19       6.0029      0.00000
     20       6.0095      0.00000
     21       6.4230      0.00000
     22       6.4245      0.00000
     23       6.7116      0.00000
     24       6.7133      0.00000
     25       7.8241      0.00000
     26       7.8265      0.00000
     27       8.7549      0.00000
     28       8.7563      0.00000
     29      10.4671      0.00000
     30      10.4696      0.00000
     31      10.6069      0.00000
     32      10.6097      0.00000

 k-point   293 :      -0.2857    0.5000    0.4286
  band No.  band energies     occupation
      1      -4.7926      1.00000
      2      -4.7873      1.00000
      3      -4.6848      1.00000
      4      -4.6792      1.00000
      5      -0.4634      1.00000
      6      -0.4614      1.00000
      7      -0.1754      1.00000
      8      -0.1708      1.00000
      9       1.6260      1.00000
     10       1.6297      1.00000
     11       2.1082      1.00000
     12       2.1101      1.00000
     13       2.6568      1.00000
     14       2.6588      1.00000
     15       3.1442      1.00000
     16       3.1476      1.00000
     17       5.1609      0.00000
     18       5.1618      0.00000
     19       5.6537      0.00000
     20       5.6591      0.00000
     21       6.2922      0.00000
     22       6.2938      0.00000
     23       6.9463      0.00000
     24       6.9488      0.00000
     25       7.7149      0.00000
     26       7.7172      0.00000
     27       8.9105      0.00000
     28       8.9124      0.00000
     29      10.2548      0.00000
     30      10.2573      0.00000
     31      10.7598      0.00000
     32      10.7656      0.00000

 k-point   294 :       0.4286    0.5000    0.4286
  band No.  band energies     occupation
      1      -4.7887      1.00000
      2      -4.7833      1.00000
      3      -4.6799      1.00000
      4      -4.6744      1.00000
      5      -0.6225      1.00000
      6      -0.6208      1.00000
      7      -0.2369      1.00000
      8      -0.2322      1.00000
      9       2.1354      1.00000
     10       2.1369      1.00000
     11       2.4944      1.00000
     12       2.4995      1.00000
     13       2.5697      1.00000
     14       2.5726      1.00000
     15       2.9550      1.00000
     16       2.9565      1.00000
     17       4.5679      0.00000
     18       4.5691      0.00000
     19       5.6000      0.00000
     20       5.6077      0.00000
     21       6.0767      0.00000
     22       6.0777      0.00000
     23       6.5199      0.00000
     24       6.5216      0.00000
     25       8.3712      0.00000
     26       8.3732      0.00000
     27       9.4056      0.00000
     28       9.4070      0.00000
     29       9.7021      0.00000
     30       9.7035      0.00000
     31      10.6638      0.00000
     32      10.6678      0.00000

 k-point   295 :      -0.4286    0.5000    0.4286
  band No.  band energies     occupation
      1      -4.7842      1.00000
      2      -4.7788      1.00000
      3      -4.6849      1.00000
      4      -4.6793      1.00000
      5      -0.6055      1.00000
      6      -0.6037      1.00000
      7      -0.2536      1.00000
      8      -0.2489      1.00000
      9       2.1200      1.00000
     10       2.1245      1.00000
     11       2.4743      1.00000
     12       2.4760      1.00000
     13       2.5855      1.00000
     14       2.5876      1.00000
     15       2.9642      1.00000
     16       2.9679      1.00000
     17       4.6685      0.00000
     18       4.6694      0.00000
     19       5.5054      0.00000
     20       5.5128      0.00000
     21       5.9805      0.00000
     22       5.9812      0.00000
     23       6.6232      0.00000
     24       6.6252      0.00000
     25       8.3365      0.00000
     26       8.3392      0.00000
     27       9.4451      0.00000
     28       9.4463      0.00000
     29       9.6909      0.00000
     30       9.6939      0.00000
     31      10.6943      0.00000
     32      10.6968      0.00000


--------------------------------------------------------------------------------------------------------


 soft charge-density along one line, spin component           1
         0         1         2         3         4         5         6         7         8         9
 total charge-density along one line

 soft charge-density along one line, spin component           2
         0         1         2         3         4         5         6         7         8         9
 total charge-density along one line

 pseudopotential strength for first ion, spin component:           1
  3.000   9.585  -0.000   0.000   0.000  -0.000   0.000   0.000
  9.585  30.445  -0.000   0.000   0.000  -0.000   0.000   0.000
 -0.000  -0.000   7.105  -0.000   0.000  10.459  -0.000   0.000
  0.000   0.000  -0.000   7.106  -0.000  -0.000  10.460  -0.000
  0.000   0.000   0.000  -0.000   7.105   0.000  -0.000  10.459
 -0.000  -0.000  10.459  -0.000   0.000  14.541  -0.000   0.000
  0.000   0.000  -0.000  10.460  -0.000  -0.000  14.543  -0.000
  0.000   0.000   0.000  -0.000  10.459   0.000  -0.000  14.541
  0.000   0.000   0.000  -0.000  -0.000   0.000  -0.000  -0.000
 -0.000  -0.000   0.000  -0.000  -0.000   0.000  -0.000  -0.000
  0.000   0.001   0.000   0.000  -0.000   0.000   0.000  -0.000
 -0.000  -0.000  -0.000   0.000   0.000  -0.000   0.000   0.000
  0.000   0.000   0.000   0.000   0.000   0.000   0.000   0.000
 pseudopotential strength for first ion, spin component:           2
  3.000   9.585  -0.000   0.000   0.000  -0.000   0.000   0.000
  9.585  30.445  -0.000   0.000   0.000  -0.000   0.000   0.000
 -0.000  -0.000   7.105  -0.000   0.000  10.459  -0.000   0.000
  0.000   0.000  -0.000   7.106  -0.000  -0.000  10.460  -0.000
  0.000   0.000   0.000  -0.000   7.105   0.000  -0.000  10.459
 -0.000  -0.000  10.459  -0.000   0.000  14.541  -0.000   0.000
  0.000   0.000  -0.000  10.460  -0.000  -0.000  14.543  -0.000
  0.000   0.000   0.000  -0.000  10.459   0.000  -0.000  14.541
  0.000   0.000   0.000  -0.000  -0.000   0.000  -0.000  -0.000
 -0.000  -0.000   0.000  -0.000  -0.000   0.000  -0.000  -0.000
  0.000   0.001   0.000   0.000  -0.000   0.000   0.000  -0.000
 -0.000  -0.000  -0.000   0.000   0.000  -0.000   0.000   0.000
  0.000   0.000   0.000   0.000   0.000   0.000   0.000   0.000
 total augmentation occupancy for first ion, spin component:           1
  0.910  -0.018   0.000  -0.000  -0.000  -0.000   0.000   0.000  -0.000   0.000  -0.005  -0.000  -0.000
 -0.018   0.000   0.000  -0.000   0.000   0.000   0.000  -0.000   0.000   0.000   0.000   0.000  -0.000
  0.000   0.000   0.060   0.000  -0.000  -0.005  -0.000   0.000  -0.000   0.000   0.000  -0.000   0.000
 -0.000  -0.000   0.000   0.058  -0.000  -0.000  -0.004   0.000   0.000   0.000   0.000  -0.000  -0.000
 -0.000   0.000  -0.000  -0.000   0.060   0.000   0.000  -0.005   0.000  -0.000  -0.000  -0.000  -0.000
 -0.000   0.000  -0.005  -0.000   0.000   0.000   0.000  -0.000   0.000  -0.000  -0.000   0.000  -0.000
  0.000   0.000  -0.000  -0.004   0.000   0.000   0.000  -0.000   0.000  -0.000  -0.000   0.000   0.000
  0.000  -0.000   0.000   0.000  -0.005  -0.000  -0.000   0.000  -0.000   0.000   0.000   0.000   0.000
 -0.000   0.000  -0.000   0.000   0.000   0.000   0.000  -0.000   0.006  -0.000   0.000  -0.004  -0.000
  0.000   0.000   0.000   0.000  -0.000  -0.000  -0.000   0.000  -0.000   0.009   0.000  -0.000  -0.004
 -0.005   0.000   0.000   0.000  -0.000  -0.000  -0.000   0.000   0.000   0.000   0.002  -0.000  -0.000
 -0.000   0.000  -0.000  -0.000  -0.000   0.000   0.000   0.000  -0.004  -0.000  -0.000   0.009  -0.000
 -0.000  -0.000   0.000  -0.000  -0.000  -0.000   0.000   0.000  -0.000  -0.004  -0.000  -0.000   0.006
 total augmentation occupancy for first ion, spin component:           2
  0.000  -0.000  -0.000  -0.000   0.000   0.000   0.000  -0.000  -0.000  -0.000   0.000   0.000  -0.000
 -0.000   0.000   0.000   0.000  -0.000  -0.000  -0.000   0.000   0.000   0.000  -0.000  -0.000   0.000
 -0.000   0.000  -0.000  -0.000   0.000   0.000   0.000   0.000   0.000  -0.000   0.000   0.000   0.000
 -0.000   0.000  -0.000  -0.000  -0.000   0.000  -0.000  -0.000   0.000  -0.000   0.000   0.000  -0.000
  0.000  -0.000   0.000  -0.000  -0.000   0.000   0.000   0.000  -0.000  -0.000  -0.000  -0.000   0.000
  0.000  -0.000   0.000   0.000   0.000   0.000  -0.000  -0.000  -0.000   0.000  -0.000   0.000  -0.000
  0.000  -0.000   0.000  -0.000   0.000  -0.000   0.000  -0.000  -0.000   0.000  -0.000  -0.000   0.000
 -0.000   0.000   0.000  -0.000   0.000  -0.000  -0.000   0.000   0.000  -0.000   0.000   0.000  -0.000
 -0.000   0.000   0.000   0.000  -0.000  -0.000  -0.000   0.000  -0.000  -0.000  -0.000   0.000  -0.000
 -0.000   0.000  -0.000  -0.000  -0.000   0.000   0.000  -0.000  -0.000  -0.000  -0.000  -0.000   0.000
  0.000  -0.000   0.000   0.000  -0.000  -0.000  -0.000   0.000  -0.000  -0.000   0.000  -0.000  -0.000
  0.000  -0.000   0.000   0.000  -0.000   0.000  -0.000   0.000   0.000  -0.000  -0.000  -0.000   0.000
 -0.000   0.000   0.000  -0.000   0.000  -0.000   0.000  -0.000  -0.000   0.000  -0.000   0.000  -0.000


------------------------ aborting loop because EDIFF is reached ----------------------------------------





 total charge

# of ion       s       p       d       tot
------------------------------------------
    1        0.150   0.096   0.018   0.263
    2        0.150   0.096   0.018   0.263
    3        0.181   0.129   0.022   0.331
    4        0.181   0.129   0.022   0.331
    5        0.181   0.129   0.022   0.331
    6        0.181   0.129   0.022   0.331
    7        1.126   1.399   0.012   2.537
    8        1.126   1.399   0.012   2.537
    9        1.126   1.400   0.012   2.537
   10        1.126   1.399   0.012   2.536
--------------------------------------------------
tot          5.526   6.303   0.169  11.998



 magnetization (x)

# of ion       s       p       d       tot
------------------------------------------
    1       -0.000  -0.000  -0.000  -0.000
    2       -0.000  -0.000  -0.000  -0.000
    3        0.000   0.000   0.000   0.000
    4        0.000   0.000   0.000   0.000
    5        0.000   0.000   0.000   0.000
    6        0.000   0.000   0.000   0.000
    7        0.000  -0.000   0.000  -0.000
    8        0.000  -0.000   0.000  -0.000
    9        0.000  -0.000   0.000  -0.000
   10        0.000  -0.000   0.000  -0.000
--------------------------------------------------
tot          0.000  -0.000   0.000  -0.000

    CHARGE:  cpu time    0.1813: real time    0.1813
    FORLOC:  cpu time    0.0014: real time    0.0014
    FORNL :  cpu time    2.4046: real time    2.4046
    STRESS:  cpu time    3.2796: real time    3.2797
    FORCOR:  cpu time    2.1996: real time    2.1997
    FORHAR:  cpu time    0.2405: real time    0.2405
    MIXING:  cpu time    0.0056: real time    0.0056
    OFIELD:  cpu time    0.0000: real time    0.0000

  FORCE on cell =-STRESS in cart. coord.  units (eV):
  Direction    XX          YY          ZZ          XY          YZ          ZX
  --------------------------------------------------------------------------------------
  Alpha Z    10.46941    10.46941    10.46941
  Ewald    -258.39851  -257.89632  -258.09121     0.14514     0.13313    -0.07616
  Hartree    18.90522    18.96366    21.61800     0.01685     0.01361    -0.00785
  E(xc)    -111.96647  -111.97902  -111.49397    -0.00370    -0.00334     0.00189
  Local    -144.42273  -144.92669  -147.24429    -0.14665    -0.13193     0.07554
  n-local   374.16367   374.24399   370.01388     0.02383     0.02216    -0.01247
  augment   -67.01796   -67.02283   -66.20161    -0.00162    -0.00111     0.00060
  Kinetic   175.85027   175.80429   178.57535    -0.01262    -0.01329     0.00757
  Fock        0.00000     0.00000     0.00000     0.00000     0.00000     0.00000
  -------------------------------------------------------------------------------------
  Total      -2.41709    -2.34351    -2.35443     0.02124     0.01922    -0.01089
  in kB     -14.50696   -14.06533   -14.13090     0.12747     0.11538    -0.06536
  external pressure =      -14.23 kB  Pullay stress =        0.00 kB


 VOLUME and BASIS-vectors are now :
 -----------------------------------------------------------------------------
  energy-cutoff  :      700.00
  volume of cell :      266.95
      direct lattice vectors                 reciprocal lattice vectors
     0.000000000 -7.968720590  0.000000000     0.000000000 -0.125490659  0.000000000
     4.600742978  0.000000000  0.000000000     0.217356198  0.000000000 -0.000000000
     0.000000000  0.000000000  7.281330000    -0.000000000  0.000000000  0.137337547

  length of vectors
     7.968720590  4.600742978  7.281330000     0.125490659  0.217356198  0.137337547


 FORCES acting on ions
    electron-ion (+dipol)            ewald-force                    non-local-force                 convergence-correction
 -----------------------------------------------------------------------------------------------
   -.592E-02 -.242E-02 0.595E-02   0.487E-02 0.740E-02 -.951E-02   0.119E-02 -.212E-02 0.998E-03   -.603E-07 -.200E-05 0.379E-06
   0.380E-02 0.601E-02 -.587E-02   -.169E-02 -.128E-01 0.947E-02   -.146E-02 0.260E-02 -.103E-02   0.118E-06 0.191E-05 -.388E-06
   0.646E-01 -.134E+00 -.220E+01   -.535E-01 0.121E+00 0.230E+01   -.296E-01 0.501E-01 -.132E+00   0.830E-07 -.146E-05 0.498E-04
   -.298E-02 0.252E-01 -.219E+01   0.211E-02 -.302E-01 0.230E+01   0.570E-03 0.140E-02 -.134E+00   -.684E-07 0.150E-05 0.497E-04
   0.336E-02 0.259E-01 0.218E+01   -.337E-02 -.231E-01 -.228E+01   -.513E-03 -.557E-02 0.135E+00   0.187E-07 -.124E-05 -.504E-04
   -.123E-01 -.101E-01 0.221E+01   0.117E-01 0.837E-02 -.232E+01   0.363E-02 -.536E-04 0.131E+00   -.518E-07 0.122E-05 -.491E-04
   0.120E-01 -.511E-01 0.255E+01   -.147E-01 0.588E-01 -.759E+00   0.398E-02 -.116E-01 -.181E+01   0.282E-06 -.111E-06 -.176E-03
   -.234E-02 0.343E-01 0.255E+01   0.159E-02 -.360E-01 -.758E+00   0.108E-02 0.292E-02 -.181E+01   -.542E-07 0.299E-07 -.175E-03
   0.137E-01 0.111E+00 -.250E+01   -.161E-01 -.113E+00 0.707E+00   0.222E-02 -.154E-01 0.180E+01   0.126E-06 -.186E-05 0.176E-03
   -.676E-01 -.157E-01 -.260E+01   0.691E-01 0.194E-01 0.810E+00   0.125E-01 -.110E-01 0.181E+01   -.708E-06 0.247E-05 0.175E-03
 -----------------------------------------------------------------------------------------------
   0.641E-02 -.112E-01 0.599E-04   0.278E-16 -.163E-14 -.444E-14   -.641E-02 0.112E-01 -.598E-04   -.315E-06 0.452E-06 0.305E-08


 POSITION                                       TOTAL-FORCE (eV/Angst)
 -----------------------------------------------------------------------------------
      0.00000      0.00000      0.00000         0.000148      0.002858     -0.002558
      2.30037     -3.98436      0.00000         0.000652     -0.004207      0.002565
      2.30537     -6.64926      2.68190        -0.018538      0.037125     -0.027657
      0.00000     -2.65624      2.68190        -0.000301     -0.003606     -0.026293
      2.30037     -1.32812      4.59943        -0.000521     -0.002766      0.031639
      0.00000     -5.31248      4.59943         0.003079     -0.001803      0.022606
      2.30037     -6.64060      5.64120         0.001291     -0.003959     -0.014156
      0.00000     -2.65624      5.64120         0.000327      0.001194     -0.012997
      2.30037     -1.32812      1.64013        -0.000125     -0.017558      0.007613
      0.00000     -5.31248      1.64013         0.013989     -0.007277      0.019238
 -----------------------------------------------------------------------------------
    total drift:                               -0.000001      0.000002      0.000000


--------------------------------------------------------------------------------------------------------



  FREE ENERGIE OF THE ION-ELECTRON SYSTEM (eV)
  ---------------------------------------------------
  free  energy   TOTEN  =       -32.28450141 eV

  energy  without entropy=      -32.28445839  energy(sigma->0) =      -32.28447990



--------------------------------------------------------------------------------------------------------


    POTLOK:  cpu time    4.1180: real time    4.1181


--------------------------------------------------------------------------------------------------------


     LOOP+:  cpu time 1585.4402: real time 1585.5026
    4ORBIT:  cpu time    0.0000: real time    0.0000



 total charge

# of ion       s       p       d       tot
------------------------------------------
    1        0.150   0.096   0.018   0.263
    2        0.150   0.096   0.018   0.263
    3        0.181   0.129   0.022   0.331
    4        0.181   0.129   0.022   0.331
    5        0.181   0.129   0.022   0.331
    6        0.181   0.129   0.022   0.331
    7        1.126   1.399   0.012   2.537
    8        1.126   1.399   0.012   2.537
    9        1.126   1.400   0.012   2.537
   10        1.126   1.399   0.012   2.536
--------------------------------------------------
tot          5.526   6.303   0.169  11.998



 magnetization (x)

# of ion       s       p       d       tot
------------------------------------------
    1       -0.000  -0.000  -0.000  -0.000
    2       -0.000  -0.000  -0.000  -0.000
    3        0.000   0.000   0.000   0.000
    4        0.000   0.000   0.000   0.000
    5        0.000   0.000   0.000   0.000
    6        0.000   0.000   0.000   0.000
    7        0.000  -0.000   0.000  -0.000
    8        0.000  -0.000   0.000  -0.000
    9        0.000  -0.000   0.000  -0.000
   10        0.000  -0.000   0.000  -0.000
--------------------------------------------------
tot          0.000  -0.000   0.000  -0.000


 total amount of memory used by VASP MPI-rank0    80340. kBytes
=======================================================================

   base      :      30000. kBytes
   nonl-proj :      29529. kBytes
   fftplans  :        620. kBytes
   grid      :       1447. kBytes
   one-center:         16. kBytes
   wavefun   :      18728. kBytes



 General timing and accounting informations for this job:
 ========================================================

                  Total CPU time used (sec):     1684.805
                            User time (sec):      490.796
                          System time (sec):     1194.009
                         Elapsed time (sec):     1685.068

                   Maximum memory used (kb):      137480.
                   Average memory used (kb):          N/A

                          Minor page faults:         9562
                          Major page faults:         1039
                 Voluntary context switches:         1730
