 vasp.6.1.2 22Jul20 (build Dec 10 2020 10:33:42) complex                        
  
 executed on             LinuxIFC date 2022.08.31  16:00:59
 running on  144 total cores
 distrk:  each k-point on  144 cores,    1 groups
 distr:  one band on NCORE=   1 cores,  144 groups


--------------------------------------------------------------------------------------------------------


 INCAR:
 POTCAR:    PAW_PBE Si 05Jan2001                  
 WARNING: For LVTOT=.TRUE., VASP.5.x writes the TOTAL local potential to the
     file LOCPOT. If you want only the Hartree contributions, use LVHAR=.TRUE.
     instead. 

 -----------------------------------------------------------------------------
|                                                                             |
|           W    W    AA    RRRRR   N    N  II  N    N   GGGG   !!!           |
|           W    W   A  A   R    R  NN   N  II  NN   N  G    G  !!!           |
|           W    W  A    A  R    R  N N  N  II  N N  N  G       !!!           |
|           W WW W  AAAAAA  RRRRR   N  N N  II  N  N N  G  GGG   !            |
|           WW  WW  A    A  R   R   N   NN  II  N   NN  G    G                |
|           W    W  A    A  R    R  N    N  II  N    N   GGGG   !!!           |
|                                                                             |
|     For optimal performance we recommend to set                             |
|       NCORE = 4 - approx SQRT(number of cores).                             |
|     NCORE specifies how many cores store one orbital (NPAR=cpu/NCORE).      |
|     This setting can greatly improve the performance of VASP for DFT.       |
|     The default, NCORE=1 might be grossly inefficient on modern             |
|     multi-core architectures or massively parallel machines. Do your        |
|     own testing!!!!                                                         |
|     Unfortunately you need to use the default for GW and RPA                |
|     calculations (for HF NCORE is supported but not extensively tested      |
|     yet).                                                                   |
|                                                                             |
 -----------------------------------------------------------------------------

 POTCAR:    PAW_PBE Si 05Jan2001                  
   VRHFIN =Si: s2p2                                                                                 
   LEXCH  = PE                                                                                      
   EATOM  =   103.0669 eV,    7.5752 Ry                                                             
                                                                                                    
   TITEL  = PAW_PBE Si 05Jan2001                                                                    
   LULTRA =        F    use ultrasoft PP ?                                                          
   IUNSCR =        1    unscreen: 0-lin 1-nonlin 2-no                                               
   RPACOR =    1.500    partial core radius                                                         
   POMASS =   28.085; ZVAL   =    4.000    mass and valenz                                          
   RCORE  =    1.900    outmost cutoff radius                                                       
   RWIGS  =    2.480; RWIGS  =    1.312    wigner-seitz radius (au A)                               
   ENMAX  =  245.345; ENMIN  =  184.009 eV                                                          
   ICORE  =        2    local potential                                                             
   LCOR   =        T    correct aug charges                                                         
   LPAW   =        T    paw PP                                                                      
   EAUG   =  322.069                                                                                
   DEXC   =    0.000                                                                                
   RMAX   =    1.950    core radius for proj-oper                                                   
   RAUG   =    1.300    factor for augmentation sphere                                              
   RDEP   =    1.993    radius for radial grids                                                     
   RDEPT  =    1.837    core radius for aug-charge                                                  
                                                                                                    
   Atomic configuration                                                                             
    6 entries                                                                                       
     n  l   j            E        occ.                                                              
     1  0  0.50     -1785.8828   2.0000                                                             
     2  0  0.50      -139.4969   2.0000                                                             
     2  1  1.50       -95.5546   6.0000                                                             
     3  0  0.50       -10.8127   2.0000                                                             
     3  1  0.50        -4.0811   2.0000                                                             
     3  2  1.50        -4.0817   0.0000                                                             
   Description                                                                                      
     l       E           TYP  RCUT    TYP  RCUT                                                     
     0    -10.8127223     23  1.900                                                                 
     0     -7.6451159     23  1.900                                                                 
     1     -4.0811372     23  1.900                                                                 
     1      2.4879257     23  1.900                                                                 
     2     -4.0817478      7  1.900                                                                 
  local pseudopotential read in
  partial core-charges read in
  partial kinetic energy density read in
  atomic valenz-charges read in
  non local Contribution for L=           0  read in
    real space projection operators read in
  non local Contribution for L=           0  read in
    real space projection operators read in
  non local Contribution for L=           1  read in
    real space projection operators read in
  non local Contribution for L=           1  read in
    real space projection operators read in
    PAW grid and wavefunctions read in
 
   number of l-projection  operators is LMAX  =           4
   number of lm-projection operators is LMMAX =           8
 
 -----------------------------------------------------------------------------
|                                                                             |
|               ----> ADVICE to this user running VASP <----                  |
|                                                                             |
|     You enforced a specific xc type in the INCAR file but a different       |
|     type was found in the POTCAR file.                                      |
|     I HOPE YOU KNOW WHAT YOU ARE DOING!                                     |
|                                                                             |
 -----------------------------------------------------------------------------

  PAW_PBE Si 05Jan2001                  :
 energy of atom  1       EATOM= -103.0669
 kinetic energy error for atom=    0.0003 (will be added to EATOM!!)
 
 
 POSCAR: Si2
  positions in direct lattice
  No initial velocities read in
 exchange correlation table for  LEXCH =       14
   RHO(1)=    0.500       N(1)  =     2000
   RHO(2)=  100.500       N(2)  =     4000

 VTST: version 3.2, (02/03/18)

 CHAIN: initializing optimizer
 
 OPT: Using VASP Conjugate-Gradient optimizer
 CHAIN: Read ICHAIN            0
 
 POSCAR: Si2
  positions in direct lattice
  No initial velocities read in
 


--------------------------------------------------------------------------------------------------------


 ion  position               nearest neighbor table
   1  0.000  0.000  0.000-   2 2.36   2 2.36   2 2.36   2 2.36
   2  0.250  0.250  0.250-   1 2.36   1 2.36   1 2.36   1 2.36
 
  LATTYP: Found a face centered cubic cell.
 ALAT       =     5.4600000000
  
  Lattice vectors:
  
 A1 = (   0.0000000000,   2.7300000000,   2.7300000000)
 A2 = (   2.7300000000,   0.0000000000,   2.7300000000)
 A3 = (   2.7300000000,   2.7300000000,   0.0000000000)


Analysis of symmetry for initial positions (statically):
=====================================================================
 Subroutine PRICEL returns:
 Original cell was already a primitive cell.
 

 Routine SETGRP: Setting up the symmetry group for a 
 face centered cubic supercell.


 Subroutine GETGRP returns: Found 48 space group operations
 (whereof 24 operations were pure point group operations)
 out of a pool of 48 trial point group operations.


The static configuration has the point symmetry T_d .
 The point group associated with its full space group is O_h .


Analysis of symmetry for dynamics (positions and initial velocities):
=====================================================================
 Subroutine PRICEL returns:
 Original cell was already a primitive cell.
 

 Routine SETGRP: Setting up the symmetry group for a 
 face centered cubic supercell.


 Subroutine GETGRP returns: Found 48 space group operations
 (whereof 24 operations were pure point group operations)
 out of a pool of 48 trial point group operations.


The dynamic configuration has the point symmetry T_d .
 The point group associated with its full space group is O_h .


Analysis of structural, dynamic, and magnetic symmetry:
=====================================================================
 Subroutine PRICEL returns:
 Original cell was already a primitive cell.
 

 Routine SETGRP: Setting up the symmetry group for a 
 face centered cubic supercell.


 Subroutine GETGRP returns: Found 48 space group operations
 (whereof 24 operations were pure point group operations)
 out of a pool of 48 trial point group operations.


The magnetic configuration has the point symmetry T_d .
 The point group associated with its full space group is O_h .


 Subroutine INISYM returns: Found 48 space group operations
 (whereof 24 operations are pure point group operations),
 and found     1 'primitive' translations


----------------------------------------------------------------------------------------

                                     Primitive cell                                     

  volume of cell :      40.6928

  direct lattice vectors                    reciprocal lattice vectors
     0.000000000  2.730000000  2.730000000    -0.183150183  0.183150183  0.183150183
     2.730000000  0.000000000  2.730000000     0.183150183 -0.183150183  0.183150183
     2.730000000  2.730000000  0.000000000     0.183150183  0.183150183 -0.183150183

  length of vectors
     3.860803025  3.860803025  3.860803025     0.317225423  0.317225423  0.317225423

  position of ions in fractional coordinates (direct lattice)
     0.000000000  0.000000000  0.000000000
     0.250000000  0.250000000  0.250000000

  ion indices of the primitive-cell ions
   primitive index   ion index
                 1           1
                 2           2

----------------------------------------------------------------------------------------

 
 

Automatic generation of k-mesh.
 generate k-points for:   10   10   10
Space group operators:
 irot       det(A)        alpha          n_x          n_y          n_z        tau_x        tau_y        tau_z
    1     1.000000     0.000000     1.000000     0.000000     0.000000     0.000000     0.000000     0.000000
    2     1.000000   120.000000    -0.577350    -0.577350    -0.577350     0.000000     0.000000     0.000000
    3     1.000000   120.000000     0.577350     0.577350     0.577350     0.000000     0.000000     0.000000
    4    -1.000000    90.000000    -0.000000    -0.000000    -1.000000     0.000000     0.000000     0.000000
    5    -1.000000   180.000000     0.000000     0.707107     0.707107     0.000000     0.000000     0.000000
    6    -1.000000    90.000000    -0.000000     1.000000    -0.000000     0.000000     0.000000     0.000000
    7     1.000000   180.000000    -0.000000    -0.000000     1.000000     0.000000     0.000000     0.000000
    8     1.000000   120.000000    -0.577350     0.577350     0.577350     0.000000     0.000000     0.000000
    9     1.000000   120.000000    -0.577350     0.577350    -0.577350     0.000000     0.000000     0.000000
   10    -1.000000    90.000000     0.000000     0.000000     1.000000     0.000000     0.000000     0.000000
   11    -1.000000    90.000000    -1.000000     0.000000    -0.000000     0.000000     0.000000     0.000000
   12    -1.000000   180.000000     0.707107     0.000000     0.707107     0.000000     0.000000     0.000000
   13     1.000000   120.000000     0.577350    -0.577350     0.577350     0.000000     0.000000     0.000000
   14     1.000000   120.000000    -0.577350    -0.577350     0.577350     0.000000     0.000000     0.000000
   15     1.000000   180.000000     1.000000     0.000000     0.000000     0.000000     0.000000     0.000000
   16    -1.000000    90.000000     0.000000    -1.000000     0.000000     0.000000     0.000000     0.000000
   17    -1.000000   180.000000     0.707107     0.707107    -0.000000     0.000000     0.000000     0.000000
   18    -1.000000    90.000000     1.000000     0.000000     0.000000     0.000000     0.000000     0.000000
   19     1.000000   120.000000     0.577350    -0.577350    -0.577350     0.000000     0.000000     0.000000
   20     1.000000   180.000000     0.000000     1.000000     0.000000     0.000000     0.000000     0.000000
   21     1.000000   120.000000     0.577350     0.577350    -0.577350     0.000000     0.000000     0.000000
   22    -1.000000   180.000000    -0.000000    -0.707107     0.707107     0.000000     0.000000     0.000000
   23    -1.000000   180.000000     0.707107    -0.707107     0.000000     0.000000     0.000000     0.000000
   24    -1.000000   180.000000    -0.707107     0.000000     0.707107     0.000000     0.000000     0.000000
   25    -1.000000     0.000000     1.000000     0.000000     0.000000     0.250000     0.250000     0.250000
   26    -1.000000   120.000000    -0.577350    -0.577350    -0.577350     0.250000     0.250000     0.250000
   27    -1.000000   120.000000     0.577350     0.577350     0.577350     0.250000     0.250000     0.250000
   28     1.000000    90.000000    -0.000000    -0.000000    -1.000000     0.250000     0.250000     0.250000
   29     1.000000   180.000000     0.000000     0.707107     0.707107     0.250000     0.250000     0.250000
   30     1.000000    90.000000    -0.000000     1.000000    -0.000000     0.250000     0.250000     0.250000
   31    -1.000000   180.000000    -0.000000    -0.000000     1.000000     0.250000     0.250000     0.250000
   32    -1.000000   120.000000    -0.577350     0.577350     0.577350     0.250000     0.250000     0.250000
   33    -1.000000   120.000000    -0.577350     0.577350    -0.577350     0.250000     0.250000     0.250000
   34     1.000000    90.000000     0.000000     0.000000     1.000000     0.250000     0.250000     0.250000
   35     1.000000    90.000000    -1.000000     0.000000    -0.000000     0.250000     0.250000     0.250000
   36     1.000000   180.000000     0.707107     0.000000     0.707107     0.250000     0.250000     0.250000
   37    -1.000000   120.000000     0.577350    -0.577350     0.577350     0.250000     0.250000     0.250000
   38    -1.000000   120.000000    -0.577350    -0.577350     0.577350     0.250000     0.250000     0.250000
   39    -1.000000   180.000000     1.000000     0.000000     0.000000     0.250000     0.250000     0.250000
   40     1.000000    90.000000     0.000000    -1.000000     0.000000     0.250000     0.250000     0.250000
   41     1.000000   180.000000     0.707107     0.707107    -0.000000     0.250000     0.250000     0.250000
   42     1.000000    90.000000     1.000000     0.000000     0.000000     0.250000     0.250000     0.250000
   43    -1.000000   120.000000     0.577350    -0.577350    -0.577350     0.250000     0.250000     0.250000
   44    -1.000000   180.000000     0.000000     1.000000     0.000000     0.250000     0.250000     0.250000
   45    -1.000000   120.000000     0.577350     0.577350    -0.577350     0.250000     0.250000     0.250000
   46     1.000000   180.000000    -0.000000    -0.707107     0.707107     0.250000     0.250000     0.250000
   47     1.000000   180.000000     0.707107    -0.707107     0.000000     0.250000     0.250000     0.250000
   48     1.000000   180.000000    -0.707107     0.000000     0.707107     0.250000     0.250000     0.250000
 
 Subroutine IBZKPT returns following result:
 ===========================================
 
 Found     47 irreducible k-points:
 
 Following reciprocal coordinates:
            Coordinates               Weight
  0.000000  0.000000  0.000000      1.000000
  0.100000  0.000000  0.000000      8.000000
  0.200000  0.000000 -0.000000      8.000000
  0.300000  0.000000  0.000000      8.000000
  0.400000  0.000000 -0.000000      8.000000
  0.500000  0.000000  0.000000      4.000000
  0.100000  0.100000  0.000000      6.000000
  0.200000  0.100000  0.000000     24.000000
  0.300000  0.100000 -0.000000     24.000000
  0.400000  0.100000  0.000000     24.000000
  0.500000  0.100000 -0.000000     24.000000
 -0.400000  0.100000 -0.000000     24.000000
 -0.300000  0.100000  0.000000     24.000000
 -0.200000  0.100000 -0.000000     24.000000
 -0.100000  0.100000  0.000000     12.000000
  0.200000  0.200000  0.000000      6.000000
  0.300000  0.200000  0.000000     24.000000
  0.400000  0.200000 -0.000000     24.000000
  0.500000  0.200000  0.000000     24.000000
 -0.400000  0.200000 -0.000000     24.000000
 -0.300000  0.200000 -0.000000     24.000000
 -0.200000  0.200000  0.000000     12.000000
  0.300000  0.300000  0.000000      6.000000
  0.400000  0.300000  0.000000     24.000000
  0.500000  0.300000 -0.000000     24.000000
 -0.400000  0.300000  0.000000     24.000000
 -0.300000  0.300000 -0.000000     12.000000
  0.400000  0.400000  0.000000      6.000000
  0.500000  0.400000  0.000000     24.000000
 -0.400000  0.400000 -0.000000     12.000000
  0.500000  0.500000  0.000000      3.000000
  0.300000  0.200000  0.100000     24.000000
  0.400000  0.200000  0.100000     48.000000
  0.500000  0.200000  0.100000     48.000000
 -0.400000  0.200000  0.100000     24.000000
  0.400000  0.300000  0.100000     24.000000
  0.500000  0.300000  0.100000     48.000000
 -0.400000  0.300000  0.100000     48.000000
 -0.300000  0.300000  0.100000     48.000000
 -0.200000  0.300000  0.100000     24.000000
  0.500000  0.400000  0.100000     24.000000
 -0.400000  0.400000  0.100000     48.000000
 -0.300000  0.400000  0.100000     24.000000
 -0.400000  0.500000  0.100000     12.000000
 -0.400000  0.400000  0.200000     24.000000
 -0.300000  0.400000  0.200000     24.000000
 -0.300000  0.500000  0.200000     12.000000
 
 Following cartesian coordinates:
            Coordinates               Weight
  0.000000  0.000000  0.000000      1.000000
 -0.018315  0.018315  0.018315      8.000000
 -0.036630  0.036630  0.036630      8.000000
 -0.054945  0.054945  0.054945      8.000000
 -0.073260  0.073260  0.073260      8.000000
 -0.091575  0.091575  0.091575      4.000000
  0.000000  0.000000  0.036630      6.000000
 -0.018315  0.018315  0.054945     24.000000
 -0.036630  0.036630  0.073260     24.000000
 -0.054945  0.054945  0.091575     24.000000
 -0.073260  0.073260  0.109890     24.000000
  0.091575 -0.091575 -0.054945     24.000000
  0.073260 -0.073260 -0.036630     24.000000
  0.054945 -0.054945 -0.018315     24.000000
  0.036630 -0.036630 -0.000000     12.000000
  0.000000  0.000000  0.073260      6.000000
 -0.018315  0.018315  0.091575     24.000000
 -0.036630  0.036630  0.109890     24.000000
 -0.054945  0.054945  0.128205     24.000000
  0.109890 -0.109890 -0.036630     24.000000
  0.091575 -0.091575 -0.018315     24.000000
  0.073260 -0.073260 -0.000000     12.000000
  0.000000  0.000000  0.109890      6.000000
 -0.018315  0.018315  0.128205     24.000000
 -0.036630  0.036630  0.146520     24.000000
  0.128205 -0.128205 -0.018315     24.000000
  0.109890 -0.109890  0.000000     12.000000
  0.000000 -0.000000  0.146520      6.000000
 -0.018315  0.018315  0.164835     24.000000
  0.146520 -0.146520  0.000000     12.000000
  0.000000  0.000000  0.183150      3.000000
  0.000000  0.036630  0.073260     24.000000
 -0.018315  0.054945  0.091575     48.000000
 -0.036630  0.073260  0.109890     48.000000
  0.128205 -0.091575 -0.054945     24.000000
 -0.000000  0.036630  0.109890     24.000000
 -0.018315  0.054945  0.128205     48.000000
  0.146520 -0.109890 -0.036630     48.000000
  0.128205 -0.091575 -0.018315     48.000000
  0.109890 -0.073260 -0.000000     24.000000
 -0.000000  0.036630  0.146520     24.000000
  0.164835 -0.128205 -0.018315     48.000000
  0.146520 -0.109890  0.000000     24.000000
  0.183150 -0.146520  0.000000     12.000000
  0.183150 -0.109890 -0.036630     24.000000
  0.164835 -0.091575 -0.018315     24.000000
  0.183150 -0.109890  0.000000     12.000000
 


--------------------------------------------------------------------------------------------------------




 Dimension of arrays:
   k-points           NKPTS =     47   k-points in BZ     NKDIM =     47   number of bands    NBANDS=    144
   number of dos      NEDOS =    301   number of ions     NIONS =      2
   non local maximal  LDIM  =      4   non local SUM 2l+1 LMDIM =      8
   total plane-waves  NPLWV =  46656
   max r-space proj   IRMAX =      1   max aug-charges    IRDMAX=  38530
   dimension x,y,z NGX =    36 NGY =   36 NGZ =   36
   dimension x,y,z NGXF=    72 NGYF=   72 NGZF=   72
   support grid    NGXF=    72 NGYF=   72 NGZF=   72
   ions per type =               2
   NGX,Y,Z   is equivalent  to a cutoff of  15.50, 15.50, 15.50 a.u.
   NGXF,Y,Z  is equivalent  to a cutoff of  31.00, 31.00, 31.00 a.u.

 SYSTEM =  unknown system                          
 POSCAR =  Si2                                     

 Startparameter for this run:
   NWRITE =      2    write-flag & timer
   PREC   = accura    normal or accurate (medium, high low for compatibility)
   ISTART =      0    job   : 0-new  1-cont  2-samecut
   ICHARG =      2    charge: 1-file 2-atom 10-const
   ISPIN  =      2    spin polarized calculation?
   LNONCOLLINEAR =      F non collinear calculations
   LSORBIT =      F    spin-orbit coupling
   INIWAV =      1    electr: 0-lowe 1-rand  2-diag
   LASPH  =      T    aspherical Exc in radial PAW
   METAGGA=      F    non-selfconsistent MetaGGA calc.

 Electronic Relaxation 1
   ENCUT  =  700.0 eV  51.45 Ry    7.17 a.u.   8.33  8.33  8.33*2*pi/ulx,y,z
   ENINI  =  700.0     initial cutoff
   ENAUG  = 1360.0 eV  augmentation charge cutoff
   NELM   =    200;   NELMIN=  2; NELMDL= -5     # of ELM steps 
   EDIFF  = 0.1E-06   stopping-criterion for ELM
   LREAL  =      F    real-space projection
   NLSPLINE    = F    spline interpolate recip. space projectors
   LCOMPAT=      F    compatible to vasp.4.4
   GGA_COMPAT  = T    GGA compatible to vasp.4.4-vasp.4.6
   LMAXPAW     = -100 max onsite density
   LMAXMIX     =    2 max onsite mixed and CHGCAR
   VOSKOWN=      0    Vosko Wilk Nusair interpolation
   ROPT   =    0.00000
 Ionic relaxation
   EDIFFG = -.1E-02   stopping-criterion for IOM
   NSW    =     99    number of steps for IOM
   NBLOCK =      1;   KBLOCK =     99    inner block; outer block 
   IBRION =      2    ionic relax: 0-MD 1-quasi-New 2-CG
   NFREE  =      1    steps in history (QN), initial steepest desc. (CG)
   ISIF   =      3    stress and relaxation
   IWAVPR =     11    prediction:  0-non 1-charg 2-wave 3-comb
   ISYM   =      2    0-nonsym 1-usesym 2-fastsym
   LCORR  =      T    Harris-Foulkes like correction to forces

   POTIM  = 0.5000    time-step for ionic-motion
   TEIN   =    0.0    initial temperature
   TEBEG  =    0.0;   TEEND  =   0.0 temperature during run
   SMASS  =  -3.00    Nose mass-parameter (am)
   estimated Nose-frequenzy (Omega)   =  0.10E-29 period in steps = 0.13E+47 mass=  -0.341E-27a.u.
   SCALEE = 1.0000    scale energy and forces
   NPACO  =    256;   APACO  = 16.0  distance and # of slots for P.C.
   PSTRESS=    0.0 pullay stress

  Mass of Ions in am
   POMASS =  28.09
  Ionic Valenz
   ZVAL   =   4.00
  Atomic Wigner-Seitz radii
   RWIGS  =  -1.00
  virtual crystal weights 
   VCA    =   1.00
   NELECT =       8.0000    total number of electrons
   NUPDOWN=      -1.0000    fix difference up-down

 DOS related values:
   EMIN   =  10.00;   EMAX   =-10.00  energy-range for DOS
   EFERMI =   0.00
   ISMEAR =     2;   SIGMA  =   0.20  broadening in eV -4-tet -1-fermi 0-gaus

 Electronic relaxation 2 (details)
   IALGO  =     68    algorithm
   LDIAG  =      T    sub-space diagonalisation (order eigenvalues)
   LSUBROT=      F    optimize rotation matrix (better conditioning)
   TURBO    =      0    0=normal 1=particle mesh
   IRESTART =      0    0=no restart 2=restart with 2 vectors
   NREBOOT  =      0    no. of reboots
   NMIN     =      0    reboot dimension
   EREF     =   0.00    reference energy to select bands
   IMIX   =      4    mixing-type and parameters
     AMIX     =   0.40;   BMIX     =  1.00
     AMIX_MAG =   1.60;   BMIX_MAG =  1.00
     AMIN     =   0.10
     WC   =   100.;   INIMIX=   1;  MIXPRE=   1;  MAXMIX= -45

 Intra band minimization:
   WEIMIN = 0.0010     energy-eigenvalue tresh-hold
   EBREAK =  0.17E-09  absolut break condition
   DEPER  =   0.30     relativ break condition  

   TIME   =   0.40     timestep for ELM

  volume/ion in A,a.u.               =      20.35       137.30
  Fermi-wavevector in a.u.,A,eV,Ry     =   0.951916  1.798861 12.328851  0.906145
  Thomas-Fermi vector in A             =   2.080431
 
 Write flags
   LWAVE        =      F    write WAVECAR
   LDOWNSAMPLE  =      F    k-point downsampling of WAVECAR
   LCHARG       =      F    write CHGCAR
   LVTOT        =      T    write LOCPOT, total local potential
   LVHAR        =      F    write LOCPOT, Hartree potential only
   LELF         =      F    write electronic localiz. function (ELF)
   LORBIT       =     11    0 simple, 1 ext, 2 COOP (PROOUT), +10 PAW based schemes


 Dipole corrections
   LMONO  =      F    monopole corrections only (constant potential shift)
   LDIPOL =      F    correct potential (dipole corrections)
   IDIPOL =      0    1-x, 2-y, 3-z, 4-all directions 
   EPSILON=  1.0000000 bulk dielectric constant

 Exchange correlation treatment:
   GGA     =    PS    GGA type
   LEXCH   =    14    internal setting for exchange type
   VOSKOWN=      0    Vosko Wilk Nusair interpolation
   LHFCALC =     F    Hartree Fock is set to
   LHFONE  =     F    Hartree Fock one center treatment
   AEXX    =    0.0000 exact exchange contribution

 Linear response parameters
   LEPSILON=     F    determine dielectric tensor
   LRPA    =     F    only Hartree local field effects (RPA)
   LNABLA  =     F    use nabla operator in PAW spheres
   LVEL    =     F    velocity operator in full k-point grid
   LINTERFAST=   F  fast interpolation
   KINTER  =     0    interpolate to denser k-point grid
   CSHIFT  =0.1000    complex shift for real part using Kramers Kronig
   OMEGAMAX=  -1.0    maximum frequency
   DEG_THRESHOLD= 0.2000000E-02 threshold for treating states as degnerate
   RTIME   =   -0.100 relaxation time in fs
  (WPLASMAI=    0.000 imaginary part of plasma frequency in eV, 0.658/RTIME)
   DFIELD  = 0.0000000 0.0000000 0.0000000 field for delta impulse in time
 
 Orbital magnetization related:
   ORBITALMAG=     F  switch on orbital magnetization
   LCHIMAG   =     F  perturbation theory with respect to B field
   DQ        =  0.001000  dq finite difference perturbation B field
   LLRAUG    =     F  two centre corrections for induced B field



--------------------------------------------------------------------------------------------------------


 conjugate gradient relaxation of ions
 charge density and potential will be updated during run
 spin polarized calculation
 RMM-DIIS sequential band-by-band and
  variant of blocked Davidson during initial phase
 perform sub-space diagonalisation
    before iterative eigenvector-optimisation
 modified Broyden-mixing scheme, WC =      100.0
 initial mixing is a Kerker type mixing with AMIX =  0.4000 and BMIX =      1.0000
 Hartree-type preconditioning will be used
 using additional bands          140
 reciprocal scheme for non local part
 use partial core corrections
 calculate Harris-corrections to forces 
   (improved forces if not selfconsistent)
 use gradient corrections 
 use of overlap-Matrix (Vanderbilt PP)
 Methfessel and Paxton  Order N= 2 SIGMA  =   0.20


--------------------------------------------------------------------------------------------------------


  energy-cutoff  :      700.00
  volume of cell :       40.69
      direct lattice vectors                 reciprocal lattice vectors
     0.000000000  2.730000000  2.730000000    -0.183150183  0.183150183  0.183150183
     2.730000000  0.000000000  2.730000000     0.183150183 -0.183150183  0.183150183
     2.730000000  2.730000000  0.000000000     0.183150183  0.183150183 -0.183150183

  length of vectors
     3.860803025  3.860803025  3.860803025     0.317225423  0.317225423  0.317225423


 
 k-points in units of 2pi/SCALE and weight: read from INCAR                         
   0.00000000  0.00000000  0.00000000       0.001
  -0.01831502  0.01831502  0.01831502       0.008
  -0.03663004  0.03663004  0.03663004       0.008
  -0.05494505  0.05494505  0.05494505       0.008
  -0.07326007  0.07326007  0.07326007       0.008
  -0.09157509  0.09157509  0.09157509       0.004
   0.00000000  0.00000000  0.03663004       0.006
  -0.01831502  0.01831502  0.05494505       0.024
  -0.03663004  0.03663004  0.07326007       0.024
  -0.05494505  0.05494505  0.09157509       0.024
  -0.07326007  0.07326007  0.10989011       0.024
   0.09157509 -0.09157509 -0.05494505       0.024
   0.07326007 -0.07326007 -0.03663004       0.024
   0.05494505 -0.05494505 -0.01831502       0.024
   0.03663004 -0.03663004 -0.00000000       0.012
   0.00000000  0.00000000  0.07326007       0.006
  -0.01831502  0.01831502  0.09157509       0.024
  -0.03663004  0.03663004  0.10989011       0.024
  -0.05494505  0.05494505  0.12820513       0.024
   0.10989011 -0.10989011 -0.03663004       0.024
   0.09157509 -0.09157509 -0.01831502       0.024
   0.07326007 -0.07326007 -0.00000000       0.012
   0.00000000  0.00000000  0.10989011       0.006
  -0.01831502  0.01831502  0.12820513       0.024
  -0.03663004  0.03663004  0.14652015       0.024
   0.12820513 -0.12820513 -0.01831502       0.024
   0.10989011 -0.10989011  0.00000000       0.012
  -0.00000000  0.00000000  0.14652015       0.006
  -0.01831502  0.01831502  0.16483516       0.024
   0.14652015 -0.14652015  0.00000000       0.012
   0.00000000  0.00000000  0.18315018       0.003
   0.00000000  0.03663004  0.07326007       0.024
  -0.01831502  0.05494505  0.09157509       0.048
  -0.03663004  0.07326007  0.10989011       0.048
   0.12820513 -0.09157509 -0.05494505       0.024
  -0.00000000  0.03663004  0.10989011       0.024
  -0.01831502  0.05494505  0.12820513       0.048
   0.14652015 -0.10989011 -0.03663004       0.048
   0.12820513 -0.09157509 -0.01831502       0.048
   0.10989011 -0.07326007 -0.00000000       0.024
  -0.00000000  0.03663004  0.14652015       0.024
   0.16483516 -0.12820513 -0.01831502       0.048
   0.14652015 -0.10989011  0.00000000       0.024
   0.18315018 -0.14652015  0.00000000       0.012
   0.18315018 -0.10989011 -0.03663004       0.024
   0.16483516 -0.09157509 -0.01831502       0.024
   0.18315018 -0.10989011  0.00000000       0.012
 
 k-points in reciprocal lattice and weights: read from INCAR                         
   0.00000000  0.00000000  0.00000000       0.001
   0.10000000  0.00000000  0.00000000       0.008
   0.20000000  0.00000000 -0.00000000       0.008
   0.30000000  0.00000000  0.00000000       0.008
   0.40000000  0.00000000 -0.00000000       0.008
   0.50000000  0.00000000  0.00000000       0.004
   0.10000000  0.10000000  0.00000000       0.006
   0.20000000  0.10000000  0.00000000       0.024
   0.30000000  0.10000000 -0.00000000       0.024
   0.40000000  0.10000000  0.00000000       0.024
   0.50000000  0.10000000 -0.00000000       0.024
  -0.40000000  0.10000000 -0.00000000       0.024
  -0.30000000  0.10000000  0.00000000       0.024
  -0.20000000  0.10000000 -0.00000000       0.024
  -0.10000000  0.10000000  0.00000000       0.012
   0.20000000  0.20000000  0.00000000       0.006
   0.30000000  0.20000000  0.00000000       0.024
   0.40000000  0.20000000 -0.00000000       0.024
   0.50000000  0.20000000  0.00000000       0.024
  -0.40000000  0.20000000 -0.00000000       0.024
  -0.30000000  0.20000000 -0.00000000       0.024
  -0.20000000  0.20000000  0.00000000       0.012
   0.30000000  0.30000000  0.00000000       0.006
   0.40000000  0.30000000  0.00000000       0.024
   0.50000000  0.30000000 -0.00000000       0.024
  -0.40000000  0.30000000  0.00000000       0.024
  -0.30000000  0.30000000 -0.00000000       0.012
   0.40000000  0.40000000  0.00000000       0.006
   0.50000000  0.40000000  0.00000000       0.024
  -0.40000000  0.40000000 -0.00000000       0.012
   0.50000000  0.50000000  0.00000000       0.003
   0.30000000  0.20000000  0.10000000       0.024
   0.40000000  0.20000000  0.10000000       0.048
   0.50000000  0.20000000  0.10000000       0.048
  -0.40000000  0.20000000  0.10000000       0.024
   0.40000000  0.30000000  0.10000000       0.024
   0.50000000  0.30000000  0.10000000       0.048
  -0.40000000  0.30000000  0.10000000       0.048
  -0.30000000  0.30000000  0.10000000       0.048
  -0.20000000  0.30000000  0.10000000       0.024
   0.50000000  0.40000000  0.10000000       0.024
  -0.40000000  0.40000000  0.10000000       0.048
  -0.30000000  0.40000000  0.10000000       0.024
  -0.40000000  0.50000000  0.10000000       0.012
  -0.40000000  0.40000000  0.20000000       0.024
  -0.30000000  0.40000000  0.20000000       0.024
  -0.30000000  0.50000000  0.20000000       0.012
 
 position of ions in fractional coordinates (direct lattice) 
   0.00000000  0.00000000  0.00000000
   0.25000000  0.25000000  0.25000000
 
 position of ions in cartesian coordinates  (Angst):
   0.00000000  0.00000000  0.00000000
   1.36500000  1.36500000  1.36500000
 


--------------------------------------------------------------------------------------------------------


 k-point   1 :   0.0000 0.0000 0.0000  plane waves:    1687
 k-point   2 :   0.1000 0.0000 0.0000  plane waves:    1720
 k-point   3 :   0.2000 0.0000-0.0000  plane waves:    1724
 k-point   4 :   0.3000 0.0000 0.0000  plane waves:    1712
 k-point   5 :   0.4000 0.0000-0.0000  plane waves:    1712
 k-point   6 :   0.5000 0.0000 0.0000  plane waves:    1694
 k-point   7 :   0.1000 0.1000 0.0000  plane waves:    1731
 k-point   8 :   0.2000 0.1000 0.0000  plane waves:    1727
 k-point   9 :   0.3000 0.1000-0.0000  plane waves:    1714
 k-point  10 :   0.4000 0.1000 0.0000  plane waves:    1696
 k-point  11 :   0.5000 0.1000-0.0000  plane waves:    1717
 k-point  12 :  -0.4000 0.1000-0.0000  plane waves:    1721
 k-point  13 :  -0.3000 0.1000 0.0000  plane waves:    1704
 k-point  14 :  -0.2000 0.1000-0.0000  plane waves:    1722
 k-point  15 :  -0.1000 0.1000 0.0000  plane waves:    1735
 k-point  16 :   0.2000 0.2000 0.0000  plane waves:    1736
 k-point  17 :   0.3000 0.2000 0.0000  plane waves:    1705
 k-point  18 :   0.4000 0.2000-0.0000  plane waves:    1703
 k-point  19 :   0.5000 0.2000 0.0000  plane waves:    1709
 k-point  20 :  -0.4000 0.2000-0.0000  plane waves:    1728
 k-point  21 :  -0.3000 0.2000-0.0000  plane waves:    1715
 k-point  22 :  -0.2000 0.2000 0.0000  plane waves:    1714
 k-point  23 :   0.3000 0.3000 0.0000  plane waves:    1712
 k-point  24 :   0.4000 0.3000 0.0000  plane waves:    1709
 k-point  25 :   0.5000 0.3000-0.0000  plane waves:    1703
 k-point  26 :  -0.4000 0.3000 0.0000  plane waves:    1719
 k-point  27 :  -0.3000 0.3000-0.0000  plane waves:    1708
 k-point  28 :   0.4000 0.4000 0.0000  plane waves:    1712
 k-point  29 :   0.5000 0.4000 0.0000  plane waves:    1708
 k-point  30 :  -0.4000 0.4000-0.0000  plane waves:    1712
 k-point  31 :   0.5000 0.5000 0.0000  plane waves:    1724
 k-point  32 :   0.3000 0.2000 0.1000  plane waves:    1712
 k-point  33 :   0.4000 0.2000 0.1000  plane waves:    1707
 k-point  34 :   0.5000 0.2000 0.1000  plane waves:    1711
 k-point  35 :  -0.4000 0.2000 0.1000  plane waves:    1714
 k-point  36 :   0.4000 0.3000 0.1000  plane waves:    1699
 k-point  37 :   0.5000 0.3000 0.1000  plane waves:    1710
 k-point  38 :  -0.4000 0.3000 0.1000  plane waves:    1715
 k-point  39 :  -0.3000 0.3000 0.1000  plane waves:    1714
 k-point  40 :  -0.2000 0.3000 0.1000  plane waves:    1712
 k-point  41 :   0.5000 0.4000 0.1000  plane waves:    1701
 k-point  42 :  -0.4000 0.4000 0.1000  plane waves:    1707
 k-point  43 :  -0.3000 0.4000 0.1000  plane waves:    1705
 k-point  44 :  -0.4000 0.5000 0.1000  plane waves:    1708
 k-point  45 :  -0.4000 0.4000 0.2000  plane waves:    1701
 k-point  46 :  -0.3000 0.4000 0.2000  plane waves:    1712
 k-point  47 :  -0.3000 0.5000 0.2000  plane waves:    1708

 maximum and minimum number of plane-waves per node :      1736     1687

 maximum number of plane-waves:      1736
 maximum index in each direction: 
   IXMAX=    8   IYMAX=    8   IZMAX=    8
   IXMIN=   -8   IYMIN=   -8   IZMIN=   -8


 serial   3D FFT for wavefunctions
 parallel 3D FFT for charge:
    minimum data exchange during FFTs selected (reduces bandwidth)


 total amount of memory used by VASP MPI-rank0    43283. kBytes
=======================================================================

   base      :      30000. kBytes
   nonl-proj :       5690. kBytes
   fftplans  :        394. kBytes
   grid      :       4155. kBytes
   one-center:         12. kBytes
   wavefun   :       3032. kBytes
 
     INWAV:  cpu time    0.0001: real time    0.0001
 Broyden mixing: mesh for mixing (old mesh)
   NGX = 17   NGY = 17   NGZ = 17
  (NGX  = 72   NGY  = 72   NGZ  = 72)
  gives a total of   4913 points

 initial charge density was supplied:
 charge density of overlapping atoms calculated
 number of electron       8.0000000 magnetization       1.2000000
 keeping initial charge density in first step


--------------------------------------------------------------------------------------------------------


 Maximum index for augmentation-charges         1237 (set IRDMAX)


--------------------------------------------------------------------------------------------------------


 First call to EWALD:  gamma=   0.515
 Maximum number of real-space cells 3x 3x 3
 Maximum number of reciprocal cells 3x 3x 3

    FEWALD:  cpu time    0.0020: real time    0.0020


--------------------------------------- Iteration      1(   1)  ---------------------------------------


    POTLOK:  cpu time    0.0227: real time    0.0323
    SETDIJ:  cpu time    0.1929: real time    0.1933
     EDDAV:  cpu time   31.2904: real time   31.3193
       DOS:  cpu time    0.0028: real time    0.0033
    --------------------------------------------
      LOOP:  cpu time   31.5088: real time   31.5483

 eigenvalue-minimisations  : 37152
 total energy-change (2. order) :-0.1077263E+02  (-0.3752649E+03)
 number of electron       8.0000000 magnetization       1.2000000
 augmentation part        8.0000000 magnetization       1.2000000

 Free energy of the ion-electron system (eV)
  ---------------------------------------------------
  alpha Z        PSCENC =         3.30899841
  Ewald energy   TEWEN  =      -227.30768138
  -Hartree energ DENC   =       -11.25054504
  -exchange      EXHF   =         0.00000000
  -V(xc)+E(xc)   XCENC  =       -17.44029463
  PAW double counting   =       174.89845602     -140.31916047
  entropy T*S    EENTRO =         0.00035615
  eigenvalues    EBANDS =         2.18561095
  atomic energy  EATOM  =       205.15162554
  Solvation  Ediel_sol  =         0.00000000
  ---------------------------------------------------
  free energy    TOTEN  =       -10.77263445 eV

  energy without entropy =      -10.77299060  energy(sigma->0) =      -10.77272349


--------------------------------------------------------------------------------------------------------




--------------------------------------- Iteration      1(   2)  ---------------------------------------


     EDDAV:  cpu time   45.9000: real time   45.8952
       DOS:  cpu time    0.0012: real time    0.0012
    --------------------------------------------
      LOOP:  cpu time   45.9011: real time   45.8964

 eigenvalue-minimisations  : 43488
 total energy-change (2. order) :-0.7437440E+00  (-0.7438070E+00)
 number of electron       8.0000000 magnetization       1.2000000
 augmentation part        8.0000000 magnetization       1.2000000

 Free energy of the ion-electron system (eV)
  ---------------------------------------------------
  alpha Z        PSCENC =         3.30899841
  Ewald energy   TEWEN  =      -227.30768138
  -Hartree energ DENC   =       -11.25054504
  -exchange      EXHF   =         0.00000000
  -V(xc)+E(xc)   XCENC  =       -17.44029463
  PAW double counting   =       174.89845602     -140.31916047
  entropy T*S    EENTRO =         0.00026963
  eigenvalues    EBANDS =         1.44195343
  atomic energy  EATOM  =       205.15162554
  Solvation  Ediel_sol  =         0.00000000
  ---------------------------------------------------
  free energy    TOTEN  =       -11.51637849 eV

  energy without entropy =      -11.51664812  energy(sigma->0) =      -11.51644590


--------------------------------------------------------------------------------------------------------




--------------------------------------- Iteration      1(   3)  ---------------------------------------


     EDDAV:  cpu time   18.8717: real time   18.8702
       DOS:  cpu time    0.0012: real time    0.0012
    --------------------------------------------
      LOOP:  cpu time   18.8729: real time   18.8714

 eigenvalue-minimisations  : 28512
 total energy-change (2. order) :-0.1176737E-04  (-0.1176716E-04)
 number of electron       8.0000000 magnetization       1.2000000
 augmentation part        8.0000000 magnetization       1.2000000

 Free energy of the ion-electron system (eV)
  ---------------------------------------------------
  alpha Z        PSCENC =         3.30899841
  Ewald energy   TEWEN  =      -227.30768138
  -Hartree energ DENC   =       -11.25054504
  -exchange      EXHF   =         0.00000000
  -V(xc)+E(xc)   XCENC  =       -17.44029463
  PAW double counting   =       174.89845602     -140.31916047
  entropy T*S    EENTRO =         0.00026963
  eigenvalues    EBANDS =         1.44194166
  atomic energy  EATOM  =       205.15162554
  Solvation  Ediel_sol  =         0.00000000
  ---------------------------------------------------
  free energy    TOTEN  =       -11.51639025 eV

  energy without entropy =      -11.51665989  energy(sigma->0) =      -11.51645766


--------------------------------------------------------------------------------------------------------




--------------------------------------- Iteration      1(   4)  ---------------------------------------


     EDDAV:  cpu time   70.7425: real time   70.7328
       DOS:  cpu time    0.0012: real time    0.0012
    --------------------------------------------
      LOOP:  cpu time   70.7437: real time   70.7340

 eigenvalue-minimisations  : 52128
 total energy-change (2. order) : 0.4297078E-09  (-0.1819949E-09)
 number of electron       8.0000000 magnetization       1.2000000
 augmentation part        8.0000000 magnetization       1.2000000

 Free energy of the ion-electron system (eV)
  ---------------------------------------------------
  alpha Z        PSCENC =         3.30899841
  Ewald energy   TEWEN  =      -227.30768138
  -Hartree energ DENC   =       -11.25054504
  -exchange      EXHF   =         0.00000000
  -V(xc)+E(xc)   XCENC  =       -17.44029463
  PAW double counting   =       174.89845602     -140.31916047
  entropy T*S    EENTRO =         0.00026963
  eigenvalues    EBANDS =         1.44194166
  atomic energy  EATOM  =       205.15162554
  Solvation  Ediel_sol  =         0.00000000
  ---------------------------------------------------
  free energy    TOTEN  =       -11.51639025 eV

  energy without entropy =      -11.51665989  energy(sigma->0) =      -11.51645766


--------------------------------------------------------------------------------------------------------




--------------------------------------- Iteration      1(   5)  ---------------------------------------


     EDDAV:  cpu time   19.1312: real time   19.1301
       DOS:  cpu time    0.0013: real time    0.0013
    CHARGE:  cpu time    0.0479: real time    0.0491
    MIXING:  cpu time    0.0014: real time    0.0021
    --------------------------------------------
      LOOP:  cpu time   19.1818: real time   19.1826

 eigenvalue-minimisations  : 28512
 total energy-change (2. order) : 0.1472813E-09  ( 0.5210804E-13)
 number of electron       8.0000000 magnetization      -0.3343305
 augmentation part       -0.4672671 magnetization      -0.3322712

 Broyden mixing:
  rms(total) = 0.53227E+00    rms(broyden)= 0.53227E+00
  rms(prec ) = 0.94925E+00
  weight for this iteration     100.00

 Free energy of the ion-electron system (eV)
  ---------------------------------------------------
  alpha Z        PSCENC =         3.30899841
  Ewald energy   TEWEN  =      -227.30768138
  -Hartree energ DENC   =       -11.25054504
  -exchange      EXHF   =         0.00000000
  -V(xc)+E(xc)   XCENC  =       -17.44029463
  PAW double counting   =       174.89845602     -140.31916047
  entropy T*S    EENTRO =         0.00026963
  eigenvalues    EBANDS =         1.44194166
  atomic energy  EATOM  =       205.15162554
  Solvation  Ediel_sol  =         0.00000000
  ---------------------------------------------------
  free energy    TOTEN  =       -11.51639025 eV

  energy without entropy =      -11.51665989  energy(sigma->0) =      -11.51645766


--------------------------------------------------------------------------------------------------------




--------------------------------------- Iteration      1(   6)  ---------------------------------------


    POTLOK:  cpu time    0.0140: real time    0.0150
    SETDIJ:  cpu time    0.1909: real time    0.1909
    EDDIAG:  cpu time    1.5303: real time    1.5332
  RMM-DIIS:  cpu time    0.2974: real time    0.2960
    ORTHCH:  cpu time    0.2229: real time    0.2229
       DOS:  cpu time    0.0011: real time    0.0011
    CHARGE:  cpu time    0.0452: real time    0.0451
    MIXING:  cpu time    0.0009: real time    0.0013
    --------------------------------------------
      LOOP:  cpu time    2.3028: real time    2.3056

 eigenvalue-minimisations  : 27072
 total energy-change (2. order) :-0.2753393E-01  (-0.2430356E-03)
 number of electron       8.0000000 magnetization       0.4302974
 augmentation part       -0.4620762 magnetization       0.4303086

 Broyden mixing:
  rms(total) = 0.30448E+00    rms(broyden)= 0.30448E+00
  rms(prec ) = 0.54613E+00
  weight for this iteration     100.00

 eigenvalues of (default mixing * dielectric matrix)
  average eigenvalue GAMMA=   0.9383
  0.9383

 Free energy of the ion-electron system (eV)
  ---------------------------------------------------
  alpha Z        PSCENC =         3.30899841
  Ewald energy   TEWEN  =      -227.30768138
  -Hartree energ DENC   =       -12.66124981
  -exchange      EXHF   =         0.00000000
  -V(xc)+E(xc)   XCENC  =       -17.28689830
  PAW double counting   =       377.08142347     -342.60009772
  entropy T*S    EENTRO =         0.00025519
  eigenvalues    EBANDS =         2.76970043
  atomic energy  EATOM  =       205.15162554
  Solvation  Ediel_sol  =         0.00000000
  ---------------------------------------------------
  free energy    TOTEN  =       -11.54392418 eV

  energy without entropy =      -11.54417937  energy(sigma->0) =      -11.54398798


--------------------------------------------------------------------------------------------------------




--------------------------------------- Iteration      1(   7)  ---------------------------------------


    POTLOK:  cpu time    0.0125: real time    0.0132
    SETDIJ:  cpu time    0.1910: real time    0.1910
    EDDIAG:  cpu time    1.4429: real time    1.4428
  RMM-DIIS:  cpu time    0.3023: real time    0.3000
    ORTHCH:  cpu time    0.2204: real time    0.2204
       DOS:  cpu time    0.0012: real time    0.0012
    CHARGE:  cpu time    0.0445: real time    0.0445
    MIXING:  cpu time    0.0004: real time    0.0004
    --------------------------------------------
      LOOP:  cpu time    2.2153: real time    2.2135

 eigenvalue-minimisations  : 27072
 total energy-change (2. order) : 0.7451735E-01  (-0.1836522E-03)
 number of electron       8.0000000 magnetization       0.0725693
 augmentation part       -0.4579870 magnetization       0.0727047

 Broyden mixing:
  rms(total) = 0.17132E+00    rms(broyden)= 0.17132E+00
  rms(prec ) = 0.20617E+00
  weight for this iteration     100.00

 eigenvalues of (default mixing * dielectric matrix)
  average eigenvalue GAMMA=   1.2456
  1.8139  0.6774

 Free energy of the ion-electron system (eV)
  ---------------------------------------------------
  alpha Z        PSCENC =         3.30899841
  Ewald energy   TEWEN  =      -227.30768138
  -Hartree energ DENC   =       -14.26628331
  -exchange      EXHF   =         0.00000000
  -V(xc)+E(xc)   XCENC  =       -17.01393690
  PAW double counting   =       705.58088854     -671.18925780
  entropy T*S    EENTRO =         0.00021718
  eigenvalues    EBANDS =         4.26602288
  atomic energy  EATOM  =       205.15162554
  Solvation  Ediel_sol  =         0.00000000
  ---------------------------------------------------
  free energy    TOTEN  =       -11.46940683 eV

  energy without entropy =      -11.46962401  energy(sigma->0) =      -11.46946113


--------------------------------------------------------------------------------------------------------




--------------------------------------- Iteration      1(   8)  ---------------------------------------


    POTLOK:  cpu time    0.0130: real time    0.0140
    SETDIJ:  cpu time    0.1909: real time    0.1909
    EDDIAG:  cpu time    1.4311: real time    1.4309
  RMM-DIIS:  cpu time    0.3037: real time    0.3006
    ORTHCH:  cpu time    0.2200: real time    0.2200
       DOS:  cpu time    0.0013: real time    0.0013
    CHARGE:  cpu time    0.0444: real time    0.0444
    MIXING:  cpu time    0.0004: real time    0.0004
    --------------------------------------------
      LOOP:  cpu time    2.2046: real time    2.2025

 eigenvalue-minimisations  : 27072
 total energy-change (2. order) :-0.2016125E-01  (-0.5359679E-04)
 number of electron       8.0000000 magnetization      -0.0065793
 augmentation part       -0.4570295 magnetization      -0.0069098

 Broyden mixing:
  rms(total) = 0.43442E-01    rms(broyden)= 0.43442E-01
  rms(prec ) = 0.50978E-01
  weight for this iteration     100.00

 eigenvalues of (default mixing * dielectric matrix)
  average eigenvalue GAMMA=   1.2798
  2.4360  0.7859  0.6174

 Free energy of the ion-electron system (eV)
  ---------------------------------------------------
  alpha Z        PSCENC =         3.30899841
  Ewald energy   TEWEN  =      -227.30768138
  -Hartree energ DENC   =       -14.77110415
  -exchange      EXHF   =         0.00000000
  -V(xc)+E(xc)   XCENC  =       -16.93527622
  PAW double counting   =       831.66825094     -797.30356991
  entropy T*S    EENTRO =         0.00048874
  eigenvalues    EBANDS =         4.69869996
  atomic energy  EATOM  =       205.15162554
  Solvation  Ediel_sol  =         0.00000000
  ---------------------------------------------------
  free energy    TOTEN  =       -11.48956808 eV

  energy without entropy =      -11.49005682  energy(sigma->0) =      -11.48969027


--------------------------------------------------------------------------------------------------------




--------------------------------------- Iteration      1(   9)  ---------------------------------------


    POTLOK:  cpu time    0.0123: real time    0.0140
    SETDIJ:  cpu time    0.2006: real time    0.2006
    EDDIAG:  cpu time    1.4274: real time    1.4272
  RMM-DIIS:  cpu time    0.2982: real time    0.2952
    ORTHCH:  cpu time    0.2206: real time    0.2206
       DOS:  cpu time    0.0013: real time    0.0013
    CHARGE:  cpu time    0.0443: real time    0.0443
    MIXING:  cpu time    0.0004: real time    0.0004
    --------------------------------------------
      LOOP:  cpu time    2.2051: real time    2.2036

 eigenvalue-minimisations  : 27072
 total energy-change (2. order) :-0.7264838E-03  (-0.1343488E-05)
 number of electron       8.0000000 magnetization      -0.0009935
 augmentation part       -0.4571894 magnetization      -0.0008816

 Broyden mixing:
  rms(total) = 0.86466E-02    rms(broyden)= 0.86466E-02
  rms(prec ) = 0.19785E-01
  weight for this iteration     100.00

 eigenvalues of (default mixing * dielectric matrix)
  average eigenvalue GAMMA=   1.3136
  2.3447  1.5139  0.7791  0.6166

 Free energy of the ion-electron system (eV)
  ---------------------------------------------------
  alpha Z        PSCENC =         3.30899841
  Ewald energy   TEWEN  =      -227.30768138
  -Hartree energ DENC   =       -14.80170884
  -exchange      EXHF   =         0.00000000
  -V(xc)+E(xc)   XCENC  =       -16.92614093
  PAW double counting   =       844.49434224     -810.12798019
  entropy T*S    EENTRO =         0.00050725
  eigenvalues    EBANDS =         4.71774333
  atomic energy  EATOM  =       205.15162554
  Solvation  Ediel_sol  =         0.00000000
  ---------------------------------------------------
  free energy    TOTEN  =       -11.49029457 eV

  energy without entropy =      -11.49080182  energy(sigma->0) =      -11.49042138


--------------------------------------------------------------------------------------------------------




--------------------------------------- Iteration      1(  10)  ---------------------------------------


    POTLOK:  cpu time    0.0125: real time    0.0145
    SETDIJ:  cpu time    0.1980: real time    0.1980
    EDDIAG:  cpu time    1.4714: real time    1.4713
  RMM-DIIS:  cpu time    0.3043: real time    0.3016
    ORTHCH:  cpu time    0.2211: real time    0.2211
       DOS:  cpu time    0.0012: real time    0.0012
    CHARGE:  cpu time    0.0445: real time    0.0444
    MIXING:  cpu time    0.0004: real time    0.0004
    --------------------------------------------
      LOOP:  cpu time    2.2536: real time    2.2525

 eigenvalue-minimisations  : 27072
 total energy-change (2. order) :-0.1315902E-03  (-0.1033716E-05)
 number of electron       8.0000000 magnetization       0.0014170
 augmentation part       -0.4576406 magnetization       0.0013337

 Broyden mixing:
  rms(total) = 0.37832E-02    rms(broyden)= 0.37832E-02
  rms(prec ) = 0.55635E-02
  weight for this iteration     100.00

 eigenvalues of (default mixing * dielectric matrix)
  average eigenvalue GAMMA=   1.3299
  2.2443  2.2443  0.8009  0.7413  0.6189

 Free energy of the ion-electron system (eV)
  ---------------------------------------------------
  alpha Z        PSCENC =         3.30899841
  Ewald energy   TEWEN  =      -227.30768138
  -Hartree energ DENC   =       -14.77878090
  -exchange      EXHF   =         0.00000000
  -V(xc)+E(xc)   XCENC  =       -16.92235569
  PAW double counting   =       844.31143708     -809.93742643
  entropy T*S    EENTRO =         0.00051036
  eigenvalues    EBANDS =         4.68324685
  atomic energy  EATOM  =       205.15162554
  Solvation  Ediel_sol  =         0.00000000
  ---------------------------------------------------
  free energy    TOTEN  =       -11.49042616 eV

  energy without entropy =      -11.49093652  energy(sigma->0) =      -11.49055375


--------------------------------------------------------------------------------------------------------




--------------------------------------- Iteration      1(  11)  ---------------------------------------


    POTLOK:  cpu time    0.0142: real time    0.0150
    SETDIJ:  cpu time    0.1914: real time    0.1914
    EDDIAG:  cpu time    1.4350: real time    1.4348
  RMM-DIIS:  cpu time    0.3035: real time    0.3012
    ORTHCH:  cpu time    0.2201: real time    0.2200
       DOS:  cpu time    0.0013: real time    0.0013
    CHARGE:  cpu time    0.0443: real time    0.0443
    MIXING:  cpu time    0.0004: real time    0.0003
    --------------------------------------------
      LOOP:  cpu time    2.2101: real time    2.2084

 eigenvalue-minimisations  : 27072
 total energy-change (2. order) :-0.2366845E-04  (-0.2248609E-06)
 number of electron       8.0000000 magnetization       0.0002041
 augmentation part       -0.4576480 magnetization       0.0002195

 Broyden mixing:
  rms(total) = 0.24304E-02    rms(broyden)= 0.24304E-02
  rms(prec ) = 0.30010E-02
  weight for this iteration     100.00

 eigenvalues of (default mixing * dielectric matrix)
  average eigenvalue GAMMA=   1.4321
  2.5018  2.5018  1.5058  0.7801  0.6242  0.6791

 Free energy of the ion-electron system (eV)
  ---------------------------------------------------
  alpha Z        PSCENC =         3.30899841
  Ewald energy   TEWEN  =      -227.30768138
  -Hartree energ DENC   =       -14.78963850
  -exchange      EXHF   =         0.00000000
  -V(xc)+E(xc)   XCENC  =       -16.92009260
  PAW double counting   =       842.46807956     -808.09390187
  entropy T*S    EENTRO =         0.00051058
  eigenvalues    EBANDS =         4.69165043
  atomic energy  EATOM  =       205.15162554
  Solvation  Ediel_sol  =         0.00000000
  ---------------------------------------------------
  free energy    TOTEN  =       -11.49044983 eV

  energy without entropy =      -11.49096040  energy(sigma->0) =      -11.49057747


--------------------------------------------------------------------------------------------------------




--------------------------------------- Iteration      1(  12)  ---------------------------------------


    POTLOK:  cpu time    0.0123: real time    0.0139
    SETDIJ:  cpu time    0.1931: real time    0.1931
    EDDIAG:  cpu time    1.4271: real time    1.4268
  RMM-DIIS:  cpu time    0.3056: real time    0.3022
    ORTHCH:  cpu time    0.2201: real time    0.2200
       DOS:  cpu time    0.0012: real time    0.0012
    CHARGE:  cpu time    0.0443: real time    0.0444
    MIXING:  cpu time    0.0004: real time    0.0004
    --------------------------------------------
      LOOP:  cpu time    2.2042: real time    2.2021

 eigenvalue-minimisations  : 27072
 total energy-change (2. order) :-0.6901773E-05  (-0.3371824E-07)
 number of electron       8.0000000 magnetization      -0.0002160
 augmentation part       -0.4576351 magnetization      -0.0001877

 Broyden mixing:
  rms(total) = 0.72435E-03    rms(broyden)= 0.72435E-03
  rms(prec ) = 0.89483E-03
  weight for this iteration     100.00

 eigenvalues of (default mixing * dielectric matrix)
  average eigenvalue GAMMA=   1.3849
  2.5705  2.5705  1.6248  0.8457  0.7703  0.6281  0.6848

 Free energy of the ion-electron system (eV)
  ---------------------------------------------------
  alpha Z        PSCENC =         3.30899841
  Ewald energy   TEWEN  =      -227.30768138
  -Hartree energ DENC   =       -14.79790933
  -exchange      EXHF   =         0.00000000
  -V(xc)+E(xc)   XCENC  =       -16.91881824
  PAW double counting   =       839.63888157     -805.26481401
  entropy T*S    EENTRO =         0.00051064
  eigenvalues    EBANDS =         4.69875008
  atomic energy  EATOM  =       205.15162554
  Solvation  Ediel_sol  =         0.00000000
  ---------------------------------------------------
  free energy    TOTEN  =       -11.49045673 eV

  energy without entropy =      -11.49096737  energy(sigma->0) =      -11.49058439


--------------------------------------------------------------------------------------------------------




--------------------------------------- Iteration      1(  13)  ---------------------------------------


    POTLOK:  cpu time    0.0126: real time    0.0153
    SETDIJ:  cpu time    0.1914: real time    0.1914
    EDDIAG:  cpu time    1.4270: real time    1.4268
  RMM-DIIS:  cpu time    0.3043: real time    0.3020
    ORTHCH:  cpu time    0.2199: real time    0.2198
       DOS:  cpu time    0.0012: real time    0.0012
    CHARGE:  cpu time    0.0444: real time    0.0444
    MIXING:  cpu time    0.0006: real time    0.0006
    --------------------------------------------
      LOOP:  cpu time    2.2014: real time    2.2014

 eigenvalue-minimisations  : 27071
 total energy-change (2. order) :-0.1143173E-05  (-0.6194142E-08)
 number of electron       8.0000000 magnetization      -0.0000377
 augmentation part       -0.4576312 magnetization      -0.0000347

 Broyden mixing:
  rms(total) = 0.14020E-03    rms(broyden)= 0.14020E-03
  rms(prec ) = 0.24763E-03
  weight for this iteration     100.00

 eigenvalues of (default mixing * dielectric matrix)
  average eigenvalue GAMMA=   1.3937
  2.7075  2.4683  1.9723  1.1260  0.7939  0.7939  0.6327  0.6547

 Free energy of the ion-electron system (eV)
  ---------------------------------------------------
  alpha Z        PSCENC =         3.30899841
  Ewald energy   TEWEN  =      -227.30768138
  -Hartree energ DENC   =       -14.79806963
  -exchange      EXHF   =         0.00000000
  -V(xc)+E(xc)   XCENC  =       -16.91892552
  PAW double counting   =       838.58853823     -804.21444186
  entropy T*S    EENTRO =         0.00051068
  eigenvalues    EBANDS =         4.69898765
  atomic energy  EATOM  =       205.15162554
  Solvation  Ediel_sol  =         0.00000000
  ---------------------------------------------------
  free energy    TOTEN  =       -11.49045787 eV

  energy without entropy =      -11.49096855  energy(sigma->0) =      -11.49058554


--------------------------------------------------------------------------------------------------------




--------------------------------------- Iteration      1(  14)  ---------------------------------------


    POTLOK:  cpu time    0.0121: real time    0.0147
    SETDIJ:  cpu time    0.1915: real time    0.1915
    EDDIAG:  cpu time    1.4762: real time    1.4760
  RMM-DIIS:  cpu time    0.2947: real time    0.2935
    ORTHCH:  cpu time    0.2223: real time    0.2222
       DOS:  cpu time    0.0012: real time    0.0012
    CHARGE:  cpu time    0.0445: real time    0.0445
    MIXING:  cpu time    0.0005: real time    0.0005
    --------------------------------------------
      LOOP:  cpu time    2.2429: real time    2.2440

 eigenvalue-minimisations  : 26246
 total energy-change (2. order) :-0.1186812E-06  (-0.8330861E-09)
 number of electron       8.0000000 magnetization       0.0000322
 augmentation part       -0.4576287 magnetization       0.0000298

 Broyden mixing:
  rms(total) = 0.11670E-03    rms(broyden)= 0.11670E-03
  rms(prec ) = 0.14676E-03
  weight for this iteration     100.00

 eigenvalues of (default mixing * dielectric matrix)
  average eigenvalue GAMMA=   1.3376
  2.7356  2.4197  1.9738  1.0370  1.0370  0.7859  0.7645  0.6304  0.6544

 Free energy of the ion-electron system (eV)
  ---------------------------------------------------
  alpha Z        PSCENC =         3.30899841
  Ewald energy   TEWEN  =      -227.30768138
  -Hartree energ DENC   =       -14.79842298
  -exchange      EXHF   =         0.00000000
  -V(xc)+E(xc)   XCENC  =       -16.91892500
  PAW double counting   =       838.44068490     -804.06658531
  entropy T*S    EENTRO =         0.00051069
  eigenvalues    EBANDS =         4.69933713
  atomic energy  EATOM  =       205.15162554
  Solvation  Ediel_sol  =         0.00000000
  ---------------------------------------------------
  free energy    TOTEN  =       -11.49045799 eV

  energy without entropy =      -11.49096868  energy(sigma->0) =      -11.49058566


--------------------------------------------------------------------------------------------------------




--------------------------------------- Iteration      1(  15)  ---------------------------------------


    POTLOK:  cpu time    0.0121: real time    0.0148
    SETDIJ:  cpu time    0.2072: real time    0.2072
    EDDIAG:  cpu time    1.4349: real time    1.4347
  RMM-DIIS:  cpu time    0.2912: real time    0.2891
    ORTHCH:  cpu time    0.2207: real time    0.2206
       DOS:  cpu time    0.0012: real time    0.0012
    --------------------------------------------
      LOOP:  cpu time    2.1672: real time    2.1677

 eigenvalue-minimisations  : 21937
 total energy-change (2. order) :-0.2214225E-07  (-0.1866657E-09)
 number of electron       8.0000000 magnetization       0.0000322
 augmentation part       -0.4576287 magnetization       0.0000298

 Free energy of the ion-electron system (eV)
  ---------------------------------------------------
  alpha Z        PSCENC =         3.30899841
  Ewald energy   TEWEN  =      -227.30768138
  -Hartree energ DENC   =       -14.79871921
  -exchange      EXHF   =         0.00000000
  -V(xc)+E(xc)   XCENC  =       -16.91890039
  PAW double counting   =       838.59947090     -804.22536728
  entropy T*S    EENTRO =         0.00051069
  eigenvalues    EBANDS =         4.69960470
  atomic energy  EATOM  =       205.15162554
  Solvation  Ediel_sol  =         0.00000000
  ---------------------------------------------------
  free energy    TOTEN  =       -11.49045801 eV

  energy without entropy =      -11.49096871  energy(sigma->0) =      -11.49058569


--------------------------------------------------------------------------------------------------------




 average (electrostatic) potential at core
  the test charge radii are     0.9892
  (the norm of the test charge is              1.0000)
       1 -83.2171       2 -83.2171
 
 
 
 E-fermi :   5.6358     XC(G=0):  -9.4917     alpha+bet :-11.7881


 spin component 1

 k-point     1 :       0.0000    0.0000    0.0000
  band No.  band energies     occupation 
      1      -6.2519      1.00000
      2       5.6278      0.54224
      3       5.6278      0.54224
      4       5.6278      0.54224
      5       8.1385      0.00000
      6       8.1385      0.00000
      7       8.1385      0.00000
      8       8.7689      0.00000
      9      13.2731      0.00000
     10      13.3072      0.00000
     11      13.3072      0.00000
     12      16.6702      0.00000
     13      16.6702      0.00000
     14      16.6702      0.00000
     15      20.6101      0.00000
     16      28.4349      0.00000
     17      28.4349      0.00000
     18      28.4349      0.00000
     19      29.5866      0.00000
     20      29.5866      0.00000
     21      31.0062      0.00000
     22      31.0062      0.00000
     23      31.0062      0.00000
     24      34.5966      0.00000
     25      34.5966      0.00000
     26      34.5966      0.00000
     27      40.0818      0.00000
     28      40.0818      0.00000
     29      40.0818      0.00000
     30      43.3187      0.00000
     31      43.8593      0.00000
     32      43.8593      0.00000
     33      45.7952      0.00000
     34      45.7952      0.00000
     35      47.2893      0.00000
     36      47.2893      0.00000
     37      47.2893      0.00000
     38      49.0813      0.00000
     39      49.0813      0.00000
     40      49.0813      0.00000
     41      49.5966      0.00000
     42      50.0774      0.00000
     43      50.0774      0.00000
     44      50.0774      0.00000
     45      50.1918      0.00000
     46      50.1918      0.00000
     47      50.1918      0.00000
     48      51.5511      0.00000
     49      51.5511      0.00000
     50      51.5511      0.00000
     51      55.3314      0.00000
     52      56.5202      0.00000
     53      56.5202      0.00000
     54      56.5202      0.00000
     55      56.7463      0.00000
     56      56.7463      0.00000
     57      56.7463      0.00000
     58      61.5817      0.00000
     59      62.6600      0.00000
     60      71.3247      0.00000
     61      71.3247      0.00000
     62      74.3616      0.00000
     63      74.3616      0.00000
     64      74.3616      0.00000
     65      76.9285      0.00000
     66      76.9285      0.00000
     67      77.1774      0.00000
     68      77.1774      0.00000
     69      77.1774      0.00000
     70      77.4403      0.00000
     71      77.5786      0.00000
     72      77.5786      0.00000
     73      77.5786      0.00000
     74      81.6543      0.00000
     75      81.6543      0.00000
     76      81.6543      0.00000
     77      87.5120      0.00000
     78      87.5120      0.00000
     79      87.5120      0.00000
     80      87.7625      0.00000
     81      87.7625      0.00000
     82      88.2567      0.00000
     83      88.2567      0.00000
     84      88.2567      0.00000
     85      89.4543      0.00000
     86      89.4543      0.00000
     87      89.4543      0.00000
     88      89.7553      0.00000
     89      91.1809      0.00000
     90      91.1809      0.00000
     91      91.6921      0.00000
     92      91.6921      0.00000
     93      91.6921      0.00000
     94      94.9022      0.00000
     95      94.9022      0.00000
     96      94.9022      0.00000
     97      95.9087      0.00000
     98      96.1217      0.00000
     99      96.1217      0.00000
    100      96.1217      0.00000
    101      96.9027      0.00000
    102      96.9027      0.00000
    103      96.9027      0.00000
    104      96.9794      0.00000
    105      96.9794      0.00000
    106      96.9794      0.00000
    107      97.5802      0.00000
    108      98.4797      0.00000
    109      98.4797      0.00000
    110      98.4797      0.00000
    111      98.5959      0.00000
    112      98.5959      0.00000
    113     104.3606      0.00000
    114     105.5019      0.00000
    115     105.5019      0.00000
    116     105.5019      0.00000
    117     107.9771      0.00000
    118     107.9771      0.00000
    119     108.2706      0.00000
    120     109.2951      0.00000
    121     109.2951      0.00000
    122     109.2951      0.00000
    123     112.7898      0.00000
    124     112.7898      0.00000
    125     112.7898      0.00000
    126     113.1370      0.00000
    127     113.1370      0.00000
    128     113.1370      0.00000
    129     113.8933      0.00000
    130     113.8933      0.00000
    131     113.8933      0.00000
    132     114.6771      0.00000
    133     114.6771      0.00000
    134     114.6771      0.00000
    135     115.1828      0.00000
    136     115.5252      0.00000
    137     115.5252      0.00000
    138     124.3845      0.00000
    139     124.3845      0.00000
    140     125.1490      0.00000
    141     125.6435      0.00000
    142     125.6435      0.00000
    143     125.6435      0.00000
    144     126.4704      0.00000

 k-point     2 :       0.1000    0.0000    0.0000
  band No.  band energies     occupation 
      1      -6.1223      1.00000
      2       4.4727      1.00000
      3       5.4300      1.05009
      4       5.4300      1.05009
      5       8.1077      0.00000
      6       8.4288      0.00000
      7       8.4288      0.00000
      8       9.7304      0.00000
      9      12.9378      0.00000
     10      12.9378      0.00000
     11      13.8192      0.00000
     12      16.2290      0.00000
     13      17.4681      0.00000
     14      17.4681      0.00000
     15      21.4638      0.00000
     16      27.0809      0.00000
     17      27.0809      0.00000
     18      27.1879      0.00000
     19      29.2228      0.00000
     20      29.2228      0.00000
     21      31.4598      0.00000
     22      31.4598      0.00000
     23      32.0630      0.00000
     24      34.7153      0.00000
     25      36.0952      0.00000
     26      36.0952      0.00000
     27      38.4219      0.00000
     28      39.7356      0.00000
     29      39.7356      0.00000
     30      42.6193      0.00000
     31      42.6193      0.00000
     32      43.7643      0.00000
     33      44.3294      0.00000
     34      44.3294      0.00000
     35      47.1117      0.00000
     36      47.1117      0.00000
     37      47.2983      0.00000
     38      48.0259      0.00000
     39      48.3993      0.00000
     40      49.0299      0.00000
     41      49.0299      0.00000
     42      49.6646      0.00000
     43      49.6714      0.00000
     44      49.6714      0.00000
     45      51.3217      0.00000
     46      51.7663      0.00000
     47      51.7663      0.00000
     48      52.3536      0.00000
     49      54.0459      0.00000
     50      54.3156      0.00000
     51      54.3156      0.00000
     52      55.5701      0.00000
     53      55.5701      0.00000
     54      56.0809      0.00000
     55      58.6865      0.00000
     56      58.6865      0.00000
     57      59.7586      0.00000
     58      62.9068      0.00000
     59      63.8330      0.00000
     60      69.1175      0.00000
     61      69.1175      0.00000
     62      71.8202      0.00000
     63      73.9471      0.00000
     64      73.9471      0.00000
     65      74.9731      0.00000
     66      75.7903      0.00000
     67      75.7903      0.00000
     68      77.4338      0.00000
     69      77.4338      0.00000
     70      77.5414      0.00000
     71      77.5414      0.00000
     72      78.4344      0.00000
     73      80.1091      0.00000
     74      81.4654      0.00000
     75      83.4593      0.00000
     76      83.4593      0.00000
     77      83.8131      0.00000
     78      83.8131      0.00000
     79      86.2253      0.00000
     80      87.3219      0.00000
     81      87.3219      0.00000
     82      87.7425      0.00000
     83      88.5932      0.00000
     84      88.5932      0.00000
     85      89.3090      0.00000
     86      89.3090      0.00000
     87      89.5377      0.00000
     88      90.4178      0.00000
     89      90.4371      0.00000
     90      91.6606      0.00000
     91      91.6606      0.00000
     92      92.1415      0.00000
     93      93.1245      0.00000
     94      93.1245      0.00000
     95      93.3304      0.00000
     96      93.3304      0.00000
     97      93.9686      0.00000
     98      94.8224      0.00000
     99      94.8224      0.00000
    100      95.7064      0.00000
    101      97.0846      0.00000
    102      97.2606      0.00000
    103      97.2606      0.00000
    104      98.4572      0.00000
    105      98.4572      0.00000
    106      98.9979      0.00000
    107     100.1677      0.00000
    108     100.1677      0.00000
    109     100.7735      0.00000
    110     101.1562      0.00000
    111     102.7926      0.00000
    112     103.9854      0.00000
    113     103.9854      0.00000
    114     104.2327      0.00000
    115     104.2327      0.00000
    116     104.4653      0.00000
    117     104.4653      0.00000
    118     105.7733      0.00000
    119     108.3300      0.00000
    120     108.7687      0.00000
    121     108.7687      0.00000
    122     109.5130      0.00000
    123     110.3105      0.00000
    124     110.3105      0.00000
    125     111.4520      0.00000
    126     112.5529      0.00000
    127     112.7425      0.00000
    128     112.7425      0.00000
    129     114.9869      0.00000
    130     114.9869      0.00000
    131     116.0453      0.00000
    132     116.9224      0.00000
    133     116.9224      0.00000
    134     117.4825      0.00000
    135     117.5815      0.00000
    136     118.9429      0.00000
    137     120.2324      0.00000
    138     120.2324      0.00000
    139     121.6368      0.00000
    140     121.6368      0.00000
    141     122.0953      0.00000
    142     122.0953      0.00000
    143     122.1960      0.00000
    144     122.9159      0.00000

 k-point     3 :       0.2000    0.0000   -0.0000
  band No.  band energies     occupation 
      1      -5.7396      1.00000
      2       2.6171      1.00000
      3       5.0515      0.99957
      4       5.0515      0.99957
      5       7.7297      0.00000
      6       8.9321      0.00000
      7       8.9321      0.00000
      8      11.4880      0.00000
      9      12.6117      0.00000
     10      12.6117      0.00000
     11      14.5040      0.00000
     12      16.3211      0.00000
     13      19.1801      0.00000
     14      19.1801      0.00000
     15      23.1477      0.00000
     16      24.4551      0.00000
     17      24.4551      0.00000
     18      25.3594      0.00000
     19      29.3155      0.00000
     20      29.3155      0.00000
     21      31.7844      0.00000
     22      31.7844      0.00000
     23      33.4343      0.00000
     24      35.0579      0.00000
     25      35.4230      0.00000
     26      38.0767      0.00000
     27      38.0767      0.00000
     28      39.0264      0.00000
     29      39.0264      0.00000
     30      39.9631      0.00000
     31      39.9631      0.00000
     32      43.0444      0.00000
     33      43.0444      0.00000
     34      44.0367      0.00000
     35      45.1902      0.00000
     36      45.6522      0.00000
     37      46.5947      0.00000
     38      46.5947      0.00000
     39      48.8565      0.00000
     40      49.0961      0.00000
     41      49.0961      0.00000
     42      49.1229      0.00000
     43      49.7616      0.00000
     44      51.1661      0.00000
     45      51.1661      0.00000
     46      54.3297      0.00000
     47      54.3297      0.00000
     48      54.3679      0.00000
     49      54.5430      0.00000
     50      54.5430      0.00000
     51      56.9021      0.00000
     52      57.4184      0.00000
     53      59.6601      0.00000
     54      59.6601      0.00000
     55      61.1991      0.00000
     56      61.1991      0.00000
     57      61.6124      0.00000
     58      64.6021      0.00000
     59      66.1280      0.00000
     60      66.1280      0.00000
     61      67.6741      0.00000
     62      69.0121      0.00000
     63      69.7459      0.00000
     64      69.7459      0.00000
     65      72.3366      0.00000
     66      73.3620      0.00000
     67      73.3620      0.00000
     68      76.3326      0.00000
     69      76.3326      0.00000
     70      77.8330      0.00000
     71      80.3807      0.00000
     72      80.3807      0.00000
     73      80.7658      0.00000
     74      82.0891      0.00000
     75      82.0891      0.00000
     76      82.2039      0.00000
     77      82.6704      0.00000
     78      82.6704      0.00000
     79      84.5876      0.00000
     80      85.4102      0.00000
     81      85.8479      0.00000
     82      85.8479      0.00000
     83      86.9683      0.00000
     84      86.9683      0.00000
     85      87.9400      0.00000
     86      88.3483      0.00000
     87      89.5556      0.00000
     88      89.5556      0.00000
[...]
 k-point    46 :      -0.3000    0.4000    0.2000
  band No.  band energies     occupation 
      1      -2.5349      1.00000
      2      -1.3108      1.00000
      3       1.5790      1.00000
      4       2.4824      1.00000
      5       9.3373      0.00000
      6       9.6749      0.00000
      7      11.0772      0.00000
      8      11.5339      0.00000
      9      14.6059      0.00000
     10      16.8791      0.00000
     11      17.9218      0.00000
     12      20.0266      0.00000
     13      20.8562      0.00000
     14      22.8136      0.00000
     15      23.1461      0.00000
     16      23.9531      0.00000
     17      24.0933      0.00000
     18      25.6151      0.00000
     19      26.2562      0.00000
     20      26.2939      0.00000
     21      28.3588      0.00000
     22      30.5395      0.00000
     23      31.8997      0.00000
     24      32.0622      0.00000
     25      34.1122      0.00000
     26      34.4428      0.00000
     27      34.8278      0.00000
     28      36.5476      0.00000
     29      37.2255      0.00000
     30      38.0407      0.00000
     31      40.6656      0.00000
     32      42.6846      0.00000
     33      43.6226      0.00000
     34      44.7528      0.00000
     35      46.0054      0.00000
     36      46.0959      0.00000
     37      48.4203      0.00000
     38      48.7556      0.00000
     39      49.2048      0.00000
     40      50.8631      0.00000
     41      51.1109      0.00000
     42      52.2322      0.00000
     43      53.7042      0.00000
     44      54.8196      0.00000
     45      55.8290      0.00000
     46      56.0071      0.00000
     47      56.4961      0.00000
     48      58.5208      0.00000
     49      58.8805      0.00000
     50      60.7950      0.00000
     51      61.4745      0.00000
     52      61.7962      0.00000
     53      62.1556      0.00000
     54      62.7207      0.00000
     55      63.4187      0.00000
     56      64.2236      0.00000
     57      65.5290      0.00000
     58      65.5481      0.00000
     59      67.1698      0.00000
     60      67.7720      0.00000
     61      68.2644      0.00000
     62      68.8716      0.00000
     63      69.8330      0.00000
     64      70.4517      0.00000
     65      71.8248      0.00000
     66      72.5384      0.00000
     67      74.2802      0.00000
     68      74.6459      0.00000
     69      74.7195      0.00000
     70      74.7746      0.00000
     71      77.1181      0.00000
     72      77.1524      0.00000
     73      78.2458      0.00000
     74      78.6495      0.00000
     75      79.8941      0.00000
     76      79.9921      0.00000
     77      80.7202      0.00000
     78      82.0692      0.00000
     79      82.6526      0.00000
     80      83.1496      0.00000
     81      83.3322      0.00000
     82      83.7084      0.00000
     83      84.5402      0.00000
     84      85.6336      0.00000
     85      85.9898      0.00000
     86      86.1003      0.00000
     87      87.9363      0.00000
     88      88.0343      0.00000
     89      88.3989      0.00000
     90      89.3821      0.00000
     91      90.0951      0.00000
     92      91.1664      0.00000
     93      91.3686      0.00000
     94      91.6739      0.00000
     95      92.0067      0.00000
     96      92.5344      0.00000
     97      94.3908      0.00000
     98      95.5477      0.00000
     99      97.0866      0.00000
    100      97.2303      0.00000
    101      97.9931      0.00000
    102      98.6420      0.00000
    103     100.1401      0.00000
    104     100.3333      0.00000
    105     100.8172      0.00000
    106     101.1957      0.00000
    107     101.4737      0.00000
    108     102.3256      0.00000
    109     104.2854      0.00000
    110     105.0683      0.00000
    111     106.4129      0.00000
    112     106.4179      0.00000
    113     107.9110      0.00000
    114     109.2734      0.00000
    115     110.2789      0.00000
    116     111.3850      0.00000
    117     111.7187      0.00000
    118     112.7628      0.00000
    119     112.8181      0.00000
    120     113.9767      0.00000
    121     114.1804      0.00000
    122     114.7595      0.00000
    123     114.7736      0.00000
    124     115.5433      0.00000
    125     116.6799      0.00000
    126     116.7352      0.00000
    127     117.6904      0.00000
    128     118.0566      0.00000
    129     118.7763      0.00000
    130     118.9784      0.00000
    131     120.0273      0.00000
    132     120.0594      0.00000
    133     120.6194      0.00000
    134     121.0065      0.00000
    135     121.1981      0.00000
    136     122.1439      0.00000
    137     122.8465      0.00000
    138     122.8862      0.00000
    139     123.4077      0.00000
    140     123.9406      0.00000
    141     124.8912      0.00000
    142     125.0744      0.00000
    143     125.3337      0.00000
    144     125.7814      0.00000

 k-point    47 :      -0.3000    0.5000    0.2000
  band No.  band energies     occupation 
      1      -1.9073      1.00000
      2      -1.9073      1.00000
      3       1.9448      1.00000
      4       1.9448      1.00000
      5       9.1032      0.00000
      6       9.1032      0.00000
      7      11.6149      0.00000
      8      11.6149      0.00000
      9      16.2777      0.00000
     10      16.2777      0.00000
     11      18.6934      0.00000
     12      18.6934      0.00000
     13      22.1190      0.00000
     14      22.1190      0.00000
     15      23.5543      0.00000
     16      23.5543      0.00000
     17      24.3143      0.00000
     18      24.3143      0.00000
     19      26.4267      0.00000
     20      26.4267      0.00000
     21      29.1051      0.00000
     22      29.1051      0.00000
     23      31.4262      0.00000
     24      31.4262      0.00000
     25      34.8740      0.00000
     26      34.8740      0.00000
     27      35.4626      0.00000
     28      35.4626      0.00000
     29      38.1457      0.00000
     30      38.1457      0.00000
     31      42.5520      0.00000
     32      42.5520      0.00000
     33      43.1876      0.00000
     34      43.1876      0.00000
     35      46.1110      0.00000
     36      46.1110      0.00000
     37      48.4680      0.00000
     38      48.4680      0.00000
     39      49.4918      0.00000
     40      49.4918      0.00000
     41      52.9508      0.00000
     42      52.9508      0.00000
     43      54.1529      0.00000
     44      54.1529      0.00000
     45      55.3576      0.00000
     46      55.3576      0.00000
     47      56.7118      0.00000
     48      56.7118      0.00000
     49      60.3619      0.00000
     50      60.3619      0.00000
     51      61.3237      0.00000
     52      61.3237      0.00000
     53      63.3335      0.00000
     54      63.3335      0.00000
     55      64.0581      0.00000
     56      64.0581      0.00000
     57      65.7981      0.00000
     58      65.7981      0.00000
     59      67.3329      0.00000
     60      67.3329      0.00000
     61      68.9748      0.00000
     62      68.9748      0.00000
     63      70.6228      0.00000
     64      70.6228      0.00000
     65      71.0274      0.00000
     66      71.0274      0.00000
     67      72.9909      0.00000
     68      72.9909      0.00000
     69      75.8059      0.00000
     70      75.8059      0.00000
     71      76.8927      0.00000
     72      76.8927      0.00000
     73      79.1360      0.00000
     74      79.1360      0.00000
     75      80.8743      0.00000
     76      80.8743      0.00000
     77      81.3912      0.00000
     78      81.3912      0.00000
     79      82.8121      0.00000
     80      82.8121      0.00000
     81      83.6502      0.00000
     82      83.6502      0.00000
     83      84.9467      0.00000
     84      84.9467      0.00000
     85      85.7567      0.00000
     86      85.7567      0.00000
     87      88.1596      0.00000
     88      88.1596      0.00000
     89      88.8067      0.00000
     90      88.8067      0.00000
     91      90.2805      0.00000
     92      90.2805      0.00000
     93      91.0728      0.00000
     94      91.0728      0.00000
     95      92.5053      0.00000
     96      92.5053      0.00000
     97      94.4789      0.00000
     98      94.4789      0.00000
     99      96.0512      0.00000
    100      96.0512      0.00000
    101      96.7689      0.00000
    102      96.7689      0.00000
    103      98.2075      0.00000
    104      98.2075      0.00000
    105     100.8638      0.00000
    106     100.8638      0.00000
    107     105.1010      0.00000
    108     105.1010      0.00000
    109     105.3740      0.00000
    110     105.3740      0.00000
    111     107.1565      0.00000
    112     107.1565      0.00000
    113     108.7711      0.00000
    114     108.7711      0.00000
    115     111.2871      0.00000
    116     111.2871      0.00000
    117     112.3927      0.00000
    118     112.3927      0.00000
    119     112.9854      0.00000
    120     112.9854      0.00000
    121     113.6792      0.00000
    122     113.6792      0.00000
    123     115.4271      0.00000
    124     115.4271      0.00000
    125     118.0584      0.00000
    126     118.0584      0.00000
    127     118.3847      0.00000
    128     118.3847      0.00000
    129     119.5658      0.00000
    130     119.5658      0.00000
    131     120.2564      0.00000
    132     120.2564      0.00000
    133     120.4737      0.00000
    134     120.4737      0.00000
    135     121.2621      0.00000
    136     121.2621      0.00000
    137     121.6250      0.00000
    138     121.6250      0.00000
    139     122.6867      0.00000
    140     122.6867      0.00000
    141     125.7527      0.00000
    142     125.7527      0.00000
    143     125.9574      0.00000
    144     125.9574      0.00000


--------------------------------------------------------------------------------------------------------


 soft charge-density along one line, spin component           1
         0         1         2         3         4         5         6         7         8         9
 total charge-density along one line
 
 soft charge-density along one line, spin component           2
         0         1         2         3         4         5         6         7         8         9
 total charge-density along one line
 
 pseudopotential strength for first ion, spin component:           1
 18.405  25.677  -0.000  -0.000  -0.000  -0.000  -0.000  -0.000
 25.677  35.826  -0.000  -0.000  -0.000  -0.000  -0.000  -0.000
 -0.000  -0.000   4.177   0.000   0.000   7.782   0.000   0.000
 -0.000  -0.000   0.000   4.177   0.000   0.000   7.782   0.000
 -0.000  -0.000   0.000   0.000   4.177   0.000   0.000   7.782
 -0.000  -0.000   7.782   0.000   0.000  14.509   0.000   0.000
 -0.000  -0.000   0.000   7.782   0.000   0.000  14.509   0.000
 -0.000  -0.000   0.000   0.000   7.782   0.000   0.000  14.509
 pseudopotential strength for first ion, spin component:           2
 18.405  25.677  -0.000  -0.000  -0.000  -0.000  -0.000  -0.000
 25.677  35.826  -0.000  -0.000  -0.000  -0.000  -0.000  -0.000
 -0.000  -0.000   4.177   0.000   0.000   7.782   0.000   0.000
 -0.000  -0.000   0.000   4.177   0.000   0.000   7.782   0.000
 -0.000  -0.000   0.000   0.000   4.177   0.000   0.000   7.782
 -0.000  -0.000   7.782   0.000   0.000  14.509   0.000   0.000
 -0.000  -0.000   0.000   7.782   0.000   0.000  14.509   0.000
 -0.000  -0.000   0.000   0.000   7.782   0.000   0.000  14.509
 total augmentation occupancy for first ion, spin component:           1
  5.893  -2.260   0.000   0.000   0.000   0.000   0.000   0.000
 -2.260   0.978   0.000   0.000   0.000  -0.000  -0.000  -0.000
  0.000   0.000   2.926  -0.000   0.000  -0.653   0.000  -0.000
  0.000   0.000  -0.000   2.926  -0.000   0.000  -0.653   0.000
  0.000   0.000   0.000  -0.000   2.926  -0.000   0.000  -0.653
  0.000  -0.000  -0.653   0.000  -0.000   0.155  -0.000   0.000
  0.000  -0.000   0.000  -0.653   0.000  -0.000   0.155  -0.000
  0.000  -0.000  -0.000   0.000  -0.653   0.000  -0.000   0.155
 total augmentation occupancy for first ion, spin component:           2
  0.000  -0.000   0.000   0.000   0.000  -0.000  -0.000  -0.000
 -0.000   0.000  -0.000   0.000  -0.000   0.000   0.000   0.000
  0.000  -0.000   0.000  -0.000   0.000  -0.000   0.000  -0.000
  0.000   0.000  -0.000   0.000   0.000   0.000  -0.000   0.000
  0.000  -0.000   0.000   0.000   0.000  -0.000   0.000  -0.000
 -0.000   0.000  -0.000   0.000  -0.000   0.000  -0.000   0.000
 -0.000   0.000   0.000  -0.000   0.000  -0.000   0.000  -0.000
 -0.000   0.000  -0.000   0.000  -0.000   0.000  -0.000   0.000


------------------------ aborting loop because EDIFF is reached ----------------------------------------


 


 total charge     
 
# of ion       s       p       d       tot
------------------------------------------
    1        0.752   0.937   0.000   1.689
    2        0.752   0.937   0.000   1.689
--------------------------------------------------
tot          1.504   1.873   0.000   3.378
 


 magnetization (x)
 
# of ion       s       p       d       tot
------------------------------------------
    1        0.000   0.000   0.000   0.000
    2        0.000   0.000   0.000   0.000
--------------------------------------------------
tot          0.000   0.000   0.000   0.000
 
    CHARGE:  cpu time    0.0435: real time    0.0435
    FORLOC:  cpu time    0.0001: real time    0.0001
    FORNL :  cpu time    0.0200: real time    0.0200
    STRESS:  cpu time    0.3131: real time    0.3131
    FORCOR:  cpu time    0.0092: real time    0.0092
    FORHAR:  cpu time    0.0010: real time    0.0010
    MIXING:  cpu time    0.0002: real time    0.0002
    OFIELD:  cpu time    0.0000: real time    0.0000

  FORCE on cell =-STRESS in cart. coord.  units (eV):
  Direction    XX          YY          ZZ          XY          YZ          ZX
  --------------------------------------------------------------------------------------
  Alpha Z     3.35353     3.35353     3.35353
  Ewald     -76.10762   -76.10762   -76.10762     0.00000     0.00000     0.00000
  Hartree     4.88084     4.88084     4.88084     0.00000     0.00000     0.00000
  E(xc)     -25.53409   -25.53409   -25.53409    -0.00000    -0.00000    -0.00000
  Local     -29.06704   -29.06704   -29.06704     0.00000     0.00000     0.00000
  n-local    78.58163    79.91045    74.19669     2.26479    -1.28849     0.56299
  augment   -11.51561   -11.51561   -11.51561    -0.00000    -0.00000    -0.00000
  Kinetic    58.59127    55.75306    54.94044     3.55755    -0.61009     1.01029
  Fock        0.00000     0.00000     0.00000     0.00000     0.00000     0.00000
  -------------------------------------------------------------------------------------
  Total       0.00119     0.00119     0.00119    -0.00000     0.00000     0.00000
  in kB       0.04732     0.04732     0.04732    -0.00000     0.00000     0.00000
  external pressure =        0.05 kB  Pullay stress =        0.00 kB


 VOLUME and BASIS-vectors are now :
 -----------------------------------------------------------------------------
  energy-cutoff  :      700.00
  volume of cell :       40.15
      direct lattice vectors                 reciprocal lattice vectors
     0.000000000  2.717862999  2.717862999    -0.183968066  0.183968066  0.183968066
     2.717862999 -0.000000000  2.717862999     0.183968066 -0.183968066  0.183968066
     2.717862999  2.717862999  0.000000000     0.183968066  0.183968066 -0.183968066

  length of vectors
     3.843638714  3.843638714  3.843638714     0.318642038  0.318642038  0.318642038


 FORCES acting on ions
    electron-ion (+dipol)            ewald-force                    non-local-force                 convergence-correction
 -----------------------------------------------------------------------------------------------
   0.535E-08 0.535E-08 0.422E-08   0.217E-14 0.281E-14 -.163E-13   0.240E-16 0.317E-17 0.942E-17   0.793E-10 0.793E-10 0.793E-10
   -.535E-08 -.535E-08 -.422E-08   -.218E-14 -.253E-14 0.160E-13   -.350E-16 -.292E-18 0.115E-16   -.793E-10 -.793E-10 -.793E-10
 -----------------------------------------------------------------------------------------------
   0.117E-12 0.602E-13 -.129E-13   -.186E-16 0.278E-15 -.319E-15   -.110E-16 0.288E-17 0.210E-16   -.602E-14 -.323E-14 -.609E-15
 
 
 POSITION                                       TOTAL-FORCE (eV/Angst)
 -----------------------------------------------------------------------------------
      0.00000      0.00000      0.00000        -0.000000     -0.000000     -0.000000
      1.35893      1.35893      1.35893         0.000000      0.000000      0.000000
 -----------------------------------------------------------------------------------
    total drift:                                0.000000      0.000000     -0.000000


--------------------------------------------------------------------------------------------------------



  FREE ENERGIE OF THE ION-ELECTRON SYSTEM (eV)
  ---------------------------------------------------
  free  energy   TOTEN  =       -11.49253282 eV

  energy  without entropy=      -11.49303834  energy(sigma->0) =      -11.49265920
 
 d Force = 0.0000000E+00[ 0.000E+00, 0.000E+00]  d Energy = 0.9626985E-03-0.963E-03
 d Force = 0.0000000E+00[ 0.000E+00, 0.000E+00]  d Ewald  =-0.6870458E+00 0.687E+00


--------------------------------------------------------------------------------------------------------


    POTLOK:  cpu time    0.2041: real time    0.2041


--------------------------------------------------------------------------------------------------------


 stress matrix after NEB project (eV)
      0.00119     -0.00000      0.00000
     -0.00000      0.00119     -0.00000
      0.00000      0.00000      0.00119
  FORCES: max atom, RMS     0.000000    0.000000
  FORCE total and by dimension    0.000000    0.000000
  Stress total and by dimension    0.002054    0.001186


--------------------------------------------------------------------------------------------------------


  
 reached required accuracy - stopping structural energy minimisation
     LOOP+:  cpu time   42.7269: real time   42.7207
    4ORBIT:  cpu time    0.0000: real time    0.0000
 


 total charge     
 
# of ion       s       p       d       tot
------------------------------------------
    1        0.752   0.937   0.000   1.689
    2        0.752   0.937   0.000   1.689
--------------------------------------------------
tot          1.504   1.873   0.000   3.378
 


 magnetization (x)
 
# of ion       s       p       d       tot
------------------------------------------
    1        0.000   0.000   0.000   0.000
    2        0.000   0.000   0.000   0.000
--------------------------------------------------
tot          0.000   0.000   0.000   0.000
 

 total amount of memory used by VASP MPI-rank0    43283. kBytes
=======================================================================

   base      :      30000. kBytes
   nonl-proj :       5690. kBytes
   fftplans  :        394. kBytes
   grid      :       4155. kBytes
   one-center:         12. kBytes
   wavefun   :       3032. kBytes
 
  
  
 General timing and accounting informations for this job:
 ========================================================
  
                  Total CPU time used (sec):      313.248
                            User time (sec):      310.984
                          System time (sec):        2.264
                         Elapsed time (sec):      314.680
  
                   Maximum memory used (kb):      547488.
                   Average memory used (kb):           0.
  
                          Minor page faults:        77496
                          Major page faults:            0
                 Voluntary context switches:        11061
