 vasp.6.2.1 16May21 (build Oct 27 2021 18:14:32) complex                        
  
 executed on             LinuxIFC date 2021.11.08  17:26:13
 running on    1 total cores
 distrk:  each k-point on    1 cores,    1 groups
 distr:  one band on NCORE=   1 cores,    1 groups


--------------------------------------------------------------------------------------------------------


 INCAR:
   ALGO = Normal
   EDIFF = 1e-07
   EDIFFG = -0.001
   ENAUG = 1360.0
   ENCUT = 700.0
   IBRION = 2
   ISIF = 3
   ISMEAR = -5
   ISPIN = 2
   KSPACING = 0.2925287784072645
   LAECHG = False
   LASPH = True
   LCHARG = True
   LELF = True
   LMIXTAU = True
   LORBIT = 11
   LREAL = False
   LVTOT = True
   LWAVE = False
   MAGMOM = 2*-0.0
   NELM = 200
   NSW = 1
   PREC = Accurate
   SIGMA = 0.05

 POTCAR:    PAW_PBE Si 05Jan2001                  
 WARNING: For LVTOT=.TRUE., VASP.5.x writes the TOTAL local potential to the
     file LOCPOT. If you want only the Hartree contributions, use LVHAR=.TRUE.
     instead. 

 POTCAR:    PAW_PBE Si 05Jan2001                  
   VRHFIN =Si: s2p2                                                                                 
   LEXCH  = PE                                                                                      
   EATOM  =   103.0669 eV,    7.5752 Ry                                                             
                                                                                                    
   TITEL  = PAW_PBE Si 05Jan2001                                                                    
   LULTRA =        F    use ultrasoft PP ?                                                          
   IUNSCR =        1    unscreen: 0-lin 1-nonlin 2-no                                               
   RPACOR =    1.500    partial core radius                                                         
   POMASS =   28.085; ZVAL   =    4.000    mass and valenz                                          
   RCORE  =    1.900    outmost cutoff radius                                                       
   RWIGS  =    2.480; RWIGS  =    1.312    wigner-seitz radius (au A)                               
   ENMAX  =  245.345; ENMIN  =  184.009 eV                                                          
   ICORE  =        2    local potential                                                             
   LCOR   =        T    correct aug charges                                                         
   LPAW   =        T    paw PP                                                                      
   EAUG   =  322.069                                                                                
   DEXC   =    0.000                                                                                
   RMAX   =    1.950    core radius for proj-oper                                                   
   RAUG   =    1.300    factor for augmentation sphere                                              
   RDEP   =    1.993    radius for radial grids                                                     
   RDEPT  =    1.837    core radius for aug-charge                                                  
                                                                                                    
   Atomic configuration                                                                             
    6 entries                                                                                       
     n  l   j            E        occ.                                                              
     1  0  0.50     -1785.8828   2.0000                                                             
     2  0  0.50      -139.4969   2.0000                                                             
     2  1  1.50       -95.5546   6.0000                                                             
     3  0  0.50       -10.8127   2.0000                                                             
     3  1  0.50        -4.0811   2.0000                                                             
     3  2  1.50        -4.0817   0.0000                                                             
   Description                                                                                      
     l       E           TYP  RCUT    TYP  RCUT                                                     
     0    -10.8127223     23  1.900                                                                 
     0     -7.6451159     23  1.900                                                                 
     1     -4.0811372     23  1.900                                                                 
     1      2.4879257     23  1.900                                                                 
     2     -4.0817478      7  1.900                                                                 
  local pseudopotential read in
  partial core-charges read in
  partial kinetic energy density read in
  atomic valenz-charges read in
  non local Contribution for L=           0  read in
    real space projection operators read in
  non local Contribution for L=           0  read in
    real space projection operators read in
  non local Contribution for L=           1  read in
    real space projection operators read in
  non local Contribution for L=           1  read in
    real space projection operators read in
    PAW grid and wavefunctions read in
 
   number of l-projection  operators is LMAX  =           4
   number of lm-projection operators is LMMAX =           8
 
  PAW_PBE Si 05Jan2001                  :
 energy of atom  1       EATOM= -103.0669
 kinetic energy error for atom=    0.0003 (will be added to EATOM!!)
 
 
 POSCAR: Si2
  positions in direct lattice
  No initial velocities read in
 exchange correlation table for  LEXCH =        8
   RHO(1)=    0.500       N(1)  =     2000
   RHO(2)=  100.500       N(2)  =     4000
 


--------------------------------------------------------------------------------------------------------


 ion  position               nearest neighbor table
   1  0.750  0.750  0.750-   2 2.37   2 2.37   2 2.40   2 2.40
   2  0.500  0.500  0.500-   1 2.37   1 2.37   1 2.40   1 2.40
 
  LATTYP: Found a body centered orthorhombic cell.
 ALAT       =     3.8538871998
 B/A-ratio  =     1.0202042346
 C/A-ratio  =     1.4285716510
  
  Lattice vectors:
  
 A1 = (  -2.7527770000,   0.0550560000,  -2.7522260000)
 A2 = (  -2.7527770000,  -0.0550560000,   2.7522260000)
 A3 = (   2.7527770000,   2.7527770000,   0.0000000000)


Analysis of symmetry for initial positions (statically):
=====================================================================
 Subroutine PRICEL returns:
 Original cell was already a primitive cell.
 

 Routine SETGRP: Setting up the symmetry group for a 
 body centered orthorhombic supercell.


 Subroutine GETGRP returns: Found  8 space group operations
 (whereof  4 operations were pure point group operations)
 out of a pool of  8 trial point group operations.


The static configuration has the point symmetry C_2v.
 The point group associated with its full space group is D_2h.


Analysis of symmetry for dynamics (positions and initial velocities):
=====================================================================
 Subroutine PRICEL returns:
 Original cell was already a primitive cell.
 

 Routine SETGRP: Setting up the symmetry group for a 
 body centered orthorhombic supercell.


 Subroutine GETGRP returns: Found  8 space group operations
 (whereof  4 operations were pure point group operations)
 out of a pool of  8 trial point group operations.


The dynamic configuration has the point symmetry C_2v.
 The point group associated with its full space group is D_2h.


Analysis of structural, dynamic, and magnetic symmetry:
=====================================================================
 Subroutine PRICEL returns:
 Original cell was already a primitive cell.
 

 Routine SETGRP: Setting up the symmetry group for a 
 body centered orthorhombic supercell.


 Subroutine GETGRP returns: Found  8 space group operations
 (whereof  4 operations were pure point group operations)
 out of a pool of  8 trial point group operations.


The overall configuration has the point symmetry C_2v.
 The point group associated with its full space group is D_2h.


 Subroutine INISYM returns: Found  8 space group operations
 (whereof  4 operations are pure point group operations),
 and found     1 'primitive' translations


----------------------------------------------------------------------------------------

                                     Primitive cell                                     

  volume of cell :      41.7115

  direct lattice vectors                    reciprocal lattice vectors
     0.000000000  2.697721000  2.752226000    -0.181634764  0.181634764  0.185304580
     2.752777000 -0.055056000  2.752226000     0.181634764 -0.181634764  0.178037674
     2.752777000  2.752777000  0.000000000     0.181634764  0.181634764 -0.178037674

  length of vectors
     3.853887200  3.893014299  3.893014568     0.316733582  0.312537659  0.312537659

  position of ions in fractional coordinates (direct lattice)
     0.750000000  0.750000000  0.750000000
     0.500000000  0.500000000  0.500000000

  ion indices of the primitive-cell ions
   primitive index   ion index
                 1           1
                 2           2

----------------------------------------------------------------------------------------

 
 
 KPOINTS: pymatgen with grid density = 100 / numbe

Automatic generation of k-mesh.
 Grid dimensions read from file:
 generate k-points for:    3    3    3

 Generating k-lattice:

  Cartesian coordinates                     Fractional coordinates (reciprocal lattice)
    -0.060544921  0.060544921  0.061768193     0.333333333 -0.000000000 -0.000000000
     0.060544921 -0.060544921  0.059345891     0.000000000  0.333333333  0.000000000
     0.060544921  0.060544921 -0.059345891    -0.000000000 -0.000000000  0.333333333

  Length of vectors
     0.105577861  0.104179220  0.104179220

  Shift w.r.t. Gamma in fractional coordinates (k-lattice)
     0.000000000  0.000000000  0.000000000

 TETIRR: Found     26 inequivalent tetrahedra from      162
 
 Subroutine IBZKPT returns following result:
 ===========================================
 
 Found      8 irreducible k-points:
 
 Following reciprocal coordinates:
            Coordinates               Weight
  0.000000  0.000000  0.000000      1.000000
  0.333333 -0.000000  0.000000      4.000000
 -0.000000  0.333333 -0.000000      4.000000
  0.333333  0.333333 -0.000000      4.000000
 -0.333333  0.333333  0.000000      8.000000
 -0.000000  0.333333  0.333333      2.000000
 -0.333333  0.333333  0.333333      2.000000
  0.000000 -0.333333  0.333333      2.000000
 
 Following cartesian coordinates:
            Coordinates               Weight
  0.000000  0.000000  0.000000      1.000000
 -0.060545  0.060545  0.061768      4.000000
  0.060545 -0.060545  0.059346      4.000000
  0.000000 -0.000000  0.121114      4.000000
  0.121090 -0.121090 -0.002422      8.000000
  0.121090  0.000000 -0.000000      2.000000
  0.181635 -0.060545 -0.061768      2.000000
 -0.000000  0.121090 -0.118692      2.000000
 


--------------------------------------------------------------------------------------------------------




 Dimension of arrays:
   k-points           NKPTS =      8   k-points in BZ     NKDIM =      8   number of bands    NBANDS=      8
   number of dos      NEDOS =    301   number of ions     NIONS =      2
   non local maximal  LDIM  =      4   non local SUM 2l+1 LMDIM =      8
   total plane-waves  NPLWV =  46656
   max r-space proj   IRMAX =      1   max aug-charges    IRDMAX=  37593
   dimension x,y,z NGX =    36 NGY =   36 NGZ =   36
   dimension x,y,z NGXF=    72 NGYF=   72 NGZF=   72
   support grid    NGXF=    72 NGYF=   72 NGZF=   72
   ions per type =               2
   NGX,Y,Z   is equivalent  to a cutoff of  15.53, 15.37, 15.37 a.u.
   NGXF,Y,Z  is equivalent  to a cutoff of  31.06, 30.75, 30.75 a.u.

 SYSTEM =  unknown system                          
 POSCAR =  Si2                                     

 Startparameter for this run:
   NWRITE =      2    write-flag & timer
   PREC   = accura    normal or accurate (medium, high low for compatibility)
   ISTART =      0    job   : 0-new  1-cont  2-samecut
   ICHARG =      2    charge: 1-file 2-atom 10-const
   ISPIN  =      2    spin polarized calculation?
   LNONCOLLINEAR =      F non collinear calculations
   LSORBIT =      F    spin-orbit coupling
   INIWAV =      1    electr: 0-lowe 1-rand  2-diag
   LASPH  =      T    aspherical Exc in radial PAW
 Electronic Relaxation 1
   ENCUT  =  700.0 eV  51.45 Ry    7.17 a.u.   8.31  8.40  8.40*2*pi/ulx,y,z
   ENINI  =  700.0     initial cutoff
   ENAUG  = 1360.0 eV  augmentation charge cutoff
   NELM   =    200;   NELMIN=  2; NELMDL= -5     # of ELM steps 
   EDIFF  = 0.1E-06   stopping-criterion for ELM
   LREAL  =      F    real-space projection
   NLSPLINE    = F    spline interpolate recip. space projectors
   LCOMPAT=      F    compatible to vasp.4.4
   GGA_COMPAT  = T    GGA compatible to vasp.4.4-vasp.4.6
   LMAXPAW     = -100 max onsite density
   LMAXMIX     =    2 max onsite mixed and CHGCAR
   VOSKOWN=      0    Vosko Wilk Nusair interpolation
   ROPT   =    0.00000
 Ionic relaxation
   EDIFFG = -.1E-02   stopping-criterion for IOM
   NSW    =      1    number of steps for IOM
   NBLOCK =      1;   KBLOCK =      1    inner block; outer block 
   IBRION =      2    ionic relax: 0-MD 1-quasi-New 2-CG
   NFREE  =      1    steps in history (QN), initial steepest desc. (CG)
   ISIF   =      3    stress and relaxation
   IWAVPR =     11    prediction:  0-non 1-charg 2-wave 3-comb
   ISYM   =      2    0-nonsym 1-usesym 2-fastsym
   LCORR  =      T    Harris-Foulkes like correction to forces

   POTIM  = 0.5000    time-step for ionic-motion
   TEIN   =    0.0    initial temperature
   TEBEG  =    0.0;   TEEND  =   0.0 temperature during run
   SMASS  =  -3.00    Nose mass-parameter (am)
   estimated Nose-frequenzy (Omega)   =  0.10E-29 period in steps = 0.13E+47 mass=  -0.339E-27a.u.
   SCALEE = 1.0000    scale energy and forces
   NPACO  =    256;   APACO  = 16.0  distance and # of slots for P.C.
   PSTRESS=    0.0 pullay stress

  Mass of Ions in am
   POMASS =  28.09
  Ionic Valenz
   ZVAL   =   4.00
  Atomic Wigner-Seitz radii
   RWIGS  =  -1.00
  virtual crystal weights 
   VCA    =   1.00
   NELECT =       8.0000    total number of electrons
   NUPDOWN=      -1.0000    fix difference up-down

 DOS related values:
   EMIN   =  10.00;   EMAX   =-10.00  energy-range for DOS
   EFERMI =   0.00
   ISMEAR =    -5;   SIGMA  =   0.05  broadening in eV -4-tet -1-fermi 0-gaus

 Electronic relaxation 2 (details)
   IALGO  =     38    algorithm
   LDIAG  =      T    sub-space diagonalisation (order eigenvalues)
   LSUBROT=      F    optimize rotation matrix (better conditioning)
   TURBO    =      0    0=normal 1=particle mesh
   IRESTART =      0    0=no restart 2=restart with 2 vectors
   NREBOOT  =      0    no. of reboots
   NMIN     =      0    reboot dimension
   EREF     =   0.00    reference energy to select bands
   IMIX   =      4    mixing-type and parameters
     AMIX     =   0.40;   BMIX     =  1.00
     AMIX_MAG =   1.60;   BMIX_MAG =  1.00
     AMIN     =   0.10
     WC   =   100.;   INIMIX=   1;  MIXPRE=   1;  MAXMIX= -45

 Intra band minimization:
   WEIMIN = 0.0010     energy-eigenvalue tresh-hold
   EBREAK =  0.31E-08  absolut break condition
   DEPER  =   0.30     relativ break condition  

   TIME   =   0.40     timestep for ELM

  volume/ion in A,a.u.               =      20.86       140.74
  Fermi-wavevector in a.u.,A,eV,Ry     =   0.944103  1.784096 12.127291  0.891331
  Thomas-Fermi vector in A             =   2.071875
 
 Write flags
   LWAVE        =      F    write WAVECAR
   LDOWNSAMPLE  =      F    k-point downsampling of WAVECAR
   LCHARG       =      T    write CHGCAR
   LVTOT        =      T    write LOCPOT, total local potential
   LVHAR        =      F    write LOCPOT, Hartree potential only
   LELF         =      T    write electronic localiz. function (ELF)
   LORBIT       =     11    0 simple, 1 ext, 2 COOP (PROOUT), +10 PAW based schemes


 Dipole corrections
   LMONO  =      F    monopole corrections only (constant potential shift)
   LDIPOL =      F    correct potential (dipole corrections)
   IDIPOL =      0    1-x, 2-y, 3-z, 4-all directions 
   EPSILON=  1.0000000 bulk dielectric constant

 Exchange correlation treatment:
   GGA     =    --    GGA type
   LEXCH   =     8    internal setting for exchange type
   VOSKOWN=      0    Vosko Wilk Nusair interpolation
   LHFCALC =     F    Hartree Fock is set to
   LHFONE  =     F    Hartree Fock one center treatment
   AEXX    =    0.0000 exact exchange contribution

 Linear response parameters
   LEPSILON=     F    determine dielectric tensor
   LRPA    =     F    only Hartree local field effects (RPA)
   LNABLA  =     F    use nabla operator in PAW spheres
   LVEL    =     F    velocity operator in full k-point grid
   LINTERFAST=   F  fast interpolation
   KINTER  =     0    interpolate to denser k-point grid
   CSHIFT  =0.1000    complex shift for real part using Kramers Kronig
   OMEGAMAX=  -1.0    maximum frequency
   DEG_THRESHOLD= 0.2000000E-02 threshold for treating states as degnerate
   RTIME   =   -0.100 relaxation time in fs
  (WPLASMAI=    0.000 imaginary part of plasma frequency in eV, 0.658/RTIME)
   DFIELD  = 0.0000000 0.0000000 0.0000000 field for delta impulse in time
 
 Orbital magnetization related:
   ORBITALMAG=     F  switch on orbital magnetization
   LCHIMAG   =     F  perturbation theory with respect to B field
   DQ        =  0.001000  dq finite difference perturbation B field
   LLRAUG    =     F  two centre corrections for induced B field



--------------------------------------------------------------------------------------------------------


 conjugate gradient relaxation of ions
 charge density and potential will be updated during run
 spin polarized calculation
 Variant of blocked Davidson
 Davidson routine will perform the subspace rotation
 perform sub-space diagonalisation
    after iterative eigenvector-optimisation
 modified Broyden-mixing scheme, WC =      100.0
 initial mixing is a Kerker type mixing with AMIX =  0.4000 and BMIX =      1.0000
 Hartree-type preconditioning will be used
 using additional bands            4
 reciprocal scheme for non local part
 use partial core corrections
 calculate Harris-corrections to forces 
   (improved forces if not selfconsistent)
 use gradient corrections 
 use of overlap-Matrix (Vanderbilt PP)
 Fermi weights with tetrahedron method with Bloechl corrections


--------------------------------------------------------------------------------------------------------


  energy-cutoff  :      700.00
  volume of cell :       41.71
      direct lattice vectors                 reciprocal lattice vectors
     0.000000000  2.697721000  2.752226000    -0.181634764  0.181634764  0.185304580
     2.752777000 -0.055056000  2.752226000     0.181634764 -0.181634764  0.178037674
     2.752777000  2.752777000  0.000000000     0.181634764  0.181634764 -0.178037674

  length of vectors
     3.853887200  3.893014299  3.893014568     0.316733582  0.312537659  0.312537659


 
 k-points in units of 2pi/SCALE and weight: pymatgen with grid density = 100 / numbe
   0.00000000  0.00000000  0.00000000       0.037
  -0.06054492  0.06054492  0.06176819       0.148
   0.06054492 -0.06054492  0.05934589       0.148
   0.00000000 -0.00000000  0.12111408       0.148
   0.12108984 -0.12108984 -0.00242230       0.296
   0.12108984  0.00000000 -0.00000000       0.074
   0.18163476 -0.06054492 -0.06176819       0.074
  -0.00000000  0.12108984 -0.11869178       0.074
 
 k-points in reciprocal lattice and weights: pymatgen with grid density = 100 / numbe
   0.00000000  0.00000000  0.00000000       0.037
   0.33333333 -0.00000000  0.00000000       0.148
  -0.00000000  0.33333333 -0.00000000       0.148
   0.33333333  0.33333333 -0.00000000       0.148
  -0.33333333  0.33333333  0.00000000       0.296
  -0.00000000  0.33333333  0.33333333       0.074
  -0.33333333  0.33333333  0.33333333       0.074
   0.00000000 -0.33333333  0.33333333       0.074
 
 position of ions in fractional coordinates (direct lattice) 
   0.75000000  0.75000000  0.75000000
   0.50000000  0.50000000  0.50000000
 
 position of ions in cartesian coordinates  (Angst):
   4.12916550  4.04658150  4.12833900
   2.75277700  2.69772100  2.75222600
 


--------------------------------------------------------------------------------------------------------


 k-point   1 :   0.0000 0.0000 0.0000  plane waves:    1791
 k-point   2 :   0.3333-0.0000 0.0000  plane waves:    1757
 k-point   3 :  -0.0000 0.3333-0.0000  plane waves:    1756
 k-point   4 :   0.3333 0.3333-0.0000  plane waves:    1743
 k-point   5 :  -0.3333 0.3333 0.0000  plane waves:    1754
 k-point   6 :  -0.0000 0.3333 0.3333  plane waves:    1746
 k-point   7 :  -0.3333 0.3333 0.3333  plane waves:    1758
 k-point   8 :   0.0000-0.3333 0.3333  plane waves:    1752

 maximum and minimum number of plane-waves per node :      1791     1743

 maximum number of plane-waves:      1791
 maximum index in each direction: 
   IXMAX=    8   IYMAX=    8   IZMAX=    8
   IXMIN=   -8   IYMIN=   -8   IZMIN=   -8


 serial   3D FFT for wavefunctions
 parallel 3D FFT for charge:
    minimum data exchange during FFTs selected (reduces bandwidth)


 total amount of memory used by VASP MPI-rank0    78974. kBytes
=======================================================================

   base      :      30000. kBytes
   nonl-proj :        974. kBytes
   fftplans  :      13060. kBytes
   grid      :      31228. kBytes
   one-center:         12. kBytes
   wavefun   :       3700. kBytes
 
     INWAV:  cpu time    0.0001: real time    0.0001
 Broyden mixing: mesh for mixing (old mesh)
   NGX = 17   NGY = 17   NGZ = 17
  (NGX  = 72   NGY  = 72   NGZ  = 72)
  gives a total of   4913 points

 initial charge density was supplied:
 charge density of overlapping atoms calculated
 number of electron       8.0000000 magnetization       0.0000000
 keeping initial charge density in first step


--------------------------------------------------------------------------------------------------------


 Maximum index for augmentation-charges        36289 (set IRDMAX)


--------------------------------------------------------------------------------------------------------


 First call to EWALD:  gamma=   0.511
 Maximum number of real-space cells 3x 3x 3
 Maximum number of reciprocal cells 3x 3x 3

    FEWALD:  cpu time    0.0012: real time    0.0015


--------------------------------------- Iteration      1(   1)  ---------------------------------------


    POTLOK:  cpu time    0.2616: real time    0.2717
    SETDIJ:  cpu time    0.2937: real time    0.3121
     EDDAV:  cpu time    0.4571: real time    0.4803
 BZINTS: Fermi energy:   10.246979;    8.000000 electrons
         Band energy: 0.250752E+02;  BLOECHL correction:   -0.188209
       DOS:  cpu time    0.0010: real time    0.0019
    --------------------------------------------
      LOOP:  cpu time    1.0135: real time    1.0660

 eigenvalue-minimisations  :   256
 total energy-change (2. order) : 0.1379892E+02  (-0.3854930E+03)
 number of electron       8.0000000 magnetization       0.0000000
 augmentation part        8.0000000 magnetization       0.0000000

 Free energy of the ion-electron system (eV)
  ---------------------------------------------------
  alpha Z        PSCENC =         3.22818448
  Ewald energy   TEWEN  =      -225.42502162
  -Hartree energ DENC   =       -11.63745192
  -exchange      EXHF   =         0.00000000
  -V(xc)+E(xc)   XCENC  =       -18.76180458
  PAW double counting   =       176.24759923     -141.06103558
  entropy T*S    EENTRO =         0.00000000
  eigenvalues    EBANDS =        25.07520478
  atomic energy  EATOM  =       206.13324734
  Solvation  Ediel_sol  =         0.00000000
  ---------------------------------------------------
  free energy    TOTEN  =        13.79892212 eV

  energy without entropy =       13.79892212  energy(sigma->0) =       13.79892212


--------------------------------------------------------------------------------------------------------




--------------------------------------- Iteration      1(   2)  ---------------------------------------


     EDDAV:  cpu time    0.7337: real time    0.8040
 BZINTS: Fermi energy:    5.012875;    8.000000 electrons
         Band energy: 0.115027E+01;  BLOECHL correction:   -0.000000
       DOS:  cpu time    0.0004: real time    0.0004
    --------------------------------------------
      LOOP:  cpu time    0.7340: real time    0.8044

 eigenvalue-minimisations  :   416
 total energy-change (2. order) :-0.2392494E+02  (-0.2380491E+02)
 number of electron       8.0000000 magnetization       0.0000000
 augmentation part        8.0000000 magnetization       0.0000000

 Free energy of the ion-electron system (eV)
  ---------------------------------------------------
  alpha Z        PSCENC =         3.22818448
  Ewald energy   TEWEN  =      -225.42502162
  -Hartree energ DENC   =       -11.63745192
  -exchange      EXHF   =         0.00000000
  -V(xc)+E(xc)   XCENC  =       -18.76180458
  PAW double counting   =       176.24759923     -141.06103558
  entropy T*S    EENTRO =         0.00000000
  eigenvalues    EBANDS =         1.15026686
  atomic energy  EATOM  =       206.13324734
  Solvation  Ediel_sol  =         0.00000000
  ---------------------------------------------------
  free energy    TOTEN  =       -10.12601580 eV

  energy without entropy =      -10.12601580  energy(sigma->0) =      -10.12601580


--------------------------------------------------------------------------------------------------------




--------------------------------------- Iteration      1(   3)  ---------------------------------------


     EDDAV:  cpu time    0.6171: real time    0.6380
 BZINTS: Fermi energy:    4.906352;    8.000000 electrons
         Band energy: 0.824806E+00;  BLOECHL correction:   -0.000000
       DOS:  cpu time    0.0004: real time    0.0004
    --------------------------------------------
      LOOP:  cpu time    0.6175: real time    0.6384

 eigenvalue-minimisations  :   328
 total energy-change (2. order) :-0.3254604E+00  (-0.3254604E+00)
 number of electron       8.0000000 magnetization       0.0000000
 augmentation part        8.0000000 magnetization       0.0000000

 Free energy of the ion-electron system (eV)
  ---------------------------------------------------
  alpha Z        PSCENC =         3.22818448
  Ewald energy   TEWEN  =      -225.42502162
  -Hartree energ DENC   =       -11.63745192
  -exchange      EXHF   =         0.00000000
  -V(xc)+E(xc)   XCENC  =       -18.76180458
  PAW double counting   =       176.24759923     -141.06103558
  entropy T*S    EENTRO =         0.00000000
  eigenvalues    EBANDS =         0.82480644
  atomic energy  EATOM  =       206.13324734
  Solvation  Ediel_sol  =         0.00000000
  ---------------------------------------------------
  free energy    TOTEN  =       -10.45147621 eV

  energy without entropy =      -10.45147621  energy(sigma->0) =      -10.45147621


--------------------------------------------------------------------------------------------------------




--------------------------------------- Iteration      1(   4)  ---------------------------------------


     EDDAV:  cpu time    0.7410: real time    0.7794
 BZINTS: Fermi energy:    4.906123;    8.000000 electrons
         Band energy: 0.823009E+00;  BLOECHL correction:    0.000000
       DOS:  cpu time    0.0004: real time    0.0004
    --------------------------------------------
      LOOP:  cpu time    0.7414: real time    0.7798

 eigenvalue-minimisations  :   432
 total energy-change (2. order) :-0.1797075E-02  (-0.1797080E-02)
 number of electron       8.0000000 magnetization       0.0000000
 augmentation part        8.0000000 magnetization       0.0000000

 Free energy of the ion-electron system (eV)
  ---------------------------------------------------
  alpha Z        PSCENC =         3.22818448
  Ewald energy   TEWEN  =      -225.42502162
  -Hartree energ DENC   =       -11.63745192
  -exchange      EXHF   =         0.00000000
  -V(xc)+E(xc)   XCENC  =       -18.76180458
  PAW double counting   =       176.24759923     -141.06103558
  entropy T*S    EENTRO =         0.00000000
  eigenvalues    EBANDS =         0.82300937
  atomic energy  EATOM  =       206.13324734
  Solvation  Ediel_sol  =         0.00000000
  ---------------------------------------------------
  free energy    TOTEN  =       -10.45327329 eV

  energy without entropy =      -10.45327329  energy(sigma->0) =      -10.45327329


--------------------------------------------------------------------------------------------------------




--------------------------------------- Iteration      1(   5)  ---------------------------------------


     EDDAV:  cpu time    0.6597: real time    0.6813
 BZINTS: Fermi energy:    4.905774;    8.000000 electrons
         Band energy: 0.823007E+00;  BLOECHL correction:   -0.000000
       DOS:  cpu time    0.0004: real time    0.0004
    CHARGE:  cpu time    0.0665: real time    0.0737
    MIXING:  cpu time    0.0098: real time    0.0111
    --------------------------------------------
      LOOP:  cpu time    0.7364: real time    0.7666

 eigenvalue-minimisations  :   360
 total energy-change (2. order) :-0.1929357E-05  (-0.1918934E-05)
 number of electron       8.0000000 magnetization      -0.0000000
 augmentation part       -0.4583334 magnetization      -0.0000000

 Broyden mixing:
  rms(total) = 0.48613E+00    rms(broyden)= 0.48613E+00
  rms(prec ) = 0.10095E+01
  weight for this iteration     100.00

 Free energy of the ion-electron system (eV)
  ---------------------------------------------------
  alpha Z        PSCENC =         3.22818448
  Ewald energy   TEWEN  =      -225.42502162
  -Hartree energ DENC   =       -11.63745192
  -exchange      EXHF   =         0.00000000
  -V(xc)+E(xc)   XCENC  =       -18.76180458
  PAW double counting   =       176.24759923     -141.06103558
  entropy T*S    EENTRO =         0.00000000
  eigenvalues    EBANDS =         0.82300744
  atomic energy  EATOM  =       206.13324734
  Solvation  Ediel_sol  =         0.00000000
  ---------------------------------------------------
  free energy    TOTEN  =       -10.45327522 eV

  energy without entropy =      -10.45327522  energy(sigma->0) =      -10.45327522


--------------------------------------------------------------------------------------------------------




--------------------------------------- Iteration      1(   6)  ---------------------------------------


    POTLOK:  cpu time    0.3091: real time    0.3184
    SETDIJ:  cpu time    0.3538: real time    0.3676
     EDDAV:  cpu time    0.8848: real time    0.9534
 BZINTS: Fermi energy:    5.146415;    8.000000 electrons
         Band energy: 0.251297E+01;  BLOECHL correction:    0.000000
       DOS:  cpu time    0.0008: real time    0.0008
    CHARGE:  cpu time    0.1605: real time    0.2102
    MIXING:  cpu time    0.0258: real time    0.0340
    --------------------------------------------
      LOOP:  cpu time    1.7350: real time    1.8846

 eigenvalue-minimisations  :   320
 total energy-change (2. order) : 0.1472542E+00  (-0.9180188E-02)
 number of electron       8.0000000 magnetization      -0.0000000
 augmentation part       -0.4516701 magnetization      -0.0000004

 Broyden mixing:
  rms(total) = 0.29849E+00    rms(broyden)= 0.29849E+00
  rms(prec ) = 0.60530E+00
  weight for this iteration     100.00

 eigenvalues of (default mixing * dielectric matrix)
  average eigenvalue GAMMA=   2.5779
  2.5779

 Free energy of the ion-electron system (eV)
  ---------------------------------------------------
  alpha Z        PSCENC =         3.22818448
  Ewald energy   TEWEN  =      -225.42502162
  -Hartree energ DENC   =       -13.32902368
  -exchange      EXHF   =         0.00000000
  -V(xc)+E(xc)   XCENC  =       -18.50755385
  PAW double counting   =       366.83820764     -331.75703332
  entropy T*S    EENTRO =         0.00000000
  eigenvalues    EBANDS =         2.51297196
  atomic energy  EATOM  =       206.13324734
  Solvation  Ediel_sol  =         0.00000000
  ---------------------------------------------------
  free energy    TOTEN  =       -10.30602105 eV

  energy without entropy =      -10.30602105  energy(sigma->0) =      -10.30602105


--------------------------------------------------------------------------------------------------------




--------------------------------------- Iteration      1(   7)  ---------------------------------------


    POTLOK:  cpu time    0.6750: real time    0.9980
    SETDIJ:  cpu time    0.5321: real time    0.6916
     EDDAV:  cpu time    1.2328: real time    1.4402
 BZINTS: Fermi energy:    5.561720;    8.000000 electrons
         Band energy: 0.515111E+01;  BLOECHL correction:   -0.000000
       DOS:  cpu time    0.0013: real time    0.0127
    CHARGE:  cpu time    0.1696: real time    0.3233
    MIXING:  cpu time    0.0243: real time    0.0317
    --------------------------------------------
      LOOP:  cpu time    2.6352: real time    3.4976

 eigenvalue-minimisations  :   320
 total energy-change (2. order) : 0.6670764E-01  (-0.1844329E-01)
 number of electron       8.0000000 magnetization       0.0000000
 augmentation part       -0.4433403 magnetization       0.0000035

 Broyden mixing:
  rms(total) = 0.19643E-01    rms(broyden)= 0.19643E-01
  rms(prec ) = 0.46047E-01
  weight for this iteration     100.00

 eigenvalues of (default mixing * dielectric matrix)
  average eigenvalue GAMMA=   2.0975
  1.8531  2.3420

 Free energy of the ion-electron system (eV)
  ---------------------------------------------------
  alpha Z        PSCENC =         3.22818448
  Ewald energy   TEWEN  =      -225.42502162
  -Hartree energ DENC   =       -16.20609595
  -exchange      EXHF   =         0.00000000
  -V(xc)+E(xc)   XCENC  =       -18.06568493
  PAW double counting   =       826.09881818     -791.15387077
  entropy T*S    EENTRO =         0.00000000
  eigenvalues    EBANDS =         5.15110986
  atomic energy  EATOM  =       206.13324734
  Solvation  Ediel_sol  =         0.00000000
  ---------------------------------------------------
  free energy    TOTEN  =       -10.23931341 eV

  energy without entropy =      -10.23931341  energy(sigma->0) =      -10.23931341


--------------------------------------------------------------------------------------------------------




--------------------------------------- Iteration      1(   8)  ---------------------------------------


    POTLOK:  cpu time    0.4707: real time    0.5055
    SETDIJ:  cpu time    0.2989: real time    0.3041
     EDDAV:  cpu time    0.4537: real time    0.4946
 BZINTS: Fermi energy:    5.541130;    8.000000 electrons
         Band energy: 0.506316E+01;  BLOECHL correction:    0.000000
       DOS:  cpu time    0.0004: real time    0.0004
    CHARGE:  cpu time    0.0518: real time    0.0525
    MIXING:  cpu time    0.0109: real time    0.0129
    --------------------------------------------
      LOOP:  cpu time    1.2861: real time    1.3696

 eigenvalue-minimisations  :   280
 total energy-change (2. order) :-0.2446227E-02  (-0.5559713E-03)
 number of electron       8.0000000 magnetization      -0.0000000
 augmentation part       -0.4443981 magnetization       0.0000017

 Broyden mixing:
  rms(total) = 0.75200E-02    rms(broyden)= 0.75200E-02
  rms(prec ) = 0.15059E-01
  weight for this iteration     100.00

 eigenvalues of (default mixing * dielectric matrix)
  average eigenvalue GAMMA=   2.1821
  2.8270  1.8597  1.8597

 Free energy of the ion-electron system (eV)
  ---------------------------------------------------
  alpha Z        PSCENC =         3.22818448
  Ewald energy   TEWEN  =      -225.42502162
  -Hartree energ DENC   =       -16.15179807
  -exchange      EXHF   =         0.00000000
  -V(xc)+E(xc)   XCENC  =       -18.06458118
  PAW double counting   =       831.63315237     -796.65809987
  entropy T*S    EENTRO =         0.00000000
  eigenvalues    EBANDS =         5.06315692
  atomic energy  EATOM  =       206.13324734
  Solvation  Ediel_sol  =         0.00000000
  ---------------------------------------------------
  free energy    TOTEN  =       -10.24175964 eV

  energy without entropy =      -10.24175964  energy(sigma->0) =      -10.24175964


--------------------------------------------------------------------------------------------------------




--------------------------------------- Iteration      1(   9)  ---------------------------------------


    POTLOK:  cpu time    0.2811: real time    0.3141
    SETDIJ:  cpu time    0.3097: real time    0.3411
     EDDAV:  cpu time    0.5958: real time    0.6106
 BZINTS: Fermi energy:    5.546780;    8.000000 electrons
         Band energy: 0.510792E+01;  BLOECHL correction:   -0.000000
       DOS:  cpu time    0.0003: real time    0.0003
    CHARGE:  cpu time    0.0496: real time    0.0499
    MIXING:  cpu time    0.0083: real time    0.0084
    --------------------------------------------
      LOOP:  cpu time    1.2448: real time    1.3243

 eigenvalue-minimisations  :   400
 total energy-change (2. order) :-0.4225341E-03  (-0.4157282E-04)
 number of electron       8.0000000 magnetization       0.0000000
 augmentation part       -0.4445407 magnetization      -0.0000050

 Broyden mixing:
  rms(total) = 0.58977E-02    rms(broyden)= 0.58977E-02
  rms(prec ) = 0.71462E-02
  weight for this iteration     100.00

 eigenvalues of (default mixing * dielectric matrix)
  average eigenvalue GAMMA=   2.0275
  3.0006  2.1741  2.1741  0.7612

 Free energy of the ion-electron system (eV)
  ---------------------------------------------------
  alpha Z        PSCENC =         3.22818448
  Ewald energy   TEWEN  =      -225.42502162
  -Hartree energ DENC   =       -16.21038590
  -exchange      EXHF   =         0.00000000
  -V(xc)+E(xc)   XCENC  =       -18.05453253
  PAW double counting   =       833.90428811     -798.92588481
  entropy T*S    EENTRO =         0.00000000
  eigenvalues    EBANDS =         5.10792275
  atomic energy  EATOM  =       206.13324734
  Solvation  Ediel_sol  =         0.00000000
  ---------------------------------------------------
  free energy    TOTEN  =       -10.24218217 eV

  energy without entropy =      -10.24218217  energy(sigma->0) =      -10.24218217


--------------------------------------------------------------------------------------------------------




--------------------------------------- Iteration      1(  10)  ---------------------------------------


    POTLOK:  cpu time    0.2562: real time    0.2601
    SETDIJ:  cpu time    0.3050: real time    0.3106
     EDDAV:  cpu time    0.7619: real time    0.7805
 BZINTS: Fermi energy:    5.548747;    8.000000 electrons
         Band energy: 0.511824E+01;  BLOECHL correction:   -0.000000
       DOS:  cpu time    0.0007: real time    0.0008
    CHARGE:  cpu time    0.0795: real time    0.0821
    MIXING:  cpu time    0.0128: real time    0.0130
    --------------------------------------------
      LOOP:  cpu time    1.4161: real time    1.4472

 eigenvalue-minimisations  :   288
 total energy-change (2. order) :-0.4766118E-04  (-0.5197353E-05)
 number of electron       8.0000000 magnetization      -0.0000000
 augmentation part       -0.4445205 magnetization       0.0000008

 Broyden mixing:
  rms(total) = 0.74730E-03    rms(broyden)= 0.74730E-03
  rms(prec ) = 0.12002E-02
  weight for this iteration     100.00

 eigenvalues of (default mixing * dielectric matrix)
  average eigenvalue GAMMA=   1.8177
  3.0023  2.2329  2.2329  0.8102  0.8102

 Free energy of the ion-electron system (eV)
  ---------------------------------------------------
  alpha Z        PSCENC =         3.22818448
  Ewald energy   TEWEN  =      -225.42502162
  -Hartree energ DENC   =       -16.22103171
  -exchange      EXHF   =         0.00000000
  -V(xc)+E(xc)   XCENC  =       -18.05403139
  PAW double counting   =       824.48744375     -789.50925988
  entropy T*S    EENTRO =         0.00000000
  eigenvalues    EBANDS =         5.11823921
  atomic energy  EATOM  =       206.13324734
  Solvation  Ediel_sol  =         0.00000000
  ---------------------------------------------------
  free energy    TOTEN  =       -10.24222984 eV

  energy without entropy =      -10.24222984  energy(sigma->0) =      -10.24222984


--------------------------------------------------------------------------------------------------------




--------------------------------------- Iteration      1(  11)  ---------------------------------------


    POTLOK:  cpu time    0.4423: real time    0.4637
    SETDIJ:  cpu time    0.3760: real time    0.3954
     EDDAV:  cpu time    0.6667: real time    0.6866
 BZINTS: Fermi energy:    5.548432;    8.000000 electrons
         Band energy: 0.511724E+01;  BLOECHL correction:   -0.000000
       DOS:  cpu time    0.0004: real time    0.0003
    CHARGE:  cpu time    0.0554: real time    0.0574
    MIXING:  cpu time    0.0091: real time    0.0091
    --------------------------------------------
      LOOP:  cpu time    1.5498: real time    1.6126

 eigenvalue-minimisations  :   384
 total energy-change (2. order) :-0.1600414E-05  (-0.2281914E-06)
 number of electron       8.0000000 magnetization      -0.0000000
 augmentation part       -0.4445298 magnetization      -0.0000005

 Broyden mixing:
  rms(total) = 0.40198E-03    rms(broyden)= 0.40198E-03
  rms(prec ) = 0.59574E-03
  weight for this iteration     100.00

 eigenvalues of (default mixing * dielectric matrix)
  average eigenvalue GAMMA=   1.7433
  3.0023  2.4656  2.0279  1.0211  1.3177  0.6254

 Free energy of the ion-electron system (eV)
  ---------------------------------------------------
  alpha Z        PSCENC =         3.22818448
  Ewald energy   TEWEN  =      -225.42502162
  -Hartree energ DENC   =       -16.22017861
  -exchange      EXHF   =         0.00000000
  -V(xc)+E(xc)   XCENC  =       -18.05424643
  PAW double counting   =       823.92106381     -788.94252096
  entropy T*S    EENTRO =         0.00000000
  eigenvalues    EBANDS =         5.11724056
  atomic energy  EATOM  =       206.13324734
  Solvation  Ediel_sol  =         0.00000000
  ---------------------------------------------------
  free energy    TOTEN  =       -10.24223144 eV

  energy without entropy =      -10.24223144  energy(sigma->0) =      -10.24223144


--------------------------------------------------------------------------------------------------------




--------------------------------------- Iteration      1(  12)  ---------------------------------------


    POTLOK:  cpu time    0.3005: real time    0.3102
    SETDIJ:  cpu time    0.3090: real time    0.3160
     EDDAV:  cpu time    0.5143: real time    0.5285
 BZINTS: Fermi energy:    5.548611;    8.000000 electrons
         Band energy: 0.511782E+01;  BLOECHL correction:    0.000000
       DOS:  cpu time    0.0005: real time    0.0005
    CHARGE:  cpu time    0.0658: real time    0.0697
    MIXING:  cpu time    0.0105: real time    0.0106
    --------------------------------------------
      LOOP:  cpu time    1.2007: real time    1.2356

 eigenvalue-minimisations  :   328
 total energy-change (2. order) :-0.3762363E-06  (-0.2133874E-07)
 number of electron       8.0000000 magnetization       0.0000000
 augmentation part       -0.4445264 magnetization      -0.0000000

 Broyden mixing:
  rms(total) = 0.18703E-03    rms(broyden)= 0.18703E-03
  rms(prec ) = 0.31849E-03
  weight for this iteration     100.00

 eigenvalues of (default mixing * dielectric matrix)
  average eigenvalue GAMMA=   1.7926
  3.0555  2.5052  2.2044  2.2044  0.9786  0.9786  0.6211

 Free energy of the ion-electron system (eV)
  ---------------------------------------------------
  alpha Z        PSCENC =         3.22818448
  Ewald energy   TEWEN  =      -225.42502162
  -Hartree energ DENC   =       -16.22074611
  -exchange      EXHF   =         0.00000000
  -V(xc)+E(xc)   XCENC  =       -18.05426272
  PAW double counting   =       823.86490766     -788.88636525
  entropy T*S    EENTRO =         0.00000000
  eigenvalues    EBANDS =         5.11782442
  atomic energy  EATOM  =       206.13324734
  Solvation  Ediel_sol  =         0.00000000
  ---------------------------------------------------
  free energy    TOTEN  =       -10.24223181 eV

  energy without entropy =      -10.24223181  energy(sigma->0) =      -10.24223181


--------------------------------------------------------------------------------------------------------




--------------------------------------- Iteration      1(  13)  ---------------------------------------


    POTLOK:  cpu time    0.3177: real time    0.3310
    SETDIJ:  cpu time    0.3353: real time    0.3502
     EDDAV:  cpu time    0.7156: real time    0.7375
 BZINTS: Fermi energy:    5.548876;    8.000000 electrons
         Band energy: 0.511895E+01;  BLOECHL correction:    0.000000
       DOS:  cpu time    0.0005: real time    0.0005
    CHARGE:  cpu time    0.0689: real time    0.0726
    MIXING:  cpu time    0.0115: real time    0.0115
    --------------------------------------------
      LOOP:  cpu time    1.4494: real time    1.5033

 eigenvalue-minimisations  :   368
 total energy-change (2. order) :-0.2866693E-06  (-0.2984326E-07)
 number of electron       8.0000000 magnetization      -0.0000000
 augmentation part       -0.4445195 magnetization       0.0000002

 Broyden mixing:
  rms(total) = 0.54516E-04    rms(broyden)= 0.54516E-04
  rms(prec ) = 0.65522E-04
  weight for this iteration     100.00

 eigenvalues of (default mixing * dielectric matrix)
  average eigenvalue GAMMA=   1.7399
  3.2365  2.6185  2.3364  2.3364  1.0307  1.0307  0.7067  0.6232

 Free energy of the ion-electron system (eV)
  ---------------------------------------------------
  alpha Z        PSCENC =         3.22818448
  Ewald energy   TEWEN  =      -225.42502162
  -Hartree energ DENC   =       -16.22182205
  -exchange      EXHF   =         0.00000000
  -V(xc)+E(xc)   XCENC  =       -18.05425446
  PAW double counting   =       823.78312043     -788.80463379
  entropy T*S    EENTRO =         0.00000000
  eigenvalues    EBANDS =         5.11894758
  atomic energy  EATOM  =       206.13324734
  Solvation  Ediel_sol  =         0.00000000
  ---------------------------------------------------
  free energy    TOTEN  =       -10.24223210 eV

  energy without entropy =      -10.24223210  energy(sigma->0) =      -10.24223210


--------------------------------------------------------------------------------------------------------




--------------------------------------- Iteration      1(  14)  ---------------------------------------


    POTLOK:  cpu time    0.3386: real time    0.3552
    SETDIJ:  cpu time    0.3623: real time    0.3752
     EDDAV:  cpu time    0.4108: real time    0.4266
 BZINTS: Fermi energy:    5.548882;    8.000000 electrons
         Band energy: 0.511891E+01;  BLOECHL correction:    0.000000
       DOS:  cpu time    0.0004: real time    0.0004
    --------------------------------------------
      LOOP:  cpu time    1.1121: real time    1.1574

 eigenvalue-minimisations  :   184
 total energy-change (2. order) : 0.1406477E-07  (-0.7946755E-09)
 number of electron       8.0000000 magnetization      -0.0000000
 augmentation part       -0.4445195 magnetization       0.0000002

 Free energy of the ion-electron system (eV)
  ---------------------------------------------------
  alpha Z        PSCENC =         3.22818448
  Ewald energy   TEWEN  =      -225.42502162
  -Hartree energ DENC   =       -16.22179237
  -exchange      EXHF   =         0.00000000
  -V(xc)+E(xc)   XCENC  =       -18.05425897
  PAW double counting   =       823.82236010     -788.84385906
  entropy T*S    EENTRO =         0.00000000
  eigenvalues    EBANDS =         5.11890802
  atomic energy  EATOM  =       206.13324734
  Solvation  Ediel_sol  =         0.00000000
  ---------------------------------------------------
  free energy    TOTEN  =       -10.24223208 eV

  energy without entropy =      -10.24223208  energy(sigma->0) =      -10.24223208


--------------------------------------------------------------------------------------------------------




 average (electrostatic) potential at core
  the test charge radii are     0.9892
  (the norm of the test charge is              1.0000)
       1 -83.5380       2 -83.5380
 
 
 
 E-fermi :   5.5489     XC(G=0):  -9.1813     alpha+bet :-11.5002

 Fermi energy:         5.5488819771

 spin component 1

 k-point     1 :       0.0000    0.0000    0.0000
  band No.  band energies     occupation 
      1      -6.1750      1.00000
      2       5.5060      1.00000
      3       5.5227      1.00000
      4       5.5487      1.00000
      5       7.8860      0.00000
      6       7.9512      0.00000
      7       8.1785      0.00000
      8       8.5242      0.00000

 k-point     2 :       0.3333   -0.0000    0.0000
  band No.  band energies     occupation 
      1      -4.8186      1.00000
      2       0.3178      1.00000
      3       4.5068      1.00000
      4       4.5090      1.00000
      5       7.0467      0.00000
      6       8.8781      0.00000
      7       9.0456      0.00000
      8      13.1527      0.00000

 k-point     3 :      -0.0000    0.3333   -0.0000
  band No.  band energies     occupation 
      1      -4.8761      1.00000
      2       0.2733      1.00000
      3       4.5885      1.00000
      4       4.5936      1.00000
      5       7.2156      0.00000
      6       8.9152      0.00000
      7       9.0863      0.00000
      8      13.1596      0.00000

 k-point     4 :       0.3333    0.3333   -0.0000
  band No.  band energies     occupation 
      1      -4.3340      1.00000
      2       0.5474      1.00000
      3       3.1821      1.00000
      4       3.1828      1.00000
      5       6.2766      0.00000
      6       7.5318      0.00000
      7      12.5806      0.00000
      8      12.5849      0.00000

 k-point     5 :      -0.3333    0.3333    0.0000
  band No.  band energies     occupation 
      1      -3.0348      1.00000
      2      -1.1459      1.00000
      3       1.2756      1.00000
      4       3.4769      1.00000
      5       7.0922      0.00000
      6      11.2603      0.00000
      7      11.7965      0.00000
      8      12.3422      0.00000

 k-point     6 :      -0.0000    0.3333    0.3333
  band No.  band energies     occupation 
      1      -4.3358      1.00000
      2       0.5440      1.00000
      3       3.0892      1.00000
      4       3.2796      1.00000
      5       6.2726      0.00000
      6       7.5396      0.00000
      7      12.5828      0.00000
      8      12.6056      0.00000

 k-point     7 :      -0.3333    0.3333    0.3333
  band No.  band energies     occupation 
      1      -2.9400      1.00000
      2      -1.2127      1.00000
      3       1.2778      1.00000
      4       3.4038      1.00000
      5       7.0073      0.00000
      6      11.4431      0.00000
      7      11.7712      0.00000
      8      12.4155      0.00000

 k-point     8 :       0.0000   -0.3333    0.3333
  band No.  band energies     occupation 
      1      -3.1252      1.00000
      2      -1.0876      1.00000
      3       1.2725      1.00000
      4       3.5531      1.00000
      5       7.1831      0.00000
      6      11.0567      0.00000
      7      11.8891      0.00000
      8      12.3784      0.00000
 Fermi energy:         5.5488819771

 spin component 2

 k-point     1 :       0.0000    0.0000    0.0000
  band No.  band energies     occupation 
      1      -6.1750      1.00000
      2       5.5060      1.00000
      3       5.5227      1.00000
      4       5.5487      1.00000
      5       7.8860      0.00000
      6       7.9512      0.00000
      7       8.1785      0.00000
      8       8.5242      0.00000

 k-point     2 :       0.3333   -0.0000    0.0000
  band No.  band energies     occupation 
      1      -4.8186      1.00000
      2       0.3178      1.00000
      3       4.5068      1.00000
      4       4.5090      1.00000
      5       7.0467      0.00000
      6       8.8781      0.00000
      7       9.0456      0.00000
      8      13.1527      0.00000

 k-point     3 :      -0.0000    0.3333   -0.0000
  band No.  band energies     occupation 
      1      -4.8761      1.00000
      2       0.2733      1.00000
      3       4.5885      1.00000
      4       4.5936      1.00000
      5       7.2156      0.00000
      6       8.9152      0.00000
      7       9.0863      0.00000
      8      13.1596      0.00000

 k-point     4 :       0.3333    0.3333   -0.0000
  band No.  band energies     occupation 
      1      -4.3340      1.00000
      2       0.5474      1.00000
      3       3.1821      1.00000
      4       3.1828      1.00000
      5       6.2766      0.00000
      6       7.5318      0.00000
      7      12.5806      0.00000
      8      12.5849      0.00000

 k-point     5 :      -0.3333    0.3333    0.0000
  band No.  band energies     occupation 
      1      -3.0348      1.00000
      2      -1.1459      1.00000
      3       1.2756      1.00000
      4       3.4769      1.00000
      5       7.0922      0.00000
      6      11.2603      0.00000
      7      11.7965      0.00000
      8      12.3422      0.00000

 k-point     6 :      -0.0000    0.3333    0.3333
  band No.  band energies     occupation 
      1      -4.3358      1.00000
      2       0.5440      1.00000
      3       3.0892      1.00000
      4       3.2796      1.00000
      5       6.2726      0.00000
      6       7.5396      0.00000
      7      12.5828      0.00000
      8      12.6056      0.00000

 k-point     7 :      -0.3333    0.3333    0.3333
  band No.  band energies     occupation 
      1      -2.9400      1.00000
      2      -1.2127      1.00000
      3       1.2778      1.00000
      4       3.4038      1.00000
      5       7.0073      0.00000
      6      11.4431      0.00000
      7      11.7711      0.00000
      8      12.4155      0.00000

 k-point     8 :       0.0000   -0.3333    0.3333
  band No.  band energies     occupation 
      1      -3.1252      1.00000
      2      -1.0876      1.00000
      3       1.2725      1.00000
      4       3.5531      1.00000
      5       7.1831      0.00000
      6      11.0567      0.00000
      7      11.8891      0.00000
      8      12.3784      0.00000


--------------------------------------------------------------------------------------------------------


 soft charge-density along one line, spin component           1
         0         1         2         3         4         5         6         7         8         9
 total charge-density along one line
 
 soft charge-density along one line, spin component           2
         0         1         2         3         4         5         6         7         8         9
 total charge-density along one line
 
 pseudopotential strength for first ion, spin component:           1
 18.445  25.734   0.000   0.000   0.001   0.000   0.000   0.001
 25.734  35.908   0.000   0.000   0.001   0.000   0.000   0.002
  0.000   0.000   4.182   0.000   0.000   7.793   0.000   0.000
  0.000   0.000   0.000   4.182   0.000   0.000   7.793   0.000
  0.001   0.001   0.000   0.000   4.182   0.000   0.000   7.793
  0.000   0.000   7.793   0.000   0.000  14.533   0.000   0.000
  0.000   0.000   0.000   7.793   0.000   0.000  14.533   0.000
  0.001   0.002   0.000   0.000   7.793   0.000   0.000  14.533
 pseudopotential strength for first ion, spin component:           2
 18.445  25.734  -0.000  -0.000   0.001  -0.000  -0.000   0.001
 25.734  35.908  -0.000  -0.000   0.001  -0.000  -0.000   0.002
 -0.000  -0.000   4.182   0.000   0.000   7.793   0.000   0.000
 -0.000  -0.000   0.000   4.182   0.000   0.000   7.793   0.000
  0.001   0.001   0.000   0.000   4.182   0.000   0.000   7.793
 -0.000  -0.000   7.793   0.000   0.000  14.533   0.000   0.000
 -0.000  -0.000   0.000   7.793   0.000   0.000  14.533   0.000
  0.001   0.002   0.000   0.000   7.793   0.000   0.000  14.533
 total augmentation occupancy for first ion, spin component:           1
  5.462  -2.018   0.000   0.000  -0.081   0.000  -0.000   0.029
 -2.018   0.817   0.000   0.000   0.041   0.000  -0.000  -0.013
  0.000   0.000   2.901   0.044  -0.000  -0.634  -0.010   0.000
  0.000   0.000   0.044   2.902  -0.000  -0.010  -0.634   0.000
 -0.081   0.041  -0.000  -0.000   2.902   0.000   0.000  -0.634
  0.000   0.000  -0.634  -0.010   0.000   0.149   0.003  -0.000
 -0.000  -0.000  -0.010  -0.634   0.000   0.003   0.149   0.000
  0.029  -0.013   0.000   0.000  -0.634  -0.000   0.000   0.149
 total augmentation occupancy for first ion, spin component:           2
  0.000  -0.000   0.000   0.000  -0.000   0.000   0.000   0.000
 -0.000   0.000  -0.000   0.000   0.000   0.000   0.000  -0.000
  0.000  -0.000   0.000   0.000   0.000  -0.000  -0.000   0.000
  0.000   0.000   0.000   0.000  -0.000  -0.000  -0.000   0.000
 -0.000   0.000   0.000   0.000   0.000  -0.000   0.000  -0.000
 -0.000   0.000  -0.000  -0.000  -0.000   0.000   0.000   0.000
  0.000   0.000  -0.000  -0.000   0.000   0.000   0.000   0.000
  0.000  -0.000   0.000   0.000  -0.000   0.000   0.000  -0.000


------------------------ aborting loop because EDIFF is reached ----------------------------------------





 total charge

# of ion       s       p       d       tot
------------------------------------------
    1        0.718   0.957   0.000   1.675
    2        0.718   0.957   0.000   1.675
--------------------------------------------------
tot          1.436   1.914   0.000   3.350



 magnetization (x)

# of ion       s       p       d       tot
------------------------------------------
    1        0.000   0.000   0.000   0.000
    2        0.000   0.000   0.000   0.000
--------------------------------------------------
tot          0.000   0.000   0.000   0.000
 
    CHARGE:  cpu time    0.0605: real time    0.0615
    FORLOC:  cpu time    0.0067: real time    0.0071
    FORNL :  cpu time    0.0660: real time    0.0703
    STRESS:  cpu time    0.2269: real time    0.2411
    FORCOR:  cpu time    0.3278: real time    0.3906
    FORHAR:  cpu time    0.0292: real time    0.0301
    MIXING:  cpu time    0.0085: real time    0.0085
    OFIELD:  cpu time    0.0001: real time    0.0004

  FORCE on cell =-STRESS in cart. coord.  units (eV):
  Direction    XX          YY          ZZ          XY          YZ          ZX
  --------------------------------------------------------------------------------------
  Alpha Z     3.22818     3.22818     3.22818
  Ewald     -75.13779   -75.17750   -75.10986     0.00000     1.69111     0.00000
  Hartree     5.40180     5.40147     5.41850     0.00000     0.42566     0.00000
  E(xc)     -25.26420   -25.26367   -25.26439     0.00000    -0.01802     0.00000
  Local     -30.21508   -30.17873   -30.26489     0.00000    -2.15413     0.00000
  n-local    76.31933    78.29273    74.33884     2.31688     0.37207     0.02827
  augment   -11.30458   -11.30435   -11.30594    -0.00000    -0.03991    -0.00000
  Kinetic    56.98447    58.73770    55.25552     3.62063     0.29095     0.05702
  Fock        0.00000     0.00000     0.00000     0.00000     0.00000     0.00000
  -------------------------------------------------------------------------------------
  Total       0.01214     0.00604     0.02577     0.00000     0.49307     0.00000
  in kB       0.46617     0.23199     0.98971     0.00000    18.93907     0.00000
  external pressure =        0.56 kB  Pullay stress =        0.00 kB


 VOLUME and BASIS-vectors are now :
 -----------------------------------------------------------------------------
  energy-cutoff  :      700.00
  volume of cell :       41.71
      direct lattice vectors                 reciprocal lattice vectors
     0.000000000  2.697721000  2.752226000    -0.181634764  0.181634764  0.185304580
     2.752777000 -0.055056000  2.752226000     0.181634764 -0.181634764  0.178037674
     2.752777000  2.752777000  0.000000000     0.181634764  0.181634764 -0.178037674

  length of vectors
     3.853887200  3.893014299  3.893014568     0.316733582  0.312537659  0.312537659


 FORCES acting on ions
    electron-ion (+dipol)            ewald-force                    non-local-force                 convergence-correction
 -----------------------------------------------------------------------------------------------
   -.201E+01 -.467E-08 -.556E-08   0.153E+01 0.996E-14 0.109E-13   0.639E+00 -.752E-16 -.232E-16   0.585E-04 -.416E-10 -.424E-10
   0.201E+01 0.467E-08 0.556E-08   -.153E+01 -.993E-14 -.113E-13   -.639E+00 0.444E-16 -.793E-17   -.585E-04 0.416E-10 0.424E-10
 -----------------------------------------------------------------------------------------------
   0.387E-12 0.823E-13 0.235E-12   -.444E-15 0.220E-16 -.390E-15   0.000E+00 -.308E-16 -.311E-16   -.196E-14 -.192E-14 -.692E-15
 
 
 POSITION                                       TOTAL-FORCE (eV/Angst)
 -----------------------------------------------------------------------------------
      4.12917      4.04658      4.12834         0.159360      0.000000     -0.000000
      2.75278      2.69772      2.75223        -0.159360     -0.000000      0.000000
 -----------------------------------------------------------------------------------
    total drift:                                0.000000      0.000000      0.000000


--------------------------------------------------------------------------------------------------------



  FREE ENERGIE OF THE ION-ELECTRON SYSTEM (eV)
  ---------------------------------------------------
  free  energy   TOTEN  =       -10.24223208 eV

  energy  without entropy=      -10.24223208  energy(sigma->0) =      -10.24223208
 


--------------------------------------------------------------------------------------------------------


    POTLOK:  cpu time    0.6482: real time    0.6720


--------------------------------------------------------------------------------------------------------




--------------------------------------------------------------------------------------------------------


     LOOP+:  cpu time   20.2784: real time   22.1065
    4ORBIT:  cpu time    0.0000: real time    0.0002



 total charge

# of ion       s       p       d       tot
------------------------------------------
    1        0.718   0.957   0.000   1.675
    2        0.718   0.957   0.000   1.675
--------------------------------------------------
tot          1.436   1.914   0.000   3.350



 magnetization (x)

# of ion       s       p       d       tot
------------------------------------------
    1        0.000   0.000   0.000   0.000
    2        0.000   0.000   0.000   0.000
--------------------------------------------------
tot          0.000   0.000   0.000   0.000
 
 BZINTS: Fermi energy:    5.548882;    8.000000 electrons
         Band energy: 0.511891E+01;  BLOECHL correction:    0.000000

 total amount of memory used by VASP MPI-rank0    78974. kBytes
=======================================================================

   base      :      30000. kBytes
   nonl-proj :        974. kBytes
   fftplans  :      13060. kBytes
   grid      :      31228. kBytes
   one-center:         12. kBytes
   wavefun   :       3700. kBytes
 
  
  
 General timing and accounting informations for this job:
 ========================================================
  
                  Total CPU time used (sec):       23.811
                            User time (sec):       21.647
                          System time (sec):        2.164
                         Elapsed time (sec):       25.859
  
                   Maximum memory used (kb):   120528896.
                   Average memory used (kb):          N/A
  
                          Minor page faults:       183098
                          Major page faults:         3255
                 Voluntary context switches:           31
