<?xml version="1.0" encoding="ISO-8859-1"?>
<modeling>
 <generator>
  <i name="program" type="string">vasp </i>
  <i name="version" type="string">6.2.1  </i>
  <i name="subversion" type="string">16May21 (build Oct 27 2021 18:14:32) complex                          parallel </i>
  <i name="platform" type="string">LinuxIFC </i>
  <i name="date" type="string">2021 11 08 </i>
  <i name="time" type="string">17:26:13 </i>
 </generator>
 <incar>
  <i type="string" name="PREC">Accurate</i>
  <i type="string" name="ALGO">Normal</i>
  <i type="int" name="ISPIN">     2</i>
  <i type="int" name="NELM">   200</i>
  <i type="int" name="IBRION">     2</i>
  <i name="EDIFF">      0.00000010</i>
  <i name="EDIFFG">     -0.00100000</i>
  <i type="int" name="NSW">     1</i>
  <i type="int" name="ISIF">     3</i>
  <i name="ENCUT">    700.00000000</i>
  <i name="ENAUG">   1360.00000000</i>
  <v name="MAGMOM">      0.00000000      0.00000000</v>
  <i type="logical" name="LREAL"> F  </i>
  <i type="int" name="ISMEAR">    -5</i>
  <i name="SIGMA">      0.05000000</i>
  <i name="KSPACING">      0.29252878</i>
  <i type="logical" name="LWAVE"> F  </i>
  <i type="logical" name="LCHARG"> T  </i>
  <i type="logical" name="LVTOT"> T  </i>
  <i type="int" name="LORBIT">    11</i>
  <i type="logical" name="LELF"> T  </i>
  <i type="logical" name="LASPH"> T  </i>
  <i type="logical" name="LAECHG"> F  </i>
  <i type="logical" name="LMIXTAU"> T  </i>
 </incar>
 <primitive_cell>
  <structure name="primitive_cell" >
   <crystal>
    <varray name="basis" >
     <v>       0.00000000       2.69772100       2.75222600 </v>
     <v>       2.75277700      -0.05505600       2.75222600 </v>
     <v>       2.75277700       2.75277700       0.00000000 </v>
    </varray>
    <i name="volume">     41.71153295 </i>
    <varray name="rec_basis" >
     <v>      -0.18163476       0.18163476       0.18530458 </v>
     <v>       0.18163476      -0.18163476       0.17803767 </v>
     <v>       0.18163476       0.18163476      -0.17803767 </v>
    </varray>
   </crystal>
   <varray name="positions" >
    <v>       0.75000000       0.75000000       0.75000000 </v>
    <v>       0.50000000       0.50000000       0.50000000 </v>
   </varray>
  </structure>
  <varray name="primitive_index" >
   <v type="int" >        1 </v>
   <v type="int" >        2 </v>
  </varray>
 </primitive_cell>
 <kpoints>
  <generation param="Gamma">
   <v type="int" name="divisions">       3        3        3 </v>
   <v name="usershift">      0.00000000       0.00000000       0.00000000 </v>
   <v name="genvec1">      0.33333333      -0.00000000      -0.00000000 </v>
   <v name="genvec2">      0.00000000       0.33333333       0.00000000 </v>
   <v name="genvec3">     -0.00000000      -0.00000000       0.33333333 </v>
   <v name="shift">      0.00000000       0.00000000       0.00000000 </v>
  </generation>
  <varray name="kpointlist" >
   <v>       0.00000000       0.00000000       0.00000000 </v>
   <v>       0.33333333      -0.00000000       0.00000000 </v>
   <v>      -0.00000000       0.33333333      -0.00000000 </v>
   <v>       0.33333333       0.33333333      -0.00000000 </v>
   <v>      -0.33333333       0.33333333       0.00000000 </v>
   <v>      -0.00000000       0.33333333       0.33333333 </v>
   <v>      -0.33333333       0.33333333       0.33333333 </v>
   <v>       0.00000000      -0.33333333       0.33333333 </v>
  </varray>
  <varray name="weights" >
   <v>       0.03703704 </v>
   <v>       0.14814815 </v>
   <v>       0.14814815 </v>
   <v>       0.14814815 </v>
   <v>       0.29629630 </v>
   <v>       0.07407407 </v>
   <v>       0.07407407 </v>
   <v>       0.07407407 </v>
  </varray>
  <varray name="tetrahedronlist"  type="int" >
   <v type="int" >        8        1        2        3        4 </v>
   <v type="int" >        4        1        2        2        4 </v>
   <v type="int" >        8        1        2        3        6 </v>
   <v type="int" >        8        2        4        5        7 </v>
   <v type="int" >        8        2        2        5        7 </v>
   <v type="int" >        4        2        2        4        7 </v>
   <v type="int" >        8        2        3        5        6 </v>
   <v type="int" >        8        2        5        6        7 </v>
   <v type="int" >        4        3        3        5        5 </v>
   <v type="int" >        8        3        4        5        5 </v>
   <v type="int" >        8        2        3        4        5 </v>
   <v type="int" >        8        3        3        5        8 </v>
   <v type="int" >        8        3        5        6        8 </v>
   <v type="int" >        8        4        4        5        5 </v>
   <v type="int" >        4        4        5        5        7 </v>
   <v type="int" >        8        4        5        5        5 </v>
   <v type="int" >        8        2        4        5        5 </v>
   <v type="int" >        8        3        4        5        8 </v>
   <v type="int" >        4        4        5        5        8 </v>
   <v type="int" >        4        5        5        7        8 </v>
   <v type="int" >        8        5        6        7        8 </v>
   <v type="int" >        4        1        3        3        4 </v>
   <v type="int" >        4        3        3        4        8 </v>
   <v type="int" >        4        2        2        5        5 </v>
   <v type="int" >        2        5        5        5        5 </v>
   <v type="int" >        4        6        6        7        8 </v>
  </varray>
  <i name="volumeweight">      0.00617284 </i>
 </kpoints>
 <parameters>
  <separator name="general" >
   <i type="string" name="SYSTEM">unknown system</i>
   <i type="logical" name="LCOMPAT"> F  </i>
  </separator>
  <separator name="electronic" >
   <i type="string" name="PREC">accura</i>
   <i name="ENMAX">    700.00000000</i>
   <i name="ENAUG">   1360.00000000</i>
   <i name="EDIFF">      0.00000010</i>
   <i type="int" name="IALGO">    38</i>
   <i type="int" name="IWAVPR">    11</i>
   <i type="int" name="NBANDS">     8</i>
   <i type="int" name="NBANDSLOW">    -1</i>
   <i type="int" name="NBANDSHIGH">    -1</i>
   <i name="NELECT">      8.00000000</i>
   <i type="int" name="TURBO">     0</i>
   <i type="int" name="IRESTART">     0</i>
   <i type="int" name="NREBOOT">     0</i>
   <i type="int" name="NMIN">     0</i>
   <i name="EREF">      0.00000000</i>
   <separator name="electronic smearing" >
    <i type="int" name="ISMEAR">    -5</i>
    <i name="SIGMA">      0.05000000</i>
    <i name="KSPACING">      0.29252878</i>
    <i type="logical" name="KGAMMA"> T  </i>
    <i type="logical" name="KBLOWUP"> T  </i>
   </separator>
   <separator name="electronic projectors" >
    <i type="logical" name="LREAL"> F  </i>
    <v name="ROPT">      0.00000000</v>
    <i type="int" name="LMAXPAW">  -100</i>
    <i type="int" name="LMAXMIX">     2</i>
    <i type="logical" name="NLSPLINE"> F  </i>
   </separator>
   <separator name="electronic startup" >
    <i type="int" name="ISTART">     0</i>
    <i type="int" name="ICHARG">     2</i>
    <i type="int" name="INIWAV">     1</i>
   </separator>
   <separator name="electronic spin" >
    <i type="int" name="ISPIN">     2</i>
    <i type="logical" name="LNONCOLLINEAR"> F  </i>
    <v name="MAGMOM">      0.00000000      0.00000000</v>
    <i name="NUPDOWN">     -1.00000000</i>
    <i type="logical" name="LSORBIT"> F  </i>
    <v name="SAXIS">      0.00000000      0.00000000      1.00000000</v>
    <i type="logical" name="LSPIRAL"> F  </i>
    <v name="QSPIRAL">      0.00000000      0.00000000      0.00000000</v>
    <i type="logical" name="LZEROZ"> F  </i>
   </separator>
   <separator name="electronic exchange-correlation" >
    <i type="logical" name="LASPH"> T  </i>
    <i type="logical" name="LMETAGGA"> F  </i>
   </separator>
   <separator name="electronic convergence" >
    <i type="int" name="NELM">   200</i>
    <i type="int" name="NELMDL">    -5</i>
    <i type="int" name="NELMIN">     2</i>
    <i name="ENINI">    700.00000000</i>
    <separator name="electronic convergence detail" >
     <i type="logical" name="LDIAG"> T  </i>
     <i type="logical" name="LSUBROT"> F  </i>
     <i name="WEIMIN">      0.00100000</i>
     <i name="EBREAK">      0.00000000</i>
     <i name="DEPER">      0.30000000</i>
     <i type="int" name="NRMM">     4</i>
     <i name="TIME">      0.40000000</i>
    </separator>
   </separator>
   <separator name="electronic mixer" >
    <i name="AMIX">      0.40000000</i>
    <i name="BMIX">      1.00000000</i>
    <i name="AMIN">      0.10000000</i>
    <i name="AMIX_MAG">      1.60000000</i>
    <i name="BMIX_MAG">      1.00000000</i>
    <separator name="electronic mixer details" >
     <i type="int" name="IMIX">     4</i>
     <i type="logical" name="MIXFIRST"> F  </i>
     <i type="int" name="MAXMIX">   -45</i>
     <i name="WC">    100.00000000</i>
     <i type="int" name="INIMIX">     1</i>
     <i type="int" name="MIXPRE">     1</i>
     <i type="int" name="MREMOVE">     5</i>
    </separator>
   </separator>
   <separator name="electronic dipolcorrection" >
    <i type="logical" name="LDIPOL"> F  </i>
    <i type="logical" name="LMONO"> F  </i>
    <i type="int" name="IDIPOL">     0</i>
    <i name="EPSILON">      1.00000000</i>
    <v name="DIPOL">   -100.00000000   -100.00000000   -100.00000000</v>
    <i name="EFIELD">      0.00000000</i>
   </separator>
  </separator>
  <separator name="grids" >
   <i type="int" name="NGX">    36</i>
   <i type="int" name="NGY">    36</i>
   <i type="int" name="NGZ">    36</i>
   <i type="int" name="NGXF">    72</i>
   <i type="int" name="NGYF">    72</i>
   <i type="int" name="NGZF">    72</i>
   <i type="logical" name="ADDGRID"> F  </i>
  </separator>
  <separator name="ionic" >
   <i type="int" name="NSW">     1</i>
   <i type="int" name="IBRION">     2</i>
   <i type="int" name="MDALGO">     0</i>
   <i type="int" name="ISIF">     3</i>
   <i name="PSTRESS">      0.00000000</i>
   <i name="EDIFFG">     -0.00100000</i>
   <i type="int" name="NFREE">     1</i>
   <i name="POTIM">      0.50000000</i>
   <i name="SMASS">     -3.00000000</i>
   <i name="SCALEE">      1.00000000</i>
  </separator>
  <separator name="ionic md" >
   <i name="TEBEG">      0.00010000</i>
   <i name="TEEND">      0.00010000</i>
   <i type="int" name="NBLOCK">     1</i>
   <i type="int" name="KBLOCK">     1</i>
   <i type="int" name="NPACO">   256</i>
   <i name="APACO">     16.00000000</i>
  </separator>
  <separator name="symmetry" >
   <i type="int" name="ISYM">     2</i>
   <i name="SYMPREC">      0.00001000</i>
  </separator>
  <separator name="dos" >
   <i type="int" name="LORBIT">    11</i>
   <v name="RWIGS">     -1.00000000</v>
   <i type="int" name="NEDOS">   301</i>
   <i name="EMIN">     10.00000000</i>
   <i name="EMAX">    -10.00000000</i>
   <i name="EFERMI">      0.00000000</i>
  </separator>
  <separator name="writing" >
   <i type="int" name="NWRITE">     2</i>
   <i type="logical" name="LWAVE"> F  </i>
   <i type="logical" name="LDOWNSAMPLE"> F  </i>
   <i type="logical" name="LCHARG"> T  </i>
   <i type="logical" name="LPARD"> F  </i>
   <i type="logical" name="LVTOT"> T  </i>
   <i type="logical" name="LVHAR"> F  </i>
   <i type="logical" name="LELF"> T  </i>
   <i type="logical" name="LOPTICS"> F  </i>
   <v name="STM">      0.00000000      0.00000000      0.00000000      0.00000000      0.00000000      0.00000000      0.00000000</v>
  </separator>
  <separator name="performance" >
   <i type="int" name="NPAR">     1</i>
   <i type="int" name="NSIM">     4</i>
   <i type="int" name="NBLK">    -1</i>
   <i type="logical" name="LPLANE"> T  </i>
   <i type="logical" name="LSCALAPACK"> F  </i>
   <i type="logical" name="LSCAAWARE"> F  </i>
   <i type="logical" name="LSCALU"> F  </i>
   <i type="logical" name="LASYNC"> F  </i>
   <i type="logical" name="LORBITALREAL"> F  </i>
  </separator>
  <separator name="miscellaneous" >
   <i type="int" name="IDIOT">     3</i>
   <i type="int" name="PHON_NSTRUCT">    -1</i>
   <i type="logical" name="LMUSIC"> F  </i>
   <v name="POMASS">     28.08500000</v>
   <v name="DARWINR">      0.00000000</v>
   <v name="DARWINV">      1.00000000</v>
   <i type="logical" name="LCORR"> T  </i>
  </separator>
  <i type="logical" name="GGA_COMPAT"> T  </i>
  <i type="logical" name="LBERRY"> F  </i>
  <i type="int" name="ICORELEVEL">     0</i>
  <i type="logical" name="LDAU"> F  </i>
  <i type="int" name="I_CONSTRAINED_M">     0</i>
  <separator name="electronic exchange-correlation" >
   <i type="string" name="GGA">--</i>
   <i type="int" name="VOSKOWN">     0</i>
   <i type="logical" name="LHFCALC"> F  </i>
   <i type="string" name="PRECFOCK"></i>
   <i type="logical" name="LSYMGRAD"> F  </i>
   <i type="logical" name="LHFONE"> F  </i>
   <i type="logical" name="LRHFCALC"> F  </i>
   <i type="logical" name="LTHOMAS"> F  </i>
   <i type="logical" name="LMODELHF"> F  </i>
   <i type="logical" name="LFOCKACE"> F  </i>
   <i name="ENCUT4O">     -1.00000000</i>
   <i type="int" name="EXXOEP">     0</i>
   <i type="int" name="FOURORBIT">     0</i>
   <i name="AEXX">      0.00000000</i>
   <i name="HFALPHA">      0.00000000</i>
   <i name="MCALPHA">      0.00000000</i>
   <i name="ALDAX">      1.00000000</i>
   <i name="AGGAX">      1.00000000</i>
   <i name="ALDAC">      1.00000000</i>
   <i name="AGGAC">      1.00000000</i>
   <i type="int" name="NKREDX">     1</i>
   <i type="int" name="NKREDY">     1</i>
   <i type="int" name="NKREDZ">     1</i>
   <i type="logical" name="SHIFTRED"> F  </i>
   <i type="logical" name="ODDONLY"> F  </i>
   <i type="logical" name="EVENONLY"> F  </i>
   <i type="int" name="LMAXFOCK">     0</i>
   <i type="int" name="NMAXFOCKAE">     0</i>
   <i type="logical" name="LFOCKAEDFT"> F  </i>
   <i name="HFSCREEN">      0.00000000</i>
   <i name="HFSCREENC">      0.00000000</i>
   <i type="int" name="NBANDSGWLOW">     0</i>
  </separator>
  <separator name="vdW DFT" >
   <i type="logical" name="LUSE_VDW"> F  </i>
   <i name="Zab_VDW">     -0.84910000</i>
   <i name="PARAM1">      0.12340000</i>
   <i name="PARAM2">      1.00000000</i>
   <i name="PARAM3">      0.00000000</i>
  </separator>
  <separator name="model GW" >
   <i type="int" name="MODEL_GW">     0</i>
   <i name="MODEL_EPS0">     12.51345988</i>
   <i name="MODEL_ALPHA">      1.00000000</i>
  </separator>
  <separator name="linear response parameters" >
   <i type="logical" name="LEPSILON"> F  </i>
   <i type="logical" name="LRPA"> F  </i>
   <i type="logical" name="LNABLA"> F  </i>
   <i type="logical" name="LVEL"> F  </i>
   <i type="int" name="KINTER">     0</i>
   <i name="CSHIFT">      0.10000000</i>
   <i name="OMEGAMAX">     -1.00000000</i>
   <i name="DEG_THRESHOLD">      0.00200000</i>
   <i name="RTIME">     -0.10000000</i>
   <i name="WPLASMAI">      0.00000000</i>
   <v name="DFIELD">      0.00000000      0.00000000      0.00000000</v>
   <v name="WPLASMA">      0.00000000      0.00000000      0.00000000      0.00000000      0.00000000      0.00000000      0.00000000      0.00000000      0.00000000</v>
  </separator>
  <separator name="orbital magnetization" >
   <i type="logical" name="NUCIND"> F  </i>
   <v name="MAGPOS">      0.00000000      0.00000000      0.00000000</v>
   <i type="logical" name="LNICSALL"> T  </i>
   <i type="logical" name="ORBITALMAG"> F  </i>
   <i type="logical" name="LMAGBLOCH"> F  </i>
   <i type="logical" name="LCHIMAG"> F  </i>
   <i type="logical" name="LGAUGE"> T  </i>
   <i type="int" name="MAGATOM">     0</i>
   <v name="MAGDIPOL">      0.00000000      0.00000000      0.00000000</v>
   <v name="AVECCONST">      0.00000000      0.00000000      0.00000000</v>
  </separator>
  <separator name="response functions" >
   <i type="logical" name="LFINITE_TEMPERATURE"> F  </i>
   <i type="logical" name="LADDER"> F  </i>
   <i type="logical" name="LRPAFORCE"> F  </i>
   <i type="logical" name="LFXC"> F  </i>
   <i type="logical" name="LHARTREE"> T  </i>
   <i type="int" name="IBSE">     0</i>
   <v type="int" name="KPOINT">    -1     0     0     0</v>
   <i type="logical" name="LTCTC"> F  </i>
   <i type="logical" name="LTCTE"> F  </i>
   <i type="logical" name="LTETE"> F  </i>
   <i type="logical" name="LTRIPLET"> F  </i>
   <i type="logical" name="LFXCEPS"> F  </i>
   <i type="logical" name="LFXHEG"> F  </i>
   <i type="int" name="NATURALO">     2</i>
   <i type="logical" name="LHOLEGF"> F  </i>
   <i type="logical" name="L2ORDER"> F  </i>
   <i type="logical" name="LDMP1"> F  </i>
   <i type="logical" name="LMP2LT"> F  </i>
   <i type="logical" name="LSMP2LT"> F  </i>
   <i type="logical" name="LGWLF"> F  </i>
   <i name="ENCUTGW">     -2.00000000</i>
   <i name="ENCUTGWSOFT">     -2.00000000</i>
   <i name="ENCUTLF">     -1.00000000</i>
   <i type="logical" name="LESF_SPLINES"> F  </i>
   <i type="int" name="LMAXMP2">    -1</i>
   <i name="SCISSOR">      0.00000000</i>
   <i type="int" name="NOMEGA">     0</i>
   <i type="int" name="NOMEGAR">     0</i>
   <i type="int" name="NBANDSGW">    -1</i>
   <i type="int" name="NBANDSO">    -1</i>
   <i type="int" name="NBANDSV">    -1</i>
   <i type="int" name="NELM">   200</i>
   <i type="int" name="NELMHF">     1</i>
   <i type="int" name="DIM">     3</i>
   <i type="int" name="IESPILON">     4</i>
   <i type="int" name="ANTIRES">     0</i>
   <i name="OMEGAMAX">    -30.00000000</i>
   <i name="OMEGAMIN">    -30.00000000</i>
   <i name="OMEGATL">   -200.00000000</i>
   <i type="int" name="OMEGAGRID">     0</i>
   <i name="CSHIFT">     -0.10000000</i>
   <i type="logical" name="LSELFENERGY"> F  </i>
   <i type="logical" name="LSPECTRAL"> F  </i>
   <i type="logical" name="LSPECTRALGW"> F  </i>
   <i type="logical" name="LSINGLES"> F  </i>
   <i type="logical" name="LFERMIGW"> F  </i>
   <i type="logical" name="ODDONLYGW"> F  </i>
   <i type="logical" name="EVENONLYGW"> F  </i>
   <i type="int" name="NKREDLFX">     1</i>
   <i type="int" name="NKREDLFY">     1</i>
   <i type="int" name="NKREDLFZ">     1</i>
   <i type="int" name="MAXMEM">  2800</i>
   <i type="int" name="TELESCOPE">     0</i>
   <i type="int" name="NTAUPAR">    -1</i>
   <i type="int" name="NOMEGAPAR">    -1</i>
   <i name="DAMP_NEWTON">      0.80000001</i>
   <i name="LAMBDA">      1.00000000</i>
  </separator>
  <separator name="External order field" >
   <i name="OFIELD_KAPPA">      0.00000000</i>
   <v name="OFIELD_K">      0.00000000      0.00000000      0.00000000</v>
   <i name="OFIELD_Q6_NEAR">      0.00000000</i>
   <i name="OFIELD_Q6_FAR">      0.00000000</i>
   <i name="OFIELD_A">      0.00000000</i>
  </separator>
 </parameters>
 <atominfo>
  <atoms>       2 </atoms>
  <types>       1 </types>
  <array name="atoms" >
   <dimension dim="1">ion</dimension>
   <field type="string">element</field>
   <field type="int">atomtype</field>
   <set>
    <rc><c>Si</c><c>   1</c></rc>
    <rc><c>Si</c><c>   1</c></rc>
   </set>
  </array>
  <array name="atomtypes" >
   <dimension dim="1">type</dimension>
   <field type="int">atomspertype</field>
   <field type="string">element</field>
   <field>mass</field>
   <field>valence</field>
   <field type="string">pseudopotential</field>
   <set>
    <rc><c>   2</c><c>Si</c><c>     28.08500000</c><c>      4.00000000</c><c>  PAW_PBE Si 05Jan2001                  </c></rc>
   </set>
  </array>
 </atominfo>
 <structure name="initialpos" >
  <crystal>
   <varray name="basis" >
    <v>       0.00000000       2.69772100       2.75222600 </v>
    <v>       2.75277700      -0.05505600       2.75222600 </v>
    <v>       2.75277700       2.75277700       0.00000000 </v>
   </varray>
   <i name="volume">     41.71153295 </i>
   <varray name="rec_basis" >
    <v>      -0.18163476       0.18163476       0.18530458 </v>
    <v>       0.18163476      -0.18163476       0.17803767 </v>
    <v>       0.18163476       0.18163476      -0.17803767 </v>
   </varray>
  </crystal>
  <varray name="positions" >
   <v>       0.75000000       0.75000000       0.75000000 </v>
   <v>       0.50000000       0.50000000       0.50000000 </v>
  </varray>
 </structure>
 <calculation>
  <scstep>
   <time name="dav">    0.46    0.48</time>
   <time name="total">    1.01    1.07</time>
   <energy>
    <i name="alphaZ">      3.22818448 </i>
    <i name="ewald">   -225.42502162 </i>
    <i name="hartreedc">    -11.63745192 </i>
    <i name="XCdc">    -18.76180458 </i>
    <i name="pawpsdc">    176.24759923 </i>
    <i name="pawaedc">   -141.06103558 </i>
    <i name="eentropy">      0.00000000 </i>
    <i name="bandstr">     25.07520478 </i>
    <i name="atom">    206.13324734 </i>
    <i name="e_fr_energy">     13.79892212 </i>
    <i name="e_wo_entrp">     13.79892212 </i>
    <i name="e_0_energy">     13.79892212 </i>
   </energy>
  </scstep>
  <scstep>
   <time name="dav">    0.73    0.80</time>
   <time name="total">    0.73    0.80</time>
   <energy>
    <i name="e_fr_energy">    -10.12601580 </i>
    <i name="e_wo_entrp">    -10.12601580 </i>
    <i name="e_0_energy">    -10.12601580 </i>
   </energy>
  </scstep>
  <scstep>
   <time name="dav">    0.62    0.64</time>
   <time name="total">    0.62    0.64</time>
   <energy>
    <i name="e_fr_energy">    -10.45147621 </i>
    <i name="e_wo_entrp">    -10.45147621 </i>
    <i name="e_0_energy">    -10.45147621 </i>
   </energy>
  </scstep>
  <scstep>
   <time name="dav">    0.74    0.78</time>
   <time name="total">    0.74    0.78</time>
   <energy>
    <i name="e_fr_energy">    -10.45327329 </i>
    <i name="e_wo_entrp">    -10.45327329 </i>
    <i name="e_0_energy">    -10.45327329 </i>
   </energy>
  </scstep>
  <scstep>
   <time name="dav">    0.66    0.68</time>
   <time name="total">    0.74    0.77</time>
   <energy>
    <i name="e_fr_energy">    -10.45327522 </i>
    <i name="e_wo_entrp">    -10.45327522 </i>
    <i name="e_0_energy">    -10.45327522 </i>
   </energy>
  </scstep>
  <scstep>
   <time name="dav">    0.88    0.95</time>
   <time name="total">    1.73    1.88</time>
   <energy>
    <i name="e_fr_energy">    -10.30602105 </i>
    <i name="e_wo_entrp">    -10.30602105 </i>
    <i name="e_0_energy">    -10.30602105 </i>
   </energy>
  </scstep>
  <scstep>
   <time name="dav">    1.23    1.44</time>
   <time name="total">    2.64    3.50</time>
   <energy>
    <i name="e_fr_energy">    -10.23931341 </i>
    <i name="e_wo_entrp">    -10.23931341 </i>
    <i name="e_0_energy">    -10.23931341 </i>
   </energy>
  </scstep>
  <scstep>
   <time name="dav">    0.45    0.49</time>
   <time name="total">    1.29    1.37</time>
   <energy>
    <i name="e_fr_energy">    -10.24175964 </i>
    <i name="e_wo_entrp">    -10.24175964 </i>
    <i name="e_0_energy">    -10.24175964 </i>
   </energy>
  </scstep>
  <scstep>
   <time name="dav">    0.60    0.61</time>
   <time name="total">    1.24    1.32</time>
   <energy>
    <i name="e_fr_energy">    -10.24218217 </i>
    <i name="e_wo_entrp">    -10.24218217 </i>
    <i name="e_0_energy">    -10.24218217 </i>
   </energy>
  </scstep>
  <scstep>
   <time name="dav">    0.76    0.78</time>
   <time name="total">    1.42    1.45</time>
   <energy>
    <i name="e_fr_energy">    -10.24222984 </i>
    <i name="e_wo_entrp">    -10.24222984 </i>
    <i name="e_0_energy">    -10.24222984 </i>
   </energy>
  </scstep>
  <scstep>
   <time name="dav">    0.67    0.69</time>
   <time name="total">    1.55    1.61</time>
   <energy>
    <i name="e_fr_energy">    -10.24223144 </i>
    <i name="e_wo_entrp">    -10.24223144 </i>
    <i name="e_0_energy">    -10.24223144 </i>
   </energy>
  </scstep>
  <scstep>
   <time name="dav">    0.51    0.53</time>
   <time name="total">    1.20    1.24</time>
   <energy>
    <i name="e_fr_energy">    -10.24223181 </i>
    <i name="e_wo_entrp">    -10.24223181 </i>
    <i name="e_0_energy">    -10.24223181 </i>
   </energy>
  </scstep>
  <scstep>
   <time name="dav">    0.72    0.74</time>
   <time name="total">    1.45    1.50</time>
   <energy>
    <i name="e_fr_energy">    -10.24223210 </i>
    <i name="e_wo_entrp">    -10.24223210 </i>
    <i name="e_0_energy">    -10.24223210 </i>
   </energy>
  </scstep>
  <scstep>
   <time name="dav">    0.41    0.43</time>
   <time name="total">    1.11    1.16</time>
   <energy>
    <i name="alphaZ">      3.22818448 </i>
    <i name="ewald">   -225.42502162 </i>
    <i name="hartreedc">    -16.22179237 </i>
    <i name="XCdc">    -18.05425897 </i>
    <i name="pawpsdc">    823.82236010 </i>
    <i name="pawaedc">   -788.84385906 </i>
    <i name="eentropy">      0.00000000 </i>
    <i name="bandstr">      5.11890802 </i>
    <i name="atom">    206.13324734 </i>
    <i name="e_fr_energy">    -10.24223208 </i>
    <i name="e_wo_entrp">    -10.24223208 </i>
    <i name="e_0_energy">    -10.24223208 </i>
   </energy>
  </scstep>
  <structure>
   <crystal>
    <varray name="basis" >
     <v>       0.00000000       2.69772100       2.75222600 </v>
     <v>       2.75277700      -0.05505600       2.75222600 </v>
     <v>       2.75277700       2.75277700       0.00000000 </v>
    </varray>
    <i name="volume">     41.71153295 </i>
    <varray name="rec_basis" >
     <v>      -0.18163476       0.18163476       0.18530458 </v>
     <v>       0.18163476      -0.18163476       0.17803767 </v>
     <v>       0.18163476       0.18163476      -0.17803767 </v>
    </varray>
   </crystal>
   <varray name="positions" >
    <v>       0.75000000       0.75000000       0.75000000 </v>
    <v>       0.50000000       0.50000000       0.50000000 </v>
   </varray>
  </structure>
  <varray name="forces" >
   <v>       0.15935989       0.00000000      -0.00000000 </v>
   <v>      -0.15935989      -0.00000000       0.00000000 </v>
  </varray>
  <varray name="stress" >
   <v>       0.46617119       0.00000000       0.00000000 </v>
   <v>       0.00000000       0.23198612      18.93906901 </v>
   <v>       0.00000000      18.93906901       0.98970660 </v>
  </varray>
  <energy>
   <i name="e_fr_energy">    -10.24223208 </i>
   <i name="e_wo_entrp">    -10.24223208 </i>
   <i name="e_0_energy">    -10.24223208 </i>
  </energy>
  <time name="totalsc">   20.28   22.11</time>
  <eigenvalues>
   <array>
    <dimension dim="1">band</dimension>
    <dimension dim="2">kpoint</dimension>
    <dimension dim="3">spin</dimension>
    <field>eigene</field>
    <field>occ</field>
    <set>
     <set comment="spin 1">
      <set comment="kpoint 1">
       <r>   -6.1750    1.0000 </r>
       <r>    5.5060    1.0000 </r>
       <r>    5.5227    1.0000 </r>
       <r>    5.5487    1.0000 </r>
       <r>    7.8860    0.0000 </r>
       <r>    7.9512    0.0000 </r>
       <r>    8.1785    0.0000 </r>
       <r>    8.5242    0.0000 </r>
      </set>
      <set comment="kpoint 2">
       <r>   -4.8186    1.0000 </r>
       <r>    0.3178    1.0000 </r>
       <r>    4.5068    1.0000 </r>
       <r>    4.5090    1.0000 </r>
       <r>    7.0467    0.0000 </r>
       <r>    8.8781    0.0000 </r>
       <r>    9.0456    0.0000 </r>
       <r>   13.1527    0.0000 </r>
      </set>
      <set comment="kpoint 3">
       <r>   -4.8761    1.0000 </r>
       <r>    0.2733    1.0000 </r>
       <r>    4.5885    1.0000 </r>
       <r>    4.5936    1.0000 </r>
       <r>    7.2156    0.0000 </r>
       <r>    8.9152    0.0000 </r>
       <r>    9.0863    0.0000 </r>
       <r>   13.1596    0.0000 </r>
      </set>
      <set comment="kpoint 4">
       <r>   -4.3340    1.0000 </r>
       <r>    0.5474    1.0000 </r>
       <r>    3.1821    1.0000 </r>
       <r>    3.1828    1.0000 </r>
       <r>    6.2766    0.0000 </r>
       <r>    7.5318    0.0000 </r>
       <r>   12.5806    0.0000 </r>
       <r>   12.5849    0.0000 </r>
      </set>
      <set comment="kpoint 5">
       <r>   -3.0348    1.0000 </r>
       <r>   -1.1459    1.0000 </r>
       <r>    1.2756    1.0000 </r>
       <r>    3.4769    1.0000 </r>
       <r>    7.0922    0.0000 </r>
       <r>   11.2603    0.0000 </r>
       <r>   11.7965    0.0000 </r>
       <r>   12.3422    0.0000 </r>
      </set>
      <set comment="kpoint 6">
       <r>   -4.3358    1.0000 </r>
       <r>    0.5440    1.0000 </r>
       <r>    3.0892    1.0000 </r>
       <r>    3.2796    1.0000 </r>
       <r>    6.2726    0.0000 </r>
       <r>    7.5396    0.0000 </r>
       <r>   12.5828    0.0000 </r>
       <r>   12.6056    0.0000 </r>
      </set>
      <set comment="kpoint 7">
       <r>   -2.9400    1.0000 </r>
       <r>   -1.2127    1.0000 </r>
       <r>    1.2778    1.0000 </r>
       <r>    3.4038    1.0000 </r>
       <r>    7.0073    0.0000 </r>
       <r>   11.4431    0.0000 </r>
       <r>   11.7712    0.0000 </r>
       <r>   12.4155    0.0000 </r>
      </set>
      <set comment="kpoint 8">
       <r>   -3.1252    1.0000 </r>
       <r>   -1.0876    1.0000 </r>
       <r>    1.2725    1.0000 </r>
       <r>    3.5531    1.0000 </r>
       <r>    7.1831    0.0000 </r>
       <r>   11.0567    0.0000 </r>
       <r>   11.8891    0.0000 </r>
       <r>   12.3784    0.0000 </r>
      </set>
     </set>
     <set comment="spin 2">
      <set comment="kpoint 1">
       <r>   -6.1750    1.0000 </r>
       <r>    5.5060    1.0000 </r>
       <r>    5.5227    1.0000 </r>
       <r>    5.5487    1.0000 </r>
       <r>    7.8860    0.0000 </r>
       <r>    7.9512    0.0000 </r>
       <r>    8.1785    0.0000 </r>
       <r>    8.5242    0.0000 </r>
      </set>
      <set comment="kpoint 2">
       <r>   -4.8186    1.0000 </r>
       <r>    0.3178    1.0000 </r>
       <r>    4.5068    1.0000 </r>
       <r>    4.5090    1.0000 </r>
       <r>    7.0467    0.0000 </r>
       <r>    8.8781    0.0000 </r>
       <r>    9.0456    0.0000 </r>
       <r>   13.1527    0.0000 </r>
      </set>
      <set comment="kpoint 3">
       <r>   -4.8761    1.0000 </r>
       <r>    0.2733    1.0000 </r>
       <r>    4.5885    1.0000 </r>
       <r>    4.5936    1.0000 </r>
       <r>    7.2156    0.0000 </r>
       <r>    8.9152    0.0000 </r>
       <r>    9.0863    0.0000 </r>
       <r>   13.1596    0.0000 </r>
      </set>
      <set comment="kpoint 4">
       <r>   -4.3340    1.0000 </r>
       <r>    0.5474    1.0000 </r>
       <r>    3.1821    1.0000 </r>
       <r>    3.1828    1.0000 </r>
       <r>    6.2766    0.0000 </r>
       <r>    7.5318    0.0000 </r>
       <r>   12.5806    0.0000 </r>
       <r>   12.5849    0.0000 </r>
      </set>
      <set comment="kpoint 5">
       <r>   -3.0348    1.0000 </r>
       <r>   -1.1459    1.0000 </r>
       <r>    1.2756    1.0000 </r>
       <r>    3.4769    1.0000 </r>
       <r>    7.0922    0.0000 </r>
       <r>   11.2603    0.0000 </r>
       <r>   11.7965    0.0000 </r>
       <r>   12.3422    0.0000 </r>
      </set>
      <set comment="kpoint 6">
       <r>   -4.3358    1.0000 </r>
       <r>    0.5440    1.0000 </r>
       <r>    3.0892    1.0000 </r>
       <r>    3.2796    1.0000 </r>
       <r>    6.2726    0.0000 </r>
       <r>    7.5396    0.0000 </r>
       <r>   12.5828    0.0000 </r>
       <r>   12.6056    0.0000 </r>
      </set>
      <set comment="kpoint 7">
       <r>   -2.9400    1.0000 </r>
       <r>   -1.2127    1.0000 </r>
       <r>    1.2778    1.0000 </r>
       <r>    3.4038    1.0000 </r>
       <r>    7.0073    0.0000 </r>
       <r>   11.4431    0.0000 </r>
       <r>   11.7711    0.0000 </r>
       <r>   12.4155    0.0000 </r>
      </set>
      <set comment="kpoint 8">
       <r>   -3.1252    1.0000 </r>
       <r>   -1.0876    1.0000 </r>
       <r>    1.2725    1.0000 </r>
       <r>    3.5531    1.0000 </r>
       <r>    7.1831    0.0000 </r>
       <r>   11.0567    0.0000 </r>
       <r>   11.8891    0.0000 </r>
       <r>   12.3784    0.0000 </r>
      </set>
     </set>
    </set>
   </array>
  </eigenvalues>
  <separator name="orbital magnetization" >
   <v name="MAGDIPOLOUT">      0.00000000      0.00000000      0.00000000</v>
  </separator>
  <dos>
   <i name="efermi">      5.54888198 </i>
   <total>
    <array>
     <dimension dim="1">gridpoints</dimension>
     <dimension dim="2">spin</dimension>
     <field>energy</field>
     <field>total</field>
     <field>integrated</field>
     <set>
      <set comment="spin 1">
       <r>    -7.1418     0.0000     0.0000 </r>
       <r>    -7.0709     0.0000     0.0000 </r>
       <r>    -7.0000     0.0000     0.0000 </r>
       <r>    -6.9291     0.0000     0.0000 </r>
       <r>    -6.8582     0.0000     0.0000 </r>
       <r>    -6.7873     0.0000     0.0000 </r>
       <r>    -6.7164     0.0000     0.0000 </r>
       <r>    -6.6455     0.0000     0.0000 </r>
       <r>    -6.5746     0.0000     0.0000 </r>
       <r>    -6.5037     0.0000     0.0000 </r>
       <r>    -6.4328     0.0000     0.0000 </r>
       <r>    -6.3619     0.0000     0.0000 </r>
       <r>    -6.2910     0.0000     0.0000 </r>
       <r>    -6.2201     0.0000     0.0000 </r>
       <r>    -6.1492     0.0001     0.0000 </r>
       <r>    -6.0784     0.0013     0.0000 </r>
       <r>    -6.0075     0.0038     0.0002 </r>
       <r>    -5.9366     0.0078     0.0006 </r>
       <r>    -5.8657     0.0131     0.0014 </r>
       <r>    -5.7948     0.0198     0.0025 </r>
       <r>    -5.7239     0.0279     0.0042 </r>
       <r>    -5.6530     0.0374     0.0065 </r>
       <r>    -5.5821     0.0482     0.0095 </r>
       <r>    -5.5112     0.0604     0.0134 </r>
       <r>    -5.4403     0.0740     0.0181 </r>
       <r>    -5.3694     0.0890     0.0239 </r>
       <r>    -5.2985     0.1053     0.0308 </r>
       <r>    -5.2276     0.1231     0.0389 </r>
       <r>    -5.1567     0.1422     0.0483 </r>
       <r>    -5.0858     0.1626     0.0590 </r>
       <r>    -5.0150     0.1845     0.0713 </r>
       <r>    -4.9441     0.2077     0.0852 </r>
       <r>    -4.8732     0.2326     0.1008 </r>
       <r>    -4.8023     0.2549     0.1182 </r>
       <r>    -4.7314     0.2761     0.1370 </r>
       <r>    -4.6605     0.2983     0.1573 </r>
       <r>    -4.5896     0.3216     0.1793 </r>
       <r>    -4.5187     0.3459     0.2030 </r>
       <r>    -4.4478     0.3713     0.2284 </r>
       <r>    -4.3769     0.3976     0.2556 </r>
       <r>    -4.3060     0.4320     0.2849 </r>
       <r>    -4.2351     0.4732     0.3170 </r>
       <r>    -4.1642     0.5090     0.3519 </r>
       <r>    -4.0933     0.5392     0.3891 </r>
       <r>    -4.0224     0.5640     0.4282 </r>
       <r>    -3.9515     0.5833     0.4689 </r>
       <r>    -3.8807     0.5972     0.5108 </r>
       <r>    -3.8098     0.6056     0.5534 </r>
       <r>    -3.7389     0.6085     0.5965 </r>
       <r>    -3.6680     0.6059     0.6396 </r>
       <r>    -3.5971     0.5978     0.6823 </r>
       <r>    -3.5262     0.5843     0.7242 </r>
       <r>    -3.4553     0.5653     0.7650 </r>
       <r>    -3.3844     0.5408     0.8042 </r>
       <r>    -3.3135     0.5109     0.8416 </r>
       <r>    -3.2426     0.4755     0.8766 </r>
       <r>    -3.1717     0.4346     0.9088 </r>
       <r>    -3.1008     0.4099     0.9382 </r>
       <r>    -3.0299     0.6457     0.9859 </r>
       <r>    -2.9590     0.0212     0.9999 </r>
       <r>    -2.8881     0.0000     1.0000 </r>
       <r>    -2.8173     0.0000     1.0000 </r>
       <r>    -2.7464     0.0000     1.0000 </r>
       <r>    -2.6755     0.0000     1.0000 </r>
       <r>    -2.6046     0.0000     1.0000 </r>
       <r>    -2.5337     0.0000     1.0000 </r>
       <r>    -2.4628     0.0000     1.0000 </r>
       <r>    -2.3919     0.0000     1.0000 </r>
       <r>    -2.3210     0.0000     1.0000 </r>
       <r>    -2.2501     0.0000     1.0000 </r>
       <r>    -2.1792     0.0000     1.0000 </r>
       <r>    -2.1083     0.0000     1.0000 </r>
       <r>    -2.0374     0.0000     1.0000 </r>
       <r>    -1.9665     0.0000     1.0000 </r>
       <r>    -1.8956     0.0000     1.0000 </r>
       <r>    -1.8247     0.0000     1.0000 </r>
       <r>    -1.7538     0.0000     1.0000 </r>
       <r>    -1.6830     0.0000     1.0000 </r>
       <r>    -1.6121     0.0000     1.0000 </r>
       <r>    -1.5412     0.0000     1.0000 </r>
       <r>    -1.4703     0.0000     1.0000 </r>
       <r>    -1.3994     0.0000     1.0000 </r>
       <r>    -1.3285     0.0000     1.0000 </r>
       <r>    -1.2576     0.0000     1.0000 </r>
       <r>    -1.1867     0.1049     1.0009 </r>
       <r>    -1.1158     0.5864     1.0450 </r>
       <r>    -1.0449     0.3564     1.0691 </r>
       <r>    -0.9740     0.4152     1.0965 </r>
       <r>    -0.9031     0.4675     1.1279 </r>
       <r>    -0.8322     0.5134     1.1627 </r>
       <r>    -0.7613     0.5529     1.2005 </r>
       <r>    -0.6904     0.5859     1.2409 </r>
       <r>    -0.6196     0.6125     1.2834 </r>
       <r>    -0.5487     0.6326     1.3276 </r>
       <r>    -0.4778     0.6464     1.3730 </r>
       <r>    -0.4069     0.6536     1.4191 </r>
       <r>    -0.3360     0.6545     1.4655 </r>
       <r>    -0.2651     0.6489     1.5117 </r>
       <r>    -0.1942     0.6369     1.5573 </r>
       <r>    -0.1233     0.6185     1.6019 </r>
       <r>    -0.0524     0.5937     1.6449 </r>
       <r>     0.0185     0.5624     1.6859 </r>
       <r>     0.0894     0.5246     1.7245 </r>
       <r>     0.1603     0.4805     1.7601 </r>
       <r>     0.2312     0.4299     1.7924 </r>
       <r>     0.3021     0.3617     1.8208 </r>
       <r>     0.3730     0.2347     1.8419 </r>
       <r>     0.4439     0.1427     1.8550 </r>
       <r>     0.5147     0.0911     1.8631 </r>
       <r>     0.5856     0.0799     1.8689 </r>
       <r>     0.6565     0.0776     1.8745 </r>
       <r>     0.7274     0.0754     1.8799 </r>
       <r>     0.7983     0.0732     1.8852 </r>
       <r>     0.8692     0.0710     1.8903 </r>
       <r>     0.9401     0.0688     1.8953 </r>
       <r>     1.0110     0.0667     1.9001 </r>
       <r>     1.0819     0.0646     1.9047 </r>
       <r>     1.1528     0.0626     1.9092 </r>
       <r>     1.2237     0.0605     1.9136 </r>
       <r>     1.2946     0.8227     1.9594 </r>
       <r>     1.3655     0.3148     1.9812 </r>
       <r>     1.4364     0.3282     2.0040 </r>
       <r>     1.5073     0.3403     2.0277 </r>
       <r>     1.5782     0.3511     2.0522 </r>
       <r>     1.6490     0.3608     2.0775 </r>
       <r>     1.7199     0.3692     2.1034 </r>
       <r>     1.7908     0.3764     2.1298 </r>
       <r>     1.8617     0.3824     2.1567 </r>
       <r>     1.9326     0.3872     2.1840 </r>
       <r>     2.0035     0.3907     2.2116 </r>
       <r>     2.0744     0.3931     2.2394 </r>
       <r>     2.1453     0.3942     2.2673 </r>
       <r>     2.2162     0.3941     2.2952 </r>
       <r>     2.2871     0.3927     2.3231 </r>
       <r>     2.3580     0.3901     2.3509 </r>
       <r>     2.4289     0.3863     2.3784 </r>
       <r>     2.4998     0.3813     2.4056 </r>
       <r>     2.5707     0.3751     2.4325 </r>
       <r>     2.6416     0.3676     2.4588 </r>
       <r>     2.7124     0.3590     2.4846 </r>
       <r>     2.7833     0.3491     2.5097 </r>
       <r>     2.8542     0.3379     2.5340 </r>
       <r>     2.9251     0.3256     2.5576 </r>
       <r>     2.9960     0.3120     2.5802 </r>
       <r>     3.0669     0.2972     2.6018 </r>
       <r>     3.1378     0.2835     2.6223 </r>
       <r>     3.2087     0.3651     2.6432 </r>
       <r>     3.2796     0.6544     2.6789 </r>
       <r>     3.3505     1.3356     2.7489 </r>
       <r>     3.4214     2.0991     2.8706 </r>
       <r>     3.4923     1.7653     3.0377 </r>
       <r>     3.5632     0.9792     3.1196 </r>
       <r>     3.6341     0.9700     3.1887 </r>
       <r>     3.7050     0.9557     3.2570 </r>
       <r>     3.7759     0.9361     3.3241 </r>
       <r>     3.8467     0.9112     3.3896 </r>
       <r>     3.9176     0.8811     3.4532 </r>
       <r>     3.9885     0.8458     3.5144 </r>
       <r>     4.0594     0.8052     3.5730 </r>
       <r>     4.1303     0.7593     3.6285 </r>
       <r>     4.2012     0.7082     3.6805 </r>
       <r>     4.2721     0.6519     3.7288 </r>
       <r>     4.3430     0.5903     3.7728 </r>
       <r>     4.4139     0.5235     3.8123 </r>
       <r>     4.4848     0.4514     3.8469 </r>
       <r>     4.5557     0.3870     3.8765 </r>
       <r>     4.6266     0.3247     3.9016 </r>
       <r>     4.6975     0.2760     3.9229 </r>
       <r>     4.7684     0.2313     3.9408 </r>
       <r>     4.8393     0.1905     3.9558 </r>
       <r>     4.9101     0.1537     3.9679 </r>
       <r>     4.9810     0.1208     3.9777 </r>
       <r>     5.0519     0.0919     3.9852 </r>
       <r>     5.1228     0.0669     3.9908 </r>
       <r>     5.1937     0.0459     3.9948 </r>
       <r>     5.2646     0.0289     3.9974 </r>
       <r>     5.3355     0.0158     3.9989 </r>
       <r>     5.4064     0.0066     3.9997 </r>
       <r>     5.4773     0.0014     4.0000 </r>
       <r>     5.5482     0.0000     4.0000 </r>
       <r>     5.6191     0.0000     4.0000 </r>
       <r>     5.6900     0.0000     4.0000 </r>
       <r>     5.7609     0.0000     4.0000 </r>
       <r>     5.8318     0.0000     4.0000 </r>
       <r>     5.9027     0.0000     4.0000 </r>
       <r>     5.9736     0.0000     4.0000 </r>
       <r>     6.0444     0.0000     4.0000 </r>
       <r>     6.1153     0.0000     4.0000 </r>
       <r>     6.1862     0.0000     4.0000 </r>
       <r>     6.2571     0.0000     4.0000 </r>
       <r>     6.3280     0.0428     4.0011 </r>
       <r>     6.3989     0.1243     4.0068 </r>
       <r>     6.4698     0.2333     4.0193 </r>
       <r>     6.5407     0.3698     4.0405 </r>
       <r>     6.6116     0.5337     4.0724 </r>
       <r>     6.6825     0.7252     4.1169 </r>
       <r>     6.7534     0.9442     4.1759 </r>
       <r>     6.8243     1.1907     4.2514 </r>
       <r>     6.8952     1.4648     4.3454 </r>
       <r>     6.9661     1.7663     4.4597 </r>
       <r>     7.0370     2.9465     4.6049 </r>
       <r>     7.1079     1.9743     4.8072 </r>
       <r>     7.1787     1.5037     4.9066 </r>
       <r>     7.2496     0.2003     4.9575 </r>
       <r>     7.3205     0.1581     4.9702 </r>
       <r>     7.3914     0.1210     4.9801 </r>
       <r>     7.4623     0.0888     4.9875 </r>
       <r>     7.5332     0.0616     4.9928 </r>
       <r>     7.6041     0.0449     4.9965 </r>
       <r>     7.6750     0.0401     4.9994 </r>
       <r>     7.7459     0.0472     5.0024 </r>
       <r>     7.8168     0.0662     5.0064 </r>
       <r>     7.8877     0.0970     5.0121 </r>
       <r>     7.9586     0.1370     5.0203 </r>
       <r>     8.0295     0.1768     5.0315 </r>
       <r>     8.1004     0.2114     5.0453 </r>
       <r>     8.1713     0.2410     5.0614 </r>
       <r>     8.2421     0.2660     5.0794 </r>
       <r>     8.3130     0.2871     5.0990 </r>
       <r>     8.3839     0.3045     5.1200 </r>
       <r>     8.4548     0.3180     5.1421 </r>
       <r>     8.5257     0.3278     5.1650 </r>
       <r>     8.5966     0.3337     5.1884 </r>
       <r>     8.6675     0.3359     5.2122 </r>
       <r>     8.7384     0.3343     5.2360 </r>
       <r>     8.8093     0.3290     5.2595 </r>
       <r>     8.8802     0.3202     5.2825 </r>
       <r>     8.9511     0.3397     5.3057 </r>
       <r>     9.0220     0.3688     5.3309 </r>
       <r>     9.0929     0.3959     5.3580 </r>
       <r>     9.1638     0.4186     5.3869 </r>
       <r>     9.2347     0.4399     5.4173 </r>
       <r>     9.3056     0.4598     5.4492 </r>
       <r>     9.3764     0.4782     5.4825 </r>
       <r>     9.4473     0.4952     5.5170 </r>
       <r>     9.5182     0.5107     5.5527 </r>
       <r>     9.5891     0.5248     5.5894 </r>
       <r>     9.6600     0.5375     5.6271 </r>
       <r>     9.7309     0.5487     5.6656 </r>
       <r>     9.8018     0.5584     5.7048 </r>
       <r>     9.8727     0.5668     5.7447 </r>
       <r>     9.9436     0.5736     5.7851 </r>
       <r>    10.0145     0.5791     5.8260 </r>
       <r>    10.0854     0.5831     5.8672 </r>
       <r>    10.1563     0.5856     5.9086 </r>
       <r>    10.2272     0.5867     5.9502 </r>
       <r>    10.2981     0.5864     5.9918 </r>
       <r>    10.3690     0.5846     6.0333 </r>
       <r>    10.4398     0.5814     6.0747 </r>
       <r>    10.5107     0.5767     6.1157 </r>
       <r>    10.5816     0.5706     6.1564 </r>
       <r>    10.6525     0.5631     6.1966 </r>
       <r>    10.7234     0.5541     6.2362 </r>
       <r>    10.7943     0.5437     6.2751 </r>
       <r>    10.8652     0.5318     6.3132 </r>
       <r>    10.9361     0.5185     6.3505 </r>
       <r>    11.0070     0.5037     6.3867 </r>
       <r>    11.0779     0.4893     6.4219 </r>
       <r>    11.1488     0.5033     6.4568 </r>
       <r>    11.2197     0.5555     6.4941 </r>
       <r>    11.2906     0.6660     6.5459 </r>
       <r>    11.3615     0.3761     6.5763 </r>
       <r>    11.4324     0.3319     6.6009 </r>
       <r>    11.5033     0.3334     6.6245 </r>
       <r>    11.5741     0.3355     6.6482 </r>
       <r>    11.6450     0.3373     6.6720 </r>
       <r>    11.7159     0.3388     6.6960 </r>
       <r>    11.7868     0.6285     6.7216 </r>
       <r>    11.8577     1.0607     6.8070 </r>
       <r>    11.9286     0.7491     6.8639 </r>
       <r>    11.9995     0.6569     6.9137 </r>
       <r>    12.0704     0.5696     6.9572 </r>
       <r>    12.1413     0.4871     6.9946 </r>
       <r>    12.2122     0.4095     7.0264 </r>
       <r>    12.2831     0.3367     7.0528 </r>
       <r>    12.3540     1.8769     7.0989 </r>
       <r>    12.4249     2.1821     7.2541 </r>
       <r>    12.4958     1.9741     7.4029 </r>
       <r>    12.5667     1.5026     7.5277 </r>
       <r>    12.6376     1.2292     7.6204 </r>
       <r>    12.7084     1.1443     7.7047 </r>
       <r>    12.7793     1.0331     7.7820 </r>
       <r>    12.8502     0.8956     7.8505 </r>
       <r>    12.9211     0.7316     7.9084 </r>
       <r>    12.9920     0.5414     7.9536 </r>
       <r>    13.0629     0.3248     7.9845 </r>
       <r>    13.1338     0.0818     7.9991 </r>
       <r>    13.2047     0.0000     8.0000 </r>
       <r>    13.2756     0.0000     8.0000 </r>
       <r>    13.3465     0.0000     8.0000 </r>
       <r>    13.4174     0.0000     8.0000 </r>
       <r>    13.4883     0.0000     8.0000 </r>
       <r>    13.5592     0.0000     8.0000 </r>
       <r>    13.6301     0.0000     8.0000 </r>
       <r>    13.7010     0.0000     8.0000 </r>
       <r>    13.7718     0.0000     8.0000 </r>
       <r>    13.8427     0.0000     8.0000 </r>
       <r>    13.9136     0.0000     8.0000 </r>
       <r>    13.9845     0.0000     8.0000 </r>
       <r>    14.0554     0.0000     8.0000 </r>
       <r>    14.1263     0.0000     8.0000 </r>
      </set>
      <set comment="spin 2">
       <r>    -7.1418     0.0000     0.0000 </r>
       <r>    -7.0709     0.0000     0.0000 </r>
       <r>    -7.0000     0.0000     0.0000 </r>
       <r>    -6.9291     0.0000     0.0000 </r>
       <r>    -6.8582     0.0000     0.0000 </r>
       <r>    -6.7873     0.0000     0.0000 </r>
       <r>    -6.7164     0.0000     0.0000 </r>
       <r>    -6.6455     0.0000     0.0000 </r>
       <r>    -6.5746     0.0000     0.0000 </r>
       <r>    -6.5037     0.0000     0.0000 </r>
       <r>    -6.4328     0.0000     0.0000 </r>
       <r>    -6.3619     0.0000     0.0000 </r>
       <r>    -6.2910     0.0000     0.0000 </r>
       <r>    -6.2201     0.0000     0.0000 </r>
       <r>    -6.1492     0.0001     0.0000 </r>
       <r>    -6.0784     0.0013     0.0000 </r>
       <r>    -6.0075     0.0038     0.0002 </r>
       <r>    -5.9366     0.0078     0.0006 </r>
       <r>    -5.8657     0.0131     0.0014 </r>
       <r>    -5.7948     0.0198     0.0025 </r>
       <r>    -5.7239     0.0279     0.0042 </r>
       <r>    -5.6530     0.0374     0.0065 </r>
       <r>    -5.5821     0.0482     0.0095 </r>
       <r>    -5.5112     0.0604     0.0134 </r>
       <r>    -5.4403     0.0740     0.0181 </r>
       <r>    -5.3694     0.0890     0.0239 </r>
       <r>    -5.2985     0.1053     0.0308 </r>
       <r>    -5.2276     0.1231     0.0389 </r>
       <r>    -5.1567     0.1422     0.0483 </r>
       <r>    -5.0858     0.1626     0.0591 </r>
       <r>    -5.0150     0.1845     0.0713 </r>
       <r>    -4.9441     0.2077     0.0852 </r>
       <r>    -4.8732     0.2326     0.1008 </r>
       <r>    -4.8023     0.2549     0.1182 </r>
       <r>    -4.7314     0.2761     0.1370 </r>
       <r>    -4.6605     0.2983     0.1573 </r>
       <r>    -4.5896     0.3216     0.1793 </r>
       <r>    -4.5187     0.3459     0.2030 </r>
       <r>    -4.4478     0.3713     0.2284 </r>
       <r>    -4.3769     0.3976     0.2556 </r>
       <r>    -4.3060     0.4320     0.2849 </r>
       <r>    -4.2351     0.4732     0.3170 </r>
       <r>    -4.1642     0.5090     0.3519 </r>
       <r>    -4.0933     0.5392     0.3891 </r>
       <r>    -4.0224     0.5640     0.4282 </r>
       <r>    -3.9515     0.5833     0.4689 </r>
       <r>    -3.8807     0.5972     0.5108 </r>
       <r>    -3.8098     0.6056     0.5534 </r>
       <r>    -3.7389     0.6085     0.5965 </r>
       <r>    -3.6680     0.6059     0.6396 </r>
       <r>    -3.5971     0.5978     0.6823 </r>
       <r>    -3.5262     0.5843     0.7242 </r>
       <r>    -3.4553     0.5653     0.7650 </r>
       <r>    -3.3844     0.5408     0.8042 </r>
       <r>    -3.3135     0.5109     0.8416 </r>
       <r>    -3.2426     0.4755     0.8766 </r>
       <r>    -3.1717     0.4346     0.9088 </r>
       <r>    -3.1008     0.4099     0.9382 </r>
       <r>    -3.0299     0.6457     0.9859 </r>
       <r>    -2.9590     0.0212     0.9999 </r>
       <r>    -2.8881     0.0000     1.0000 </r>
       <r>    -2.8173     0.0000     1.0000 </r>
       <r>    -2.7464     0.0000     1.0000 </r>
       <r>    -2.6755     0.0000     1.0000 </r>
       <r>    -2.6046     0.0000     1.0000 </r>
       <r>    -2.5337     0.0000     1.0000 </r>
       <r>    -2.4628     0.0000     1.0000 </r>
       <r>    -2.3919     0.0000     1.0000 </r>
       <r>    -2.3210     0.0000     1.0000 </r>
       <r>    -2.2501     0.0000     1.0000 </r>
       <r>    -2.1792     0.0000     1.0000 </r>
       <r>    -2.1083     0.0000     1.0000 </r>
       <r>    -2.0374     0.0000     1.0000 </r>
       <r>    -1.9665     0.0000     1.0000 </r>
       <r>    -1.8956     0.0000     1.0000 </r>
       <r>    -1.8247     0.0000     1.0000 </r>
       <r>    -1.7538     0.0000     1.0000 </r>
       <r>    -1.6830     0.0000     1.0000 </r>
       <r>    -1.6121     0.0000     1.0000 </r>
       <r>    -1.5412     0.0000     1.0000 </r>
       <r>    -1.4703     0.0000     1.0000 </r>
       <r>    -1.3994     0.0000     1.0000 </r>
       <r>    -1.3285     0.0000     1.0000 </r>
       <r>    -1.2576     0.0000     1.0000 </r>
       <r>    -1.1867     0.1049     1.0009 </r>
       <r>    -1.1158     0.5864     1.0450 </r>
       <r>    -1.0449     0.3564     1.0691 </r>
       <r>    -0.9740     0.4152     1.0965 </r>
       <r>    -0.9031     0.4675     1.1279 </r>
       <r>    -0.8322     0.5134     1.1627 </r>
       <r>    -0.7613     0.5529     1.2005 </r>
       <r>    -0.6904     0.5859     1.2409 </r>
       <r>    -0.6196     0.6125     1.2834 </r>
       <r>    -0.5487     0.6326     1.3276 </r>
       <r>    -0.4778     0.6464     1.3730 </r>
       <r>    -0.4069     0.6536     1.4191 </r>
       <r>    -0.3360     0.6545     1.4655 </r>
       <r>    -0.2651     0.6489     1.5117 </r>
       <r>    -0.1942     0.6369     1.5573 </r>
       <r>    -0.1233     0.6185     1.6019 </r>
       <r>    -0.0524     0.5937     1.6449 </r>
       <r>     0.0185     0.5624     1.6859 </r>
       <r>     0.0894     0.5246     1.7245 </r>
       <r>     0.1603     0.4805     1.7601 </r>
       <r>     0.2312     0.4299     1.7924 </r>
       <r>     0.3021     0.3617     1.8208 </r>
       <r>     0.3730     0.2347     1.8419 </r>
       <r>     0.4439     0.1426     1.8550 </r>
       <r>     0.5147     0.0911     1.8631 </r>
       <r>     0.5856     0.0799     1.8689 </r>
       <r>     0.6565     0.0776     1.8745 </r>
       <r>     0.7274     0.0754     1.8799 </r>
       <r>     0.7983     0.0732     1.8852 </r>
       <r>     0.8692     0.0710     1.8903 </r>
       <r>     0.9401     0.0688     1.8953 </r>
       <r>     1.0110     0.0667     1.9001 </r>
       <r>     1.0819     0.0646     1.9047 </r>
       <r>     1.1528     0.0626     1.9092 </r>
       <r>     1.2237     0.0605     1.9136 </r>
       <r>     1.2946     0.8227     1.9594 </r>
       <r>     1.3655     0.3148     1.9812 </r>
       <r>     1.4364     0.3282     2.0040 </r>
       <r>     1.5073     0.3403     2.0277 </r>
       <r>     1.5782     0.3511     2.0522 </r>
       <r>     1.6490     0.3608     2.0775 </r>
       <r>     1.7199     0.3692     2.1034 </r>
       <r>     1.7908     0.3764     2.1298 </r>
       <r>     1.8617     0.3824     2.1567 </r>
       <r>     1.9326     0.3872     2.1840 </r>
       <r>     2.0035     0.3907     2.2116 </r>
       <r>     2.0744     0.3931     2.2394 </r>
       <r>     2.1453     0.3942     2.2673 </r>
       <r>     2.2162     0.3941     2.2952 </r>
       <r>     2.2871     0.3927     2.3231 </r>
       <r>     2.3580     0.3901     2.3509 </r>
       <r>     2.4289     0.3864     2.3784 </r>
       <r>     2.4998     0.3813     2.4056 </r>
       <r>     2.5707     0.3751     2.4325 </r>
       <r>     2.6416     0.3676     2.4588 </r>
       <r>     2.7124     0.3590     2.4846 </r>
       <r>     2.7833     0.3491     2.5097 </r>
       <r>     2.8542     0.3379     2.5340 </r>
       <r>     2.9251     0.3256     2.5576 </r>
       <r>     2.9960     0.3120     2.5802 </r>
       <r>     3.0669     0.2972     2.6018 </r>
       <r>     3.1378     0.2835     2.6223 </r>
       <r>     3.2087     0.3651     2.6432 </r>
       <r>     3.2796     0.6544     2.6789 </r>
       <r>     3.3505     1.3356     2.7489 </r>
       <r>     3.4214     2.0991     2.8706 </r>
       <r>     3.4923     1.7653     3.0377 </r>
       <r>     3.5632     0.9792     3.1196 </r>
       <r>     3.6341     0.9700     3.1887 </r>
       <r>     3.7050     0.9557     3.2570 </r>
       <r>     3.7759     0.9361     3.3241 </r>
       <r>     3.8467     0.9112     3.3896 </r>
       <r>     3.9176     0.8811     3.4532 </r>
       <r>     3.9885     0.8457     3.5144 </r>
       <r>     4.0594     0.8052     3.5730 </r>
       <r>     4.1303     0.7593     3.6285 </r>
       <r>     4.2012     0.7082     3.6805 </r>
       <r>     4.2721     0.6519     3.7288 </r>
       <r>     4.3430     0.5903     3.7728 </r>
       <r>     4.4139     0.5235     3.8123 </r>
       <r>     4.4848     0.4514     3.8469 </r>
       <r>     4.5557     0.3870     3.8765 </r>
       <r>     4.6266     0.3247     3.9016 </r>
       <r>     4.6975     0.2760     3.9229 </r>
       <r>     4.7684     0.2313     3.9408 </r>
       <r>     4.8393     0.1905     3.9558 </r>
       <r>     4.9101     0.1537     3.9679 </r>
       <r>     4.9810     0.1208     3.9777 </r>
       <r>     5.0519     0.0919     3.9852 </r>
       <r>     5.1228     0.0669     3.9908 </r>
       <r>     5.1937     0.0459     3.9948 </r>
       <r>     5.2646     0.0289     3.9974 </r>
       <r>     5.3355     0.0158     3.9989 </r>
       <r>     5.4064     0.0066     3.9997 </r>
       <r>     5.4773     0.0014     4.0000 </r>
       <r>     5.5482     0.0000     4.0000 </r>
       <r>     5.6191     0.0000     4.0000 </r>
       <r>     5.6900     0.0000     4.0000 </r>
       <r>     5.7609     0.0000     4.0000 </r>
       <r>     5.8318     0.0000     4.0000 </r>
       <r>     5.9027     0.0000     4.0000 </r>
       <r>     5.9736     0.0000     4.0000 </r>
       <r>     6.0444     0.0000     4.0000 </r>
       <r>     6.1153     0.0000     4.0000 </r>
       <r>     6.1862     0.0000     4.0000 </r>
       <r>     6.2571     0.0000     4.0000 </r>
       <r>     6.3280     0.0428     4.0011 </r>
       <r>     6.3989     0.1243     4.0068 </r>
       <r>     6.4698     0.2333     4.0193 </r>
       <r>     6.5407     0.3697     4.0405 </r>
       <r>     6.6116     0.5337     4.0724 </r>
       <r>     6.6825     0.7252     4.1169 </r>
       <r>     6.7534     0.9442     4.1759 </r>
       <r>     6.8243     1.1907     4.2514 </r>
       <r>     6.8952     1.4647     4.3454 </r>
       <r>     6.9661     1.7663     4.4597 </r>
       <r>     7.0370     2.9464     4.6049 </r>
       <r>     7.1079     1.9743     4.8072 </r>
       <r>     7.1787     1.5037     4.9066 </r>
       <r>     7.2496     0.2003     4.9575 </r>
       <r>     7.3205     0.1582     4.9702 </r>
       <r>     7.3914     0.1210     4.9801 </r>
       <r>     7.4623     0.0888     4.9875 </r>
       <r>     7.5332     0.0616     4.9928 </r>
       <r>     7.6041     0.0449     4.9965 </r>
       <r>     7.6750     0.0401     4.9994 </r>
       <r>     7.7459     0.0472     5.0024 </r>
       <r>     7.8168     0.0662     5.0064 </r>
       <r>     7.8877     0.0970     5.0121 </r>
       <r>     7.9586     0.1370     5.0203 </r>
       <r>     8.0295     0.1768     5.0315 </r>
       <r>     8.1004     0.2114     5.0453 </r>
       <r>     8.1713     0.2410     5.0614 </r>
       <r>     8.2421     0.2660     5.0794 </r>
       <r>     8.3130     0.2871     5.0990 </r>
       <r>     8.3839     0.3045     5.1200 </r>
       <r>     8.4548     0.3180     5.1421 </r>
       <r>     8.5257     0.3278     5.1650 </r>
       <r>     8.5966     0.3337     5.1884 </r>
       <r>     8.6675     0.3359     5.2122 </r>
       <r>     8.7384     0.3343     5.2360 </r>
       <r>     8.8093     0.3290     5.2595 </r>
       <r>     8.8802     0.3202     5.2825 </r>
       <r>     8.9511     0.3397     5.3057 </r>
       <r>     9.0220     0.3688     5.3309 </r>
       <r>     9.0929     0.3959     5.3580 </r>
       <r>     9.1638     0.4186     5.3869 </r>
       <r>     9.2347     0.4399     5.4173 </r>
       <r>     9.3056     0.4598     5.4492 </r>
       <r>     9.3764     0.4782     5.4825 </r>
       <r>     9.4473     0.4952     5.5170 </r>
       <r>     9.5182     0.5107     5.5527 </r>
       <r>     9.5891     0.5248     5.5894 </r>
       <r>     9.6600     0.5375     5.6271 </r>
       <r>     9.7309     0.5487     5.6656 </r>
       <r>     9.8018     0.5584     5.7048 </r>
       <r>     9.8727     0.5668     5.7447 </r>
       <r>     9.9436     0.5736     5.7851 </r>
       <r>    10.0145     0.5791     5.8260 </r>
       <r>    10.0854     0.5831     5.8672 </r>
       <r>    10.1563     0.5856     5.9086 </r>
       <r>    10.2272     0.5867     5.9502 </r>
       <r>    10.2981     0.5864     5.9918 </r>
       <r>    10.3690     0.5846     6.0333 </r>
       <r>    10.4398     0.5814     6.0747 </r>
       <r>    10.5107     0.5767     6.1157 </r>
       <r>    10.5816     0.5706     6.1564 </r>
       <r>    10.6525     0.5631     6.1966 </r>
       <r>    10.7234     0.5541     6.2362 </r>
       <r>    10.7943     0.5437     6.2751 </r>
       <r>    10.8652     0.5318     6.3132 </r>
       <r>    10.9361     0.5185     6.3505 </r>
       <r>    11.0070     0.5037     6.3867 </r>
       <r>    11.0779     0.4893     6.4219 </r>
       <r>    11.1488     0.5033     6.4568 </r>
       <r>    11.2197     0.5555     6.4941 </r>
       <r>    11.2906     0.6660     6.5459 </r>
       <r>    11.3615     0.3761     6.5763 </r>
       <r>    11.4324     0.3319     6.6009 </r>
       <r>    11.5033     0.3334     6.6245 </r>
       <r>    11.5741     0.3355     6.6482 </r>
       <r>    11.6450     0.3373     6.6720 </r>
       <r>    11.7159     0.3388     6.6960 </r>
       <r>    11.7868     0.6286     6.7216 </r>
       <r>    11.8577     1.0607     6.8070 </r>
       <r>    11.9286     0.7490     6.8639 </r>
       <r>    11.9995     0.6569     6.9137 </r>
       <r>    12.0704     0.5696     6.9572 </r>
       <r>    12.1413     0.4871     6.9946 </r>
       <r>    12.2122     0.4095     7.0264 </r>
       <r>    12.2831     0.3367     7.0528 </r>
       <r>    12.3540     1.8768     7.0989 </r>
       <r>    12.4249     2.1821     7.2541 </r>
       <r>    12.4958     1.9741     7.4029 </r>
       <r>    12.5667     1.5026     7.5277 </r>
       <r>    12.6376     1.2292     7.6204 </r>
       <r>    12.7084     1.1443     7.7047 </r>
       <r>    12.7793     1.0331     7.7820 </r>
       <r>    12.8502     0.8956     7.8505 </r>
       <r>    12.9211     0.7316     7.9084 </r>
       <r>    12.9920     0.5414     7.9536 </r>
       <r>    13.0629     0.3248     7.9845 </r>
       <r>    13.1338     0.0818     7.9991 </r>
       <r>    13.2047     0.0000     8.0000 </r>
       <r>    13.2756     0.0000     8.0000 </r>
       <r>    13.3465     0.0000     8.0000 </r>
       <r>    13.4174     0.0000     8.0000 </r>
       <r>    13.4883     0.0000     8.0000 </r>
       <r>    13.5592     0.0000     8.0000 </r>
       <r>    13.6301     0.0000     8.0000 </r>
       <r>    13.7010     0.0000     8.0000 </r>
       <r>    13.7718     0.0000     8.0000 </r>
       <r>    13.8427     0.0000     8.0000 </r>
       <r>    13.9136     0.0000     8.0000 </r>
       <r>    13.9845     0.0000     8.0000 </r>
       <r>    14.0554     0.0000     8.0000 </r>
       <r>    14.1263     0.0000     8.0000 </r>
      </set>
     </set>
    </array>
   </total>
   <partial>
    <array>
     <dimension dim="1">gridpoints</dimension>
     <dimension dim="2">spin</dimension>
     <dimension dim="3">ion</dimension>
     <field>energy</field>
     <field>    s</field>
     <field>   py</field>
     <field>   pz</field>
     <field>   px</field>
     <field>  dxy</field>
     <field>  dyz</field>
     <field>  dz2</field>
     <field>  dxz</field>
     <field>x2-y2</field>
     <set>
      <set comment="ion 1">
       <set comment="spin 1">
        <r>    -7.1418     0.0000     0.0000     0.0000     0.0000     0.0000     0.0000     0.0000     0.0000     0.0000 </r>
        <r>    -7.0709     0.0000     0.0000     0.0000     0.0000     0.0000     0.0000     0.0000     0.0000     0.0000 </r>
        <r>    -7.0000     0.0000     0.0000     0.0000     0.0000     0.0000     0.0000     0.0000     0.0000     0.0000 </r>
        <r>    -6.9291     0.0000     0.0000     0.0000     0.0000     0.0000     0.0000     0.0000     0.0000     0.0000 </r>
        <r>    -6.8582     0.0000     0.0000     0.0000     0.0000     0.0000     0.0000     0.0000     0.0000     0.0000 </r>
        <r>    -6.7873     0.0000     0.0000     0.0000     0.0000     0.0000     0.0000     0.0000     0.0000     0.0000 </r>
        <r>    -6.7164     0.0000     0.0000     0.0000     0.0000     0.0000     0.0000     0.0000     0.0000     0.0000 </r>
        <r>    -6.6455     0.0000     0.0000     0.0000     0.0000     0.0000     0.0000     0.0000     0.0000     0.0000 </r>
        <r>    -6.5746     0.0000     0.0000     0.0000     0.0000     0.0000     0.0000     0.0000     0.0000     0.0000 </r>
        <r>    -6.5037     0.0000     0.0000     0.0000     0.0000     0.0000     0.0000     0.0000     0.0000     0.0000 </r>
        <r>    -6.4328     0.0000     0.0000     0.0000     0.0000     0.0000     0.0000     0.0000     0.0000     0.0000 </r>
        <r>    -6.3619     0.0000     0.0000     0.0000     0.0000     0.0000     0.0000     0.0000     0.0000     0.0000 </r>
        <r>    -6.2910     0.0000     0.0000     0.0000     0.0000     0.0000     0.0000     0.0000     0.0000     0.0000 </r>
        <r>    -6.2201     0.0000     0.0000     0.0000     0.0000     0.0000     0.0000     0.0000     0.0000     0.0000 </r>
        <r>    -6.1492     0.0000     0.0000     0.0000     0.0000     0.0000     0.0000     0.0000     0.0000     0.0000 </r>
        <r>    -6.0784     0.0003     0.0000     0.0000     0.0000     0.0000     0.0000     0.0000     0.0000     0.0000 </r>
        <r>    -6.0075     0.0008     0.0000     0.0000     0.0000     0.0000     0.0000     0.0000     0.0000     0.0000 </r>
        <r>    -5.9366     0.0016     0.0000     0.0000     0.0000     0.0000     0.0000     0.0000     0.0000     0.0000 </r>
        <r>    -5.8657     0.0027     0.0000     0.0000     0.0000     0.0000     0.0000     0.0000     0.0000     0.0000 </r>
        <r>    -5.7948     0.0041     0.0001     0.0001     0.0001     0.0000     0.0000     0.0000     0.0000     0.0000 </r>
        <r>    -5.7239     0.0058     0.0001     0.0001     0.0001     0.0000     0.0000     0.0000     0.0000     0.0000 </r>
        <r>    -5.6530     0.0077     0.0001     0.0001     0.0001     0.0000     0.0000     0.0000     0.0000     0.0000 </r>
        <r>    -5.5821     0.0100     0.0002     0.0002     0.0002     0.0000     0.0000     0.0000     0.0000     0.0000 </r>
        <r>    -5.5112     0.0125     0.0002     0.0002     0.0002     0.0000     0.0000     0.0000     0.0000     0.0000 </r>
        <r>    -5.4403     0.0153     0.0003     0.0003     0.0003     0.0000     0.0000     0.0000     0.0000     0.0000 </r>
        <r>    -5.3694     0.0184     0.0003     0.0003     0.0003     0.0000     0.0000     0.0000     0.0000     0.0000 </r>
        <r>    -5.2985     0.0218     0.0004     0.0004     0.0004     0.0000     0.0000     0.0000     0.0000     0.0000 </r>
        <r>    -5.2276     0.0255     0.0004     0.0004     0.0004     0.0000     0.0000     0.0000     0.0000     0.0000 </r>
        <r>    -5.1567     0.0294     0.0005     0.0005     0.0005     0.0000     0.0000     0.0000     0.0000     0.0000 </r>
        <r>    -5.0858     0.0337     0.0006     0.0006     0.0006     0.0000     0.0000     0.0000     0.0000     0.0000 </r>
        <r>    -5.0150     0.0382     0.0007     0.0007     0.0007     0.0000     0.0000     0.0000     0.0000     0.0000 </r>
        <r>    -4.9441     0.0430     0.0007     0.0007     0.0007     0.0000     0.0000     0.0000     0.0000     0.0000 </r>
        <r>    -4.8732     0.0481     0.0008     0.0008     0.0008     0.0000     0.0000     0.0000     0.0000     0.0000 </r>
        <r>    -4.8023     0.0528     0.0010     0.0010     0.0010     0.0000     0.0000     0.0000     0.0000     0.0000 </r>
        <r>    -4.7314     0.0573     0.0013     0.0013     0.0013     0.0000     0.0000     0.0000     0.0000     0.0000 </r>
        <r>    -4.6605     0.0620     0.0016     0.0016     0.0016     0.0000     0.0000     0.0000     0.0000     0.0000 </r>
        <r>    -4.5896     0.0669     0.0018     0.0018     0.0018     0.0000     0.0000     0.0000     0.0000     0.0000 </r>
        <r>    -4.5187     0.0720     0.0020     0.0020     0.0020     0.0000     0.0000     0.0000     0.0000     0.0000 </r>
        <r>    -4.4478     0.0773     0.0023     0.0023     0.0023     0.0000     0.0000     0.0000     0.0000     0.0000 </r>
        <r>    -4.3769     0.0828     0.0025     0.0025     0.0025     0.0000     0.0000     0.0000     0.0000     0.0000 </r>
        <r>    -4.3060     0.0900     0.0027     0.0027     0.0028     0.0000     0.0000     0.0000     0.0000     0.0000 </r>
        <r>    -4.2351     0.0986     0.0031     0.0031     0.0031     0.0000     0.0000     0.0000     0.0000     0.0000 </r>
        <r>    -4.1642     0.1061     0.0033     0.0033     0.0034     0.0000     0.0000     0.0000     0.0000     0.0000 </r>
        <r>    -4.0933     0.1124     0.0036     0.0036     0.0036     0.0000     0.0000     0.0000     0.0000     0.0000 </r>
        <r>    -4.0224     0.1176     0.0038     0.0038     0.0038     0.0000     0.0000     0.0000     0.0000     0.0000 </r>
        <r>    -3.9515     0.1216     0.0040     0.0040     0.0040     0.0000     0.0000     0.0000     0.0000     0.0000 </r>
        <r>    -3.8807     0.1245     0.0041     0.0041     0.0041     0.0000     0.0000     0.0000     0.0000     0.0000 </r>
        <r>    -3.8098     0.1262     0.0042     0.0042     0.0042     0.0000     0.0000     0.0000     0.0000     0.0000 </r>
        <r>    -3.7389     0.1269     0.0042     0.0042     0.0042     0.0000     0.0000     0.0000     0.0000     0.0000 </r>
        <r>    -3.6680     0.1263     0.0043     0.0043     0.0043     0.0000     0.0000     0.0000     0.0000     0.0000 </r>
        <r>    -3.5971     0.1247     0.0042     0.0042     0.0042     0.0000     0.0000     0.0000     0.0000     0.0000 </r>
        <r>    -3.5262     0.1219     0.0042     0.0042     0.0042     0.0000     0.0000     0.0000     0.0000     0.0000 </r>
        <r>    -3.4553     0.1179     0.0041     0.0041     0.0041     0.0000     0.0000     0.0000     0.0000     0.0000 </r>
        <r>    -3.3844     0.1129     0.0040     0.0040     0.0040     0.0000     0.0000     0.0000     0.0000     0.0000 </r>
        <r>    -3.3135     0.1066     0.0038     0.0038     0.0038     0.0000     0.0000     0.0000     0.0000     0.0000 </r>
        <r>    -3.2426     0.0993     0.0036     0.0036     0.0036     0.0000     0.0000     0.0000     0.0000     0.0000 </r>
        <r>    -3.1717     0.0908     0.0034     0.0034     0.0033     0.0000     0.0000     0.0000     0.0000     0.0000 </r>
        <r>    -3.1008     0.0858     0.0033     0.0033     0.0033     0.0000     0.0000     0.0000     0.0000     0.0000 </r>
        <r>    -3.0299     0.1365     0.0055     0.0055     0.0057     0.0000     0.0000     0.0000     0.0000     0.0000 </r>
        <r>    -2.9590     0.0045     0.0002     0.0002     0.0002     0.0000     0.0000     0.0000     0.0000     0.0000 </r>
        <r>    -2.8881     0.0000     0.0000     0.0000     0.0000     0.0000     0.0000     0.0000     0.0000     0.0000 </r>
        <r>    -2.8173     0.0000     0.0000     0.0000     0.0000     0.0000     0.0000     0.0000     0.0000     0.0000 </r>
        <r>    -2.7464     0.0000     0.0000     0.0000     0.0000     0.0000     0.0000     0.0000     0.0000     0.0000 </r>
        <r>    -2.6755     0.0000     0.0000     0.0000     0.0000     0.0000     0.0000     0.0000     0.0000     0.0000 </r>
        <r>    -2.6046     0.0000     0.0000     0.0000     0.0000     0.0000     0.0000     0.0000     0.0000     0.0000 </r>
        <r>    -2.5337     0.0000     0.0000     0.0000     0.0000     0.0000     0.0000     0.0000     0.0000     0.0000 </r>
        <r>    -2.4628     0.0000     0.0000     0.0000     0.0000     0.0000     0.0000     0.0000     0.0000     0.0000 </r>
        <r>    -2.3919     0.0000     0.0000     0.0000     0.0000     0.0000     0.0000     0.0000     0.0000     0.0000 </r>
        <r>    -2.3210     0.0000     0.0000     0.0000     0.0000     0.0000     0.0000     0.0000     0.0000     0.0000 </r>
        <r>    -2.2501     0.0000     0.0000     0.0000     0.0000     0.0000     0.0000     0.0000     0.0000     0.0000 </r>
        <r>    -2.1792     0.0000     0.0000     0.0000     0.0000     0.0000     0.0000     0.0000     0.0000     0.0000 </r>
        <r>    -2.1083     0.0000     0.0000     0.0000     0.0000     0.0000     0.0000     0.0000     0.0000     0.0000 </r>
        <r>    -2.0374     0.0000     0.0000     0.0000     0.0000     0.0000     0.0000     0.0000     0.0000     0.0000 </r>
        <r>    -1.9665     0.0000     0.0000     0.0000     0.0000     0.0000     0.0000     0.0000     0.0000     0.0000 </r>
        <r>    -1.8956     0.0000     0.0000     0.0000     0.0000     0.0000     0.0000     0.0000     0.0000     0.0000 </r>
        <r>    -1.8247     0.0000     0.0000     0.0000     0.0000     0.0000     0.0000     0.0000     0.0000     0.0000 </r>
        <r>    -1.7538     0.0000     0.0000     0.0000     0.0000     0.0000     0.0000     0.0000     0.0000     0.0000 </r>
        <r>    -1.6830     0.0000     0.0000     0.0000     0.0000     0.0000     0.0000     0.0000     0.0000     0.0000 </r>
        <r>    -1.6121     0.0000     0.0000     0.0000     0.0000     0.0000     0.0000     0.0000     0.0000     0.0000 </r>
        <r>    -1.5412     0.0000     0.0000     0.0000     0.0000     0.0000     0.0000     0.0000     0.0000     0.0000 </r>
        <r>    -1.4703     0.0000     0.0000     0.0000     0.0000     0.0000     0.0000     0.0000     0.0000     0.0000 </r>
        <r>    -1.3994     0.0000     0.0000     0.0000     0.0000     0.0000     0.0000     0.0000     0.0000     0.0000 </r>
        <r>    -1.3285     0.0000     0.0000     0.0000     0.0000     0.0000     0.0000     0.0000     0.0000     0.0000 </r>
        <r>    -1.2576     0.0000     0.0000     0.0000     0.0000     0.0000     0.0000     0.0000     0.0000     0.0000 </r>
        <r>    -1.1867     0.0184     0.0018     0.0018     0.0027     0.0000     0.0000     0.0000     0.0000     0.0000 </r>
        <r>    -1.1158     0.1024     0.0126     0.0126     0.0108     0.0000     0.0000     0.0000     0.0000     0.0000 </r>
        <r>    -1.0449     0.0602     0.0079     0.0079     0.0079     0.0000     0.0000     0.0000     0.0000     0.0000 </r>
        <r>    -0.9740     0.0688     0.0095     0.0095     0.0094     0.0000     0.0000     0.0000     0.0000     0.0000 </r>
        <r>    -0.9031     0.0765     0.0108     0.0108     0.0108     0.0000     0.0000     0.0000     0.0000     0.0000 </r>
        <r>    -0.8322     0.0832     0.0120     0.0120     0.0120     0.0000     0.0000     0.0000     0.0000     0.0000 </r>
        <r>    -0.7613     0.0889     0.0131     0.0131     0.0131     0.0000     0.0000     0.0000     0.0000     0.0000 </r>
        <r>    -0.6904     0.0936     0.0140     0.0140     0.0140     0.0000     0.0000     0.0000     0.0000     0.0000 </r>
        <r>    -0.6196     0.0973     0.0147     0.0147     0.0147     0.0000     0.0000     0.0000     0.0000     0.0000 </r>
        <r>    -0.5487     0.1000     0.0153     0.0153     0.0153     0.0000     0.0000     0.0000     0.0000     0.0000 </r>
        <r>    -0.4778     0.1018     0.0157     0.0157     0.0157     0.0000     0.0000     0.0000     0.0000     0.0000 </r>
        <r>    -0.4069     0.1025     0.0160     0.0160     0.0160     0.0000     0.0000     0.0000     0.0000     0.0000 </r>
        <r>    -0.3360     0.1022     0.0161     0.0161     0.0161     0.0000     0.0000     0.0000     0.0000     0.0000 </r>
        <r>    -0.2651     0.1010     0.0160     0.0160     0.0160     0.0000     0.0000     0.0000     0.0000     0.0000 </r>
        <r>    -0.1942     0.0988     0.0158     0.0158     0.0158     0.0000     0.0000     0.0000     0.0000     0.0000 </r>
        <r>    -0.1233     0.0955     0.0154     0.0154     0.0154     0.0000     0.0000     0.0000     0.0000     0.0000 </r>
        <r>    -0.0524     0.0913     0.0149     0.0149     0.0149     0.0000     0.0000     0.0000     0.0000     0.0000 </r>
        <r>     0.0185     0.0861     0.0142     0.0142     0.0142     0.0000     0.0000     0.0000     0.0000     0.0000 </r>
        <r>     0.0894     0.0799     0.0133     0.0133     0.0133     0.0000     0.0000     0.0000     0.0000     0.0000 </r>
        <r>     0.1603     0.0727     0.0123     0.0123     0.0123     0.0000     0.0000     0.0000     0.0000     0.0000 </r>
        <r>     0.2312     0.0645     0.0112     0.0112     0.0111     0.0000     0.0000     0.0000     0.0000     0.0000 </r>
        <r>     0.3021     0.0535     0.0097     0.0097     0.0095     0.0000     0.0000     0.0000     0.0000     0.0000 </r>
        <r>     0.3730     0.0329     0.0071     0.0071     0.0060     0.0000     0.0000     0.0000     0.0000     0.0000 </r>
        <r>     0.4439     0.0179     0.0053     0.0053     0.0034     0.0000     0.0000     0.0000     0.0000     0.0000 </r>
        <r>     0.5147     0.0095     0.0042     0.0042     0.0021     0.0000     0.0000     0.0000     0.0000     0.0000 </r>
        <r>     0.5856     0.0078     0.0039     0.0039     0.0018     0.0000     0.0000     0.0000     0.0000     0.0000 </r>
        <r>     0.6565     0.0076     0.0038     0.0038     0.0018     0.0000     0.0000     0.0000     0.0000     0.0000 </r>
        <r>     0.7274     0.0074     0.0037     0.0037     0.0017     0.0000     0.0000     0.0000     0.0000     0.0000 </r>
        <r>     0.7983     0.0071     0.0036     0.0036     0.0017     0.0000     0.0000     0.0000     0.0000     0.0000 </r>
        <r>     0.8692     0.0069     0.0034     0.0034     0.0016     0.0000     0.0000     0.0000     0.0000     0.0000 </r>
        <r>     0.9401     0.0067     0.0033     0.0033     0.0016     0.0000     0.0000     0.0000     0.0000     0.0000 </r>
        <r>     1.0110     0.0065     0.0032     0.0032     0.0015     0.0000     0.0000     0.0000     0.0000     0.0000 </r>
        <r>     1.0819     0.0063     0.0031     0.0031     0.0015     0.0000     0.0000     0.0000     0.0000     0.0000 </r>
        <r>     1.1528     0.0061     0.0030     0.0030     0.0014     0.0000     0.0000     0.0000     0.0000     0.0000 </r>
        <r>     1.2237     0.0059     0.0029     0.0029     0.0014     0.0000     0.0000     0.0000     0.0000     0.0000 </r>
        <r>     1.2946     0.0081     0.0419     0.0419     0.0395     0.0000     0.0000     0.0000     0.0000     0.0000 </r>
        <r>     1.3655     0.0061     0.0167     0.0167     0.0151     0.0000     0.0000     0.0000     0.0000     0.0000 </r>
        <r>     1.4364     0.0060     0.0174     0.0174     0.0165     0.0000     0.0000     0.0000     0.0000     0.0000 </r>
        <r>     1.5073     0.0058     0.0179     0.0179     0.0178     0.0000     0.0000     0.0000     0.0000     0.0000 </r>
        <r>     1.5782     0.0056     0.0184     0.0184     0.0190     0.0000     0.0000     0.0000     0.0000     0.0000 </r>
        <r>     1.6490     0.0054     0.0189     0.0189     0.0202     0.0000     0.0000     0.0000     0.0000     0.0000 </r>
        <r>     1.7199     0.0053     0.0193     0.0193     0.0212     0.0000     0.0000     0.0000     0.0000     0.0000 </r>
        <r>     1.7908     0.0051     0.0196     0.0196     0.0221     0.0000     0.0000     0.0000     0.0000     0.0000 </r>
        <r>     1.8617     0.0049     0.0198     0.0198     0.0230     0.0000     0.0000     0.0000     0.0000     0.0000 </r>
        <r>     1.9326     0.0048     0.0200     0.0200     0.0238     0.0000     0.0000     0.0000     0.0000     0.0000 </r>
        <r>     2.0035     0.0046     0.0202     0.0202     0.0244     0.0000     0.0000     0.0000     0.0000     0.0000 </r>
        <r>     2.0744     0.0044     0.0202     0.0202     0.0250     0.0000     0.0000     0.0000     0.0000     0.0000 </r>
        <r>     2.1453     0.0043     0.0202     0.0202     0.0255     0.0000     0.0000     0.0000     0.0000     0.0000 </r>
        <r>     2.2162     0.0041     0.0201     0.0201     0.0259     0.0000     0.0000     0.0000     0.0000     0.0000 </r>
        <r>     2.2871     0.0040     0.0200     0.0200     0.0262     0.0000     0.0000     0.0000     0.0000     0.0000 </r>
        <r>     2.3580     0.0038     0.0198     0.0198     0.0264     0.0000     0.0000     0.0000     0.0000     0.0000 </r>
        <r>     2.4289     0.0037     0.0196     0.0195     0.0266     0.0000     0.0000     0.0000     0.0000     0.0000 </r>
        <r>     2.4998     0.0035     0.0192     0.0192     0.0266     0.0000     0.0000     0.0000     0.0000     0.0000 </r>
        <r>     2.5707     0.0033     0.0188     0.0188     0.0265     0.0000     0.0000     0.0000     0.0000     0.0000 </r>
[...]
       </set>
       <set comment="band 5">
        <r>  0.0488  0.0000  0.0000  0.0590  0.0000  0.0000  0.0000  0.0000  0.0000 </r>
        <r>  0.0488  0.0000  0.0000  0.0590  0.0000  0.0000  0.0000  0.0000  0.0000 </r>
       </set>
       <set comment="band 6">
        <r>  0.0452  0.0000  0.0000  0.0338  0.0000  0.0000  0.0000  0.0000  0.0000 </r>
        <r>  0.0452  0.0000  0.0000  0.0338  0.0000  0.0000  0.0000  0.0000  0.0000 </r>
       </set>
       <set comment="band 7">
        <r>  0.0000  0.0846  0.0813  0.0000  0.0000  0.0000  0.0000  0.0000  0.0000 </r>
        <r>  0.0000  0.0846  0.0813  0.0000  0.0000  0.0000  0.0000  0.0000  0.0000 </r>
       </set>
       <set comment="band 8">
        <r>  0.0000  0.0821  0.0854  0.0000  0.0000  0.0000  0.0000  0.0000  0.0000 </r>
        <r>  0.0000  0.0821  0.0854  0.0000  0.0000  0.0000  0.0000  0.0000  0.0000 </r>
       </set>
      </set>
      <set comment="kpoint 7">
       <set comment="band 1">
        <r>  0.2111  0.0075  0.0078  0.0111  0.0000  0.0000  0.0000  0.0000  0.0000 </r>
        <r>  0.2111  0.0075  0.0078  0.0111  0.0000  0.0000  0.0000  0.0000  0.0000 </r>
       </set>
       <set comment="band 2">
        <r>  0.1785  0.0096  0.0100  0.0396  0.0000  0.0000  0.0000  0.0000  0.0000 </r>
        <r>  0.1785  0.0096  0.0100  0.0396  0.0000  0.0000  0.0000  0.0000  0.0000 </r>
       </set>
       <set comment="band 3">
        <r>  0.0033  0.0446  0.0465  0.0580  0.0000  0.0000  0.0000  0.0000  0.0000 </r>
        <r>  0.0033  0.0446  0.0465  0.0580  0.0000  0.0000  0.0000  0.0000  0.0000 </r>
       </set>
       <set comment="band 4">
        <r>  0.0000  0.0994  0.0955  0.0000  0.0000  0.0000  0.0000  0.0000  0.0000 </r>
        <r>  0.0000  0.0994  0.0955  0.0000  0.0000  0.0000  0.0000  0.0000  0.0000 </r>
       </set>
       <set comment="band 5">
        <r>  0.0532  0.0009  0.0009  0.0472  0.0000  0.0000  0.0000  0.0000  0.0000 </r>
        <r>  0.0532  0.0009  0.0009  0.0472  0.0000  0.0000  0.0000  0.0000  0.0000 </r>
       </set>
       <set comment="band 6">
        <r>  0.0040  0.0349  0.0363  0.0000  0.0000  0.0000  0.0000  0.0000  0.0000 </r>
        <r>  0.0040  0.0349  0.0363  0.0000  0.0000  0.0000  0.0000  0.0000  0.0000 </r>
       </set>
       <set comment="band 7">
        <r>  0.0000  0.0772  0.0742  0.0000  0.0000  0.0000  0.0000  0.0000  0.0000 </r>
        <r>  0.0000  0.0772  0.0742  0.0000  0.0000  0.0000  0.0000  0.0000  0.0000 </r>
       </set>
       <set comment="band 8">
        <r>  0.0470  0.0060  0.0063  0.1242  0.0000  0.0000  0.0000  0.0000  0.0000 </r>
        <r>  0.0471  0.0060  0.0063  0.1241  0.0000  0.0000  0.0000  0.0000  0.0000 </r>
       </set>
      </set>
      <set comment="kpoint 8">
       <set comment="band 1">
        <r>  0.2126  0.0071  0.0068  0.0119  0.0000  0.0000  0.0000  0.0000  0.0000 </r>
        <r>  0.2126  0.0071  0.0068  0.0119  0.0000  0.0000  0.0000  0.0000  0.0000 </r>
       </set>
       <set comment="band 2">
        <r>  0.1738  0.0093  0.0090  0.0405  0.0000  0.0000  0.0000  0.0000  0.0000 </r>
        <r>  0.1738  0.0093  0.0090  0.0405  0.0000  0.0000  0.0000  0.0000  0.0000 </r>
       </set>
       <set comment="band 3">
        <r>  0.0033  0.0463  0.0445  0.0570  0.0000  0.0000  0.0000  0.0000  0.0000 </r>
        <r>  0.0033  0.0463  0.0445  0.0570  0.0000  0.0000  0.0000  0.0000  0.0000 </r>
       </set>
       <set comment="band 4">
        <r>  0.0000  0.0983  0.1023  0.0000  0.0000  0.0000  0.0000  0.0000  0.0000 </r>
        <r>  0.0000  0.0983  0.1023  0.0000  0.0000  0.0000  0.0000  0.0000  0.0000 </r>
       </set>
       <set comment="band 5">
        <r>  0.0551  0.0012  0.0012  0.0441  0.0000  0.0000  0.0000  0.0000  0.0000 </r>
        <r>  0.0551  0.0012  0.0012  0.0441  0.0000  0.0000  0.0000  0.0000  0.0000 </r>
       </set>
       <set comment="band 6">
        <r>  0.0124  0.0400  0.0385  0.0069  0.0000  0.0000  0.0000  0.0000  0.0000 </r>
        <r>  0.0124  0.0400  0.0385  0.0069  0.0000  0.0000  0.0000  0.0000  0.0000 </r>
       </set>
       <set comment="band 7">
        <r>  0.0000  0.0755  0.0786  0.0000  0.0000  0.0000  0.0000  0.0000  0.0000 </r>
        <r>  0.0000  0.0755  0.0786  0.0000  0.0000  0.0000  0.0000  0.0000  0.0000 </r>
       </set>
       <set comment="band 8">
        <r>  0.0385  0.0016  0.0015  0.1207  0.0000  0.0000  0.0000  0.0000  0.0000 </r>
        <r>  0.0385  0.0016  0.0015  0.1207  0.0000  0.0000  0.0000  0.0000  0.0000 </r>
       </set>
      </set>
     </set>
     <set comment="spin2">
      <set comment="kpoint 1">
       <set comment="band 1">
        <r>  0.2099  0.0000  0.0000  0.0000  0.0000  0.0000  0.0000  0.0000  0.0000 </r>
        <r>  0.2099  0.0000  0.0000  0.0000  0.0000  0.0000  0.0000  0.0000  0.0000 </r>
       </set>
       <set comment="band 2">
        <r>  0.0000  0.1058  0.1017  0.0000  0.0000  0.0000  0.0000  0.0000  0.0000 </r>
        <r>  0.0000  0.1058  0.1017  0.0000  0.0000  0.0000  0.0000  0.0000  0.0000 </r>
       </set>
       <set comment="band 3">
        <r>  0.0000  0.0000  0.0000  0.2111  0.0000  0.0000  0.0000  0.0000  0.0000 </r>
        <r>  0.0000  0.0000  0.0000  0.2111  0.0000  0.0000  0.0000  0.0000  0.0000 </r>
       </set>
       <set comment="band 4">
        <r>  0.0000  0.1053  0.1096  0.0000  0.0000  0.0000  0.0000  0.0000  0.0000 </r>
        <r>  0.0000  0.1053  0.1096  0.0000  0.0000  0.0000  0.0000  0.0000  0.0000 </r>
       </set>
       <set comment="band 5">
        <r>  0.0000  0.0758  0.0728  0.0000  0.0000  0.0000  0.0000  0.0000  0.0000 </r>
        <r>  0.0000  0.0758  0.0728  0.0000  0.0000  0.0000  0.0000  0.0000  0.0000 </r>
       </set>
       <set comment="band 6">
        <r>  0.0494  0.0000  0.0000  0.1289  0.0000  0.0000  0.0000  0.0000  0.0000 </r>
        <r>  0.0494  0.0000  0.0000  0.1289  0.0000  0.0000  0.0000  0.0000  0.0000 </r>
       </set>
       <set comment="band 7">
        <r>  0.0000  0.0735  0.0765  0.0000  0.0000  0.0000  0.0000  0.0000  0.0000 </r>
        <r>  0.0000  0.0735  0.0765  0.0000  0.0000  0.0000  0.0000  0.0000  0.0000 </r>
       </set>
       <set comment="band 8">
        <r>  0.3083  0.0000  0.0000  0.0203  0.0000  0.0000  0.0000  0.0000  0.0000 </r>
        <r>  0.3083  0.0000  0.0000  0.0203  0.0000  0.0000  0.0000  0.0000  0.0000 </r>
       </set>
      </set>
      <set comment="kpoint 2">
       <set comment="band 1">
        <r>  0.2076  0.0041  0.0043  0.0038  0.0000  0.0000  0.0000  0.0000  0.0000 </r>
        <r>  0.2076  0.0041  0.0043  0.0038  0.0000  0.0000  0.0000  0.0000  0.0000 </r>
       </set>
       <set comment="band 2">
        <r>  0.1090  0.0330  0.0343  0.0324  0.0000  0.0000  0.0000  0.0000  0.0000 </r>
        <r>  0.1090  0.0330  0.0343  0.0324  0.0000  0.0000  0.0000  0.0000  0.0000 </r>
       </set>
       <set comment="band 3">
        <r>  0.0001  0.0346  0.0360  0.1399  0.0000  0.0000  0.0000  0.0000  0.0000 </r>
        <r>  0.0001  0.0346  0.0360  0.1399  0.0000  0.0000  0.0000  0.0000  0.0000 </r>
       </set>
       <set comment="band 4">
        <r>  0.0000  0.1056  0.1015  0.0000  0.0000  0.0000  0.0000  0.0000  0.0000 </r>
        <r>  0.0000  0.1056  0.1015  0.0000  0.0000  0.0000  0.0000  0.0000  0.0000 </r>
       </set>
       <set comment="band 5">
        <r>  0.1714  0.0103  0.0108  0.0131  0.0000  0.0000  0.0000  0.0000  0.0000 </r>
        <r>  0.1714  0.0103  0.0108  0.0131  0.0000  0.0000  0.0000  0.0000  0.0000 </r>
       </set>
       <set comment="band 6">
        <r>  0.0000  0.0585  0.0562  0.0000  0.0000  0.0000  0.0000  0.0000  0.0000 </r>
        <r>  0.0000  0.0585  0.0562  0.0000  0.0000  0.0000  0.0000  0.0000  0.0000 </r>
       </set>
       <set comment="band 7">
        <r>  0.0001  0.0185  0.0192  0.0766  0.0000  0.0000  0.0000  0.0000  0.0000 </r>
        <r>  0.0001  0.0185  0.0192  0.0766  0.0000  0.0000  0.0000  0.0000  0.0000 </r>
       </set>
       <set comment="band 8">
        <r>  0.0212  0.0367  0.0383  0.0504  0.0000  0.0000  0.0000  0.0000  0.0000 </r>
        <r>  0.0212  0.0368  0.0382  0.0504  0.0000  0.0000  0.0000  0.0000  0.0000 </r>
       </set>
      </set>
      <set comment="kpoint 3">
       <set comment="band 1">
        <r>  0.2087  0.0038  0.0036  0.0041  0.0000  0.0000  0.0000  0.0000  0.0000 </r>
        <r>  0.2087  0.0038  0.0036  0.0041  0.0000  0.0000  0.0000  0.0000  0.0000 </r>
       </set>
       <set comment="band 2">
        <r>  0.1056  0.0330  0.0317  0.0335  0.0000  0.0000  0.0000  0.0000  0.0000 </r>
        <r>  0.1056  0.0330  0.0317  0.0335  0.0000  0.0000  0.0000  0.0000  0.0000 </r>
       </set>
       <set comment="band 3">
        <r>  0.0001  0.0353  0.0339  0.1399  0.0000  0.0000  0.0000  0.0000  0.0000 </r>
        <r>  0.0001  0.0353  0.0339  0.1399  0.0000  0.0000  0.0000  0.0000  0.0000 </r>
       </set>
       <set comment="band 4">
        <r>  0.0000  0.1043  0.1086  0.0000  0.0000  0.0000  0.0000  0.0000  0.0000 </r>
        <r>  0.0000  0.1043  0.1086  0.0000  0.0000  0.0000  0.0000  0.0000  0.0000 </r>
       </set>
       <set comment="band 5">
        <r>  0.1723  0.0124  0.0119  0.0094  0.0000  0.0000  0.0000  0.0000  0.0000 </r>
        <r>  0.1723  0.0124  0.0119  0.0094  0.0000  0.0000  0.0000  0.0000  0.0000 </r>
       </set>
       <set comment="band 6">
        <r>  0.0002  0.0197  0.0189  0.0771  0.0000  0.0000  0.0000  0.0000  0.0000 </r>
        <r>  0.0002  0.0197  0.0189  0.0771  0.0000  0.0000  0.0000  0.0000  0.0000 </r>
       </set>
       <set comment="band 7">
        <r>  0.0000  0.0568  0.0591  0.0000  0.0000  0.0000  0.0000  0.0000  0.0000 </r>
        <r>  0.0000  0.0568  0.0591  0.0000  0.0000  0.0000  0.0000  0.0000  0.0000 </r>
       </set>
       <set comment="band 8">
        <r>  0.0230  0.0437  0.0420  0.0318  0.0000  0.0000  0.0000  0.0000  0.0000 </r>
        <r>  0.0230  0.0437  0.0420  0.0318  0.0000  0.0000  0.0000  0.0000  0.0000 </r>
       </set>
      </set>
      <set comment="kpoint 4">
       <set comment="band 1">
        <r>  0.2017  0.0000  0.0195  0.0000  0.0000  0.0000  0.0000  0.0000  0.0000 </r>
        <r>  0.2017  0.0000  0.0195  0.0000  0.0000  0.0000  0.0000  0.0000  0.0000 </r>
       </set>
       <set comment="band 2">
        <r>  0.1755  0.0000  0.0738  0.0000  0.0000  0.0000  0.0000  0.0000  0.0000 </r>
        <r>  0.1755  0.0000  0.0738  0.0000  0.0000  0.0000  0.0000  0.0000  0.0000 </r>
       </set>
       <set comment="band 3">
        <r>  0.0001  0.1135  0.0000  0.0786  0.0000  0.0000  0.0000  0.0000  0.0000 </r>
        <r>  0.0001  0.1135  0.0000  0.0786  0.0000  0.0000  0.0000  0.0000  0.0000 </r>
       </set>
       <set comment="band 4">
        <r>  0.0000  0.0786  0.0000  0.1136  0.0000  0.0000  0.0000  0.0000  0.0000 </r>
        <r>  0.0000  0.0786  0.0000  0.1136  0.0000  0.0000  0.0000  0.0000  0.0000 </r>
       </set>
       <set comment="band 5">
        <r>  0.0491  0.0000  0.0588  0.0000  0.0000  0.0000  0.0000  0.0000  0.0000 </r>
        <r>  0.0491  0.0000  0.0588  0.0000  0.0000  0.0000  0.0000  0.0000  0.0000 </r>
       </set>
       <set comment="band 6">
        <r>  0.0450  0.0001  0.0339  0.0000  0.0000  0.0000  0.0000  0.0000  0.0000 </r>
        <r>  0.0450  0.0001  0.0339  0.0000  0.0000  0.0000  0.0000  0.0000  0.0000 </r>
       </set>
       <set comment="band 7">
        <r>  0.0007  0.1007  0.0005  0.0650  0.0000  0.0000  0.0000  0.0000  0.0000 </r>
        <r>  0.0007  0.1007  0.0005  0.0650  0.0000  0.0000  0.0000  0.0000  0.0000 </r>
       </set>
       <set comment="band 8">
        <r>  0.0000  0.0654  0.0001  0.1012  0.0000  0.0000  0.0000  0.0000  0.0000 </r>
        <r>  0.0000  0.0654  0.0001  0.1012  0.0000  0.0000  0.0000  0.0000  0.0000 </r>
       </set>
      </set>
      <set comment="kpoint 5">
       <set comment="band 1">
        <r>  0.2118  0.0073  0.0115  0.0074  0.0000  0.0000  0.0000  0.0000  0.0000 </r>
        <r>  0.2118  0.0073  0.0115  0.0074  0.0000  0.0000  0.0000  0.0000  0.0000 </r>
       </set>
       <set comment="band 2">
        <r>  0.1762  0.0095  0.0400  0.0095  0.0000  0.0000  0.0000  0.0000  0.0000 </r>
        <r>  0.1762  0.0095  0.0400  0.0095  0.0000  0.0000  0.0000  0.0000  0.0000 </r>
       </set>
       <set comment="band 3">
        <r>  0.0033  0.0455  0.0576  0.0455  0.0000  0.0000  0.0000  0.0000  0.0000 </r>
        <r>  0.0033  0.0455  0.0576  0.0455  0.0000  0.0000  0.0000  0.0000  0.0000 </r>
       </set>
       <set comment="band 4">
        <r>  0.0000  0.0988  0.0000  0.0988  0.0000  0.0000  0.0000  0.0000  0.0000 </r>
        <r>  0.0000  0.0988  0.0000  0.0988  0.0000  0.0000  0.0000  0.0000  0.0000 </r>
       </set>
       <set comment="band 5">
        <r>  0.0543  0.0011  0.0457  0.0010  0.0000  0.0000  0.0000  0.0000  0.0000 </r>
        <r>  0.0543  0.0011  0.0457  0.0010  0.0000  0.0000  0.0000  0.0000  0.0000 </r>
       </set>
       <set comment="band 6">
        <r>  0.0084  0.0384  0.0026  0.0381  0.0000  0.0000  0.0000  0.0000  0.0000 </r>
        <r>  0.0084  0.0384  0.0026  0.0381  0.0000  0.0000  0.0000  0.0000  0.0000 </r>
       </set>
       <set comment="band 7">
        <r>  0.0019  0.0744  0.0011  0.0768  0.0000  0.0000  0.0000  0.0000  0.0000 </r>
        <r>  0.0019  0.0744  0.0011  0.0768  0.0000  0.0000  0.0000  0.0000  0.0000 </r>
       </set>
       <set comment="band 8">
        <r>  0.0441  0.0132  0.1130  0.0056  0.0000  0.0000  0.0000  0.0000  0.0000 </r>
        <r>  0.0441  0.0132  0.1130  0.0056  0.0000  0.0000  0.0000  0.0000  0.0000 </r>
       </set>
      </set>
      <set comment="kpoint 6">
       <set comment="band 1">
        <r>  0.2017  0.0000  0.0000  0.0195  0.0000  0.0000  0.0000  0.0000  0.0000 </r>
        <r>  0.2017  0.0000  0.0000  0.0195  0.0000  0.0000  0.0000  0.0000  0.0000 </r>
       </set>
       <set comment="band 2">
        <r>  0.1754  0.0000  0.0000  0.0738  0.0000  0.0000  0.0000  0.0000  0.0000 </r>
        <r>  0.1754  0.0000  0.0000  0.0738  0.0000  0.0000  0.0000  0.0000  0.0000 </r>
       </set>
       <set comment="band 3">
        <r>  0.0000  0.0965  0.0928  0.0000  0.0000  0.0000  0.0000  0.0000  0.0000 </r>
        <r>  0.0000  0.0965  0.0928  0.0000  0.0000  0.0000  0.0000  0.0000  0.0000 </r>
       </set>
       <set comment="band 4">
        <r>  0.0000  0.0957  0.0996  0.0000  0.0000  0.0000  0.0000  0.0000  0.0000 </r>
        <r>  0.0000  0.0957  0.0996  0.0000  0.0000  0.0000  0.0000  0.0000  0.0000 </r>
       </set>
       <set comment="band 5">
        <r>  0.0488  0.0000  0.0000  0.0590  0.0000  0.0000  0.0000  0.0000  0.0000 </r>
        <r>  0.0488  0.0000  0.0000  0.0590  0.0000  0.0000  0.0000  0.0000  0.0000 </r>
       </set>
       <set comment="band 6">
        <r>  0.0452  0.0000  0.0000  0.0338  0.0000  0.0000  0.0000  0.0000  0.0000 </r>
        <r>  0.0452  0.0000  0.0000  0.0338  0.0000  0.0000  0.0000  0.0000  0.0000 </r>
       </set>
       <set comment="band 7">
        <r>  0.0000  0.0846  0.0813  0.0000  0.0000  0.0000  0.0000  0.0000  0.0000 </r>
        <r>  0.0000  0.0846  0.0813  0.0000  0.0000  0.0000  0.0000  0.0000  0.0000 </r>
       </set>
       <set comment="band 8">
        <r>  0.0000  0.0821  0.0854  0.0000  0.0000  0.0000  0.0000  0.0000  0.0000 </r>
        <r>  0.0000  0.0821  0.0854  0.0000  0.0000  0.0000  0.0000  0.0000  0.0000 </r>
       </set>
      </set>
      <set comment="kpoint 7">
       <set comment="band 1">
        <r>  0.2111  0.0075  0.0078  0.0111  0.0000  0.0000  0.0000  0.0000  0.0000 </r>
        <r>  0.2111  0.0075  0.0078  0.0111  0.0000  0.0000  0.0000  0.0000  0.0000 </r>
       </set>
       <set comment="band 2">
        <r>  0.1785  0.0096  0.0100  0.0396  0.0000  0.0000  0.0000  0.0000  0.0000 </r>
        <r>  0.1785  0.0096  0.0100  0.0396  0.0000  0.0000  0.0000  0.0000  0.0000 </r>
       </set>
       <set comment="band 3">
        <r>  0.0033  0.0446  0.0465  0.0580  0.0000  0.0000  0.0000  0.0000  0.0000 </r>
        <r>  0.0033  0.0446  0.0465  0.0580  0.0000  0.0000  0.0000  0.0000  0.0000 </r>
       </set>
       <set comment="band 4">
        <r>  0.0000  0.0994  0.0955  0.0000  0.0000  0.0000  0.0000  0.0000  0.0000 </r>
        <r>  0.0000  0.0994  0.0955  0.0000  0.0000  0.0000  0.0000  0.0000  0.0000 </r>
       </set>
       <set comment="band 5">
        <r>  0.0532  0.0009  0.0009  0.0472  0.0000  0.0000  0.0000  0.0000  0.0000 </r>
        <r>  0.0532  0.0009  0.0009  0.0472  0.0000  0.0000  0.0000  0.0000  0.0000 </r>
       </set>
       <set comment="band 6">
        <r>  0.0040  0.0349  0.0363  0.0000  0.0000  0.0000  0.0000  0.0000  0.0000 </r>
        <r>  0.0040  0.0349  0.0363  0.0000  0.0000  0.0000  0.0000  0.0000  0.0000 </r>
       </set>
       <set comment="band 7">
        <r>  0.0000  0.0772  0.0742  0.0000  0.0000  0.0000  0.0000  0.0000  0.0000 </r>
        <r>  0.0000  0.0772  0.0742  0.0000  0.0000  0.0000  0.0000  0.0000  0.0000 </r>
       </set>
       <set comment="band 8">
        <r>  0.0472  0.0060  0.0062  0.1239  0.0000  0.0000  0.0000  0.0000  0.0000 </r>
        <r>  0.0469  0.0061  0.0063  0.1243  0.0000  0.0000  0.0000  0.0000  0.0000 </r>
       </set>
      </set>
      <set comment="kpoint 8">
       <set comment="band 1">
        <r>  0.2126  0.0071  0.0068  0.0119  0.0000  0.0000  0.0000  0.0000  0.0000 </r>
        <r>  0.2126  0.0071  0.0068  0.0119  0.0000  0.0000  0.0000  0.0000  0.0000 </r>
       </set>
       <set comment="band 2">
        <r>  0.1738  0.0093  0.0090  0.0405  0.0000  0.0000  0.0000  0.0000  0.0000 </r>
        <r>  0.1738  0.0093  0.0090  0.0405  0.0000  0.0000  0.0000  0.0000  0.0000 </r>
       </set>
       <set comment="band 3">
        <r>  0.0033  0.0463  0.0445  0.0570  0.0000  0.0000  0.0000  0.0000  0.0000 </r>
        <r>  0.0033  0.0463  0.0445  0.0570  0.0000  0.0000  0.0000  0.0000  0.0000 </r>
       </set>
       <set comment="band 4">
        <r>  0.0000  0.0983  0.1023  0.0000  0.0000  0.0000  0.0000  0.0000  0.0000 </r>
        <r>  0.0000  0.0983  0.1023  0.0000  0.0000  0.0000  0.0000  0.0000  0.0000 </r>
       </set>
       <set comment="band 5">
        <r>  0.0551  0.0012  0.0012  0.0441  0.0000  0.0000  0.0000  0.0000  0.0000 </r>
        <r>  0.0551  0.0012  0.0012  0.0441  0.0000  0.0000  0.0000  0.0000  0.0000 </r>
       </set>
       <set comment="band 6">
        <r>  0.0124  0.0400  0.0385  0.0069  0.0000  0.0000  0.0000  0.0000  0.0000 </r>
        <r>  0.0124  0.0400  0.0385  0.0069  0.0000  0.0000  0.0000  0.0000  0.0000 </r>
       </set>
       <set comment="band 7">
        <r>  0.0000  0.0755  0.0786  0.0000  0.0000  0.0000  0.0000  0.0000  0.0000 </r>
        <r>  0.0000  0.0755  0.0786  0.0000  0.0000  0.0000  0.0000  0.0000  0.0000 </r>
       </set>
       <set comment="band 8">
        <r>  0.0385  0.0016  0.0015  0.1207  0.0000  0.0000  0.0000  0.0000  0.0000 </r>
        <r>  0.0385  0.0016  0.0015  0.1207  0.0000  0.0000  0.0000  0.0000  0.0000 </r>
       </set>
      </set>
     </set>
    </set>
   </array>
  </projected>
 </calculation>
 <structure name="finalpos" >
  <crystal>
   <varray name="basis" >
    <v>       0.00000000       2.69772100       2.75222600 </v>
    <v>       2.75277700      -0.05505600       2.75222600 </v>
    <v>       2.75277700       2.75277700       0.00000000 </v>
   </varray>
   <i name="volume">     41.71153295 </i>
   <varray name="rec_basis" >
    <v>      -0.18163476       0.18163476       0.18530458 </v>
    <v>       0.18163476      -0.18163476       0.17803767 </v>
    <v>       0.18163476       0.18163476      -0.17803767 </v>
   </varray>
  </crystal>
  <varray name="positions" >
   <v>       0.75000000       0.75000000       0.75000000 </v>
   <v>       0.50000000       0.50000000       0.50000000 </v>
  </varray>
 </structure>
</modeling>
