 vasp.6.2.1 16May21 (build Oct 27 2021 18:14:32) complex                        
  
 executed on             LinuxIFC date 2021.11.08  17:27:46
 running on    1 total cores
 distrk:  each k-point on    1 cores,    1 groups
 distr:  one band on NCORE=   1 cores,    1 groups


--------------------------------------------------------------------------------------------------------


 INCAR:
   ALGO = Normal
   EDIFF = 1e-07
   EDIFFG = -0.001
   ENAUG = 1360.0
   ENCUT = 700.0
   IBRION = 2
   ISIF = 3
   ISMEAR = -5
   ISPIN = 2
   KSPACING = 0.2925287784072645
   LAECHG = False
   LASPH = True
   LCHARG = True
   LELF = True
   LMIXTAU = True
   LORBIT = 11
   LREAL = False
   LVTOT = True
   LWAVE = False
   MAGMOM = 2*-0.0
   NELM = 200
   NSW = 1
   PREC = Accurate
   SIGMA = 0.05

 POTCAR:    PAW_PBE Si 05Jan2001                  
 WARNING: For LVTOT=.TRUE., VASP.5.x writes the TOTAL local potential to the
     file LOCPOT. If you want only the Hartree contributions, use LVHAR=.TRUE.
     instead. 

 POTCAR:    PAW_PBE Si 05Jan2001                  
   VRHFIN =Si: s2p2                                                                                 
   LEXCH  = PE                                                                                      
   EATOM  =   103.0669 eV,    7.5752 Ry                                                             
                                                                                                    
   TITEL  = PAW_PBE Si 05Jan2001                                                                    
   LULTRA =        F    use ultrasoft PP ?                                                          
   IUNSCR =        1    unscreen: 0-lin 1-nonlin 2-no                                               
   RPACOR =    1.500    partial core radius                                                         
   POMASS =   28.085; ZVAL   =    4.000    mass and valenz                                          
   RCORE  =    1.900    outmost cutoff radius                                                       
   RWIGS  =    2.480; RWIGS  =    1.312    wigner-seitz radius (au A)                               
   ENMAX  =  245.345; ENMIN  =  184.009 eV                                                          
   ICORE  =        2    local potential                                                             
   LCOR   =        T    correct aug charges                                                         
   LPAW   =        T    paw PP                                                                      
   EAUG   =  322.069                                                                                
   DEXC   =    0.000                                                                                
   RMAX   =    1.950    core radius for proj-oper                                                   
   RAUG   =    1.300    factor for augmentation sphere                                              
   RDEP   =    1.993    radius for radial grids                                                     
   RDEPT  =    1.837    core radius for aug-charge                                                  
                                                                                                    
   Atomic configuration                                                                             
    6 entries                                                                                       
     n  l   j            E        occ.                                                              
     1  0  0.50     -1785.8828   2.0000                                                             
     2  0  0.50      -139.4969   2.0000                                                             
     2  1  1.50       -95.5546   6.0000                                                             
     3  0  0.50       -10.8127   2.0000                                                             
     3  1  0.50        -4.0811   2.0000                                                             
     3  2  1.50        -4.0817   0.0000                                                             
   Description                                                                                      
     l       E           TYP  RCUT    TYP  RCUT                                                     
     0    -10.8127223     23  1.900                                                                 
     0     -7.6451159     23  1.900                                                                 
     1     -4.0811372     23  1.900                                                                 
     1      2.4879257     23  1.900                                                                 
     2     -4.0817478      7  1.900                                                                 
  local pseudopotential read in
  partial core-charges read in
  partial kinetic energy density read in
  atomic valenz-charges read in
  non local Contribution for L=           0  read in
    real space projection operators read in
  non local Contribution for L=           0  read in
    real space projection operators read in
  non local Contribution for L=           1  read in
    real space projection operators read in
  non local Contribution for L=           1  read in
    real space projection operators read in
    PAW grid and wavefunctions read in
 
   number of l-projection  operators is LMAX  =           4
   number of lm-projection operators is LMMAX =           8
 
  PAW_PBE Si 05Jan2001                  :
 energy of atom  1       EATOM= -103.0669
 kinetic energy error for atom=    0.0003 (will be added to EATOM!!)
 
 
 POSCAR: Si2
  positions in direct lattice
  No initial velocities read in
 exchange correlation table for  LEXCH =        8
   RHO(1)=    0.500       N(1)  =     2000
   RHO(2)=  100.500       N(2)  =     4000
 


--------------------------------------------------------------------------------------------------------


 ion  position               nearest neighbor table
   1  0.750  0.750  0.750-   2 2.38   2 2.38   2 2.38   2 2.38
   2  0.500  0.500  0.500-   1 2.38   1 2.38   1 2.38   1 2.38
 
  LATTYP: Found a body centered tetragonal cell.
 ALAT       =     3.8930145676
 C/A-ratio  =     1.4071249683
  
  Lattice vectors:
  
 A1 = (  -2.7389790000,   0.0000000000,  -2.7527770000)
 A2 = (  -2.7389790000,   0.0000000000,   2.7527770000)
 A3 = (   2.7389790000,   2.7527770000,   0.0000000000)


Analysis of symmetry for initial positions (statically):
=====================================================================
 Subroutine PRICEL returns:
 Original cell was already a primitive cell.
 

 Routine SETGRP: Setting up the symmetry group for a 
 body centered tetragonal supercell.


 Subroutine GETGRP returns: Found 16 space group operations
 (whereof  8 operations were pure point group operations)
 out of a pool of 16 trial point group operations.


The static configuration has the point symmetry D_2d.
 The point group associated with its full space group is D_4h.


Analysis of symmetry for dynamics (positions and initial velocities):
=====================================================================
 Subroutine PRICEL returns:
 Original cell was already a primitive cell.
 

 Routine SETGRP: Setting up the symmetry group for a 
 body centered tetragonal supercell.


 Subroutine GETGRP returns: Found 16 space group operations
 (whereof  8 operations were pure point group operations)
 out of a pool of 16 trial point group operations.


The dynamic configuration has the point symmetry D_2d.
 The point group associated with its full space group is D_4h.


Analysis of structural, dynamic, and magnetic symmetry:
=====================================================================
 Subroutine PRICEL returns:
 Original cell was already a primitive cell.
 

 Routine SETGRP: Setting up the symmetry group for a 
 body centered tetragonal supercell.


 Subroutine GETGRP returns: Found 16 space group operations
 (whereof  8 operations were pure point group operations)
 out of a pool of 16 trial point group operations.


The overall configuration has the point symmetry D_2d.
 The point group associated with its full space group is D_4h.


 Subroutine INISYM returns: Found 16 space group operations
 (whereof  8 operations are pure point group operations),
 and found     1 'primitive' translations


----------------------------------------------------------------------------------------

                                     Primitive cell                                     

  volume of cell :      41.5108

  direct lattice vectors                    reciprocal lattice vectors
     0.000000000  2.752777000  2.752777000    -0.182549775  0.181634764  0.181634764
     2.738979000  0.000000000  2.752777000     0.182549775 -0.181634764  0.181634764
     2.738979000  2.752777000  0.000000000     0.182549775  0.181634764 -0.181634764

  length of vectors
     3.893014568  3.883270165  3.883270165     0.315129807  0.315129807  0.315129807

  position of ions in fractional coordinates (direct lattice)
     0.750000000  0.750000000  0.750000000
     0.500000000  0.500000000  0.500000000

  ion indices of the primitive-cell ions
   primitive index   ion index
                 1           1
                 2           2

----------------------------------------------------------------------------------------

 
 
 KPOINTS: pymatgen with grid density = 100 / numbe

Automatic generation of k-mesh.
 Grid dimensions read from file:
 generate k-points for:    3    3    3

 Generating k-lattice:

  Cartesian coordinates                     Fractional coordinates (reciprocal lattice)
    -0.060849925  0.060544921  0.060544921     0.333333333 -0.000000000 -0.000000000
     0.060849925 -0.060544921  0.060544921     0.000000000  0.333333333  0.000000000
     0.060849925  0.060544921 -0.060544921    -0.000000000  0.000000000  0.333333333

  Length of vectors
     0.105043269  0.105043269  0.105043269

  Shift w.r.t. Gamma in fractional coordinates (k-lattice)
     0.000000000  0.000000000  0.000000000

 TETIRR: Found     17 inequivalent tetrahedra from      162
 
 Subroutine IBZKPT returns following result:
 ===========================================
 
 Found      6 irreducible k-points:
 
 Following reciprocal coordinates:
            Coordinates               Weight
  0.000000  0.000000  0.000000      1.000000
  0.333333  0.000000  0.000000      8.000000
  0.333333  0.333333  0.000000      4.000000
 -0.333333  0.333333  0.000000      8.000000
 -0.000000  0.333333  0.333333      2.000000
 -0.333333  0.333333  0.333333      4.000000
 
 Following cartesian coordinates:
            Coordinates               Weight
  0.000000  0.000000  0.000000      1.000000
 -0.060850  0.060545  0.060545      8.000000
  0.000000  0.000000  0.121090      4.000000
  0.121700 -0.121090 -0.000000      8.000000
  0.121700  0.000000 -0.000000      2.000000
  0.182550 -0.060545 -0.060545      4.000000
 


--------------------------------------------------------------------------------------------------------




 Dimension of arrays:
   k-points           NKPTS =      6   k-points in BZ     NKDIM =      6   number of bands    NBANDS=      8
   number of dos      NEDOS =    301   number of ions     NIONS =      2
   non local maximal  LDIM  =      4   non local SUM 2l+1 LMDIM =      8
   total plane-waves  NPLWV =  46656
   max r-space proj   IRMAX =      1   max aug-charges    IRDMAX=  37774
   dimension x,y,z NGX =    36 NGY =   36 NGZ =   36
   dimension x,y,z NGXF=    72 NGYF=   72 NGZF=   72
   support grid    NGXF=    72 NGYF=   72 NGZF=   72
   ions per type =               2
   NGX,Y,Z   is equivalent  to a cutoff of  15.37, 15.41, 15.41 a.u.
   NGXF,Y,Z  is equivalent  to a cutoff of  30.75, 30.82, 30.82 a.u.

 SYSTEM =  unknown system                          
 POSCAR =  Si2                                     

 Startparameter for this run:
   NWRITE =      2    write-flag & timer
   PREC   = accura    normal or accurate (medium, high low for compatibility)
   ISTART =      0    job   : 0-new  1-cont  2-samecut
   ICHARG =      2    charge: 1-file 2-atom 10-const
   ISPIN  =      2    spin polarized calculation?
   LNONCOLLINEAR =      F non collinear calculations
   LSORBIT =      F    spin-orbit coupling
   INIWAV =      1    electr: 0-lowe 1-rand  2-diag
   LASPH  =      T    aspherical Exc in radial PAW
 Electronic Relaxation 1
   ENCUT  =  700.0 eV  51.45 Ry    7.17 a.u.   8.40  8.38  8.38*2*pi/ulx,y,z
   ENINI  =  700.0     initial cutoff
   ENAUG  = 1360.0 eV  augmentation charge cutoff
   NELM   =    200;   NELMIN=  2; NELMDL= -5     # of ELM steps 
   EDIFF  = 0.1E-06   stopping-criterion for ELM
   LREAL  =      F    real-space projection
   NLSPLINE    = F    spline interpolate recip. space projectors
   LCOMPAT=      F    compatible to vasp.4.4
   GGA_COMPAT  = T    GGA compatible to vasp.4.4-vasp.4.6
   LMAXPAW     = -100 max onsite density
   LMAXMIX     =    2 max onsite mixed and CHGCAR
   VOSKOWN=      0    Vosko Wilk Nusair interpolation
   ROPT   =    0.00000
 Ionic relaxation
   EDIFFG = -.1E-02   stopping-criterion for IOM
   NSW    =      1    number of steps for IOM
   NBLOCK =      1;   KBLOCK =      1    inner block; outer block 
   IBRION =      2    ionic relax: 0-MD 1-quasi-New 2-CG
   NFREE  =      1    steps in history (QN), initial steepest desc. (CG)
   ISIF   =      3    stress and relaxation
   IWAVPR =     11    prediction:  0-non 1-charg 2-wave 3-comb
   ISYM   =      2    0-nonsym 1-usesym 2-fastsym
   LCORR  =      T    Harris-Foulkes like correction to forces

   POTIM  = 0.5000    time-step for ionic-motion
   TEIN   =    0.0    initial temperature
   TEBEG  =    0.0;   TEEND  =   0.0 temperature during run
   SMASS  =  -3.00    Nose mass-parameter (am)
   estimated Nose-frequenzy (Omega)   =  0.10E-29 period in steps = 0.13E+47 mass=  -0.346E-27a.u.
   SCALEE = 1.0000    scale energy and forces
   NPACO  =    256;   APACO  = 16.0  distance and # of slots for P.C.
   PSTRESS=    0.0 pullay stress

  Mass of Ions in am
   POMASS =  28.09
  Ionic Valenz
   ZVAL   =   4.00
  Atomic Wigner-Seitz radii
   RWIGS  =  -1.00
  virtual crystal weights 
   VCA    =   1.00
   NELECT =       8.0000    total number of electrons
   NUPDOWN=      -1.0000    fix difference up-down

 DOS related values:
   EMIN   =  10.00;   EMAX   =-10.00  energy-range for DOS
   EFERMI =   0.00
   ISMEAR =    -5;   SIGMA  =   0.05  broadening in eV -4-tet -1-fermi 0-gaus

 Electronic relaxation 2 (details)
   IALGO  =     38    algorithm
   LDIAG  =      T    sub-space diagonalisation (order eigenvalues)
   LSUBROT=      F    optimize rotation matrix (better conditioning)
   TURBO    =      0    0=normal 1=particle mesh
   IRESTART =      0    0=no restart 2=restart with 2 vectors
   NREBOOT  =      0    no. of reboots
   NMIN     =      0    reboot dimension
   EREF     =   0.00    reference energy to select bands
   IMIX   =      4    mixing-type and parameters
     AMIX     =   0.40;   BMIX     =  1.00
     AMIX_MAG =   1.60;   BMIX_MAG =  1.00
     AMIN     =   0.10
     WC   =   100.;   INIMIX=   1;  MIXPRE=   1;  MAXMIX= -45

 Intra band minimization:
   WEIMIN = 0.0010     energy-eigenvalue tresh-hold
   EBREAK =  0.31E-08  absolut break condition
   DEPER  =   0.30     relativ break condition  

   TIME   =   0.40     timestep for ELM

  volume/ion in A,a.u.               =      20.76       140.06
  Fermi-wavevector in a.u.,A,eV,Ry     =   0.945623  1.786968 12.166362  0.894202
  Thomas-Fermi vector in A             =   2.073542
 
 Write flags
   LWAVE        =      F    write WAVECAR
   LDOWNSAMPLE  =      F    k-point downsampling of WAVECAR
   LCHARG       =      T    write CHGCAR
   LVTOT        =      T    write LOCPOT, total local potential
   LVHAR        =      F    write LOCPOT, Hartree potential only
   LELF         =      T    write electronic localiz. function (ELF)
   LORBIT       =     11    0 simple, 1 ext, 2 COOP (PROOUT), +10 PAW based schemes


 Dipole corrections
   LMONO  =      F    monopole corrections only (constant potential shift)
   LDIPOL =      F    correct potential (dipole corrections)
   IDIPOL =      0    1-x, 2-y, 3-z, 4-all directions 
   EPSILON=  1.0000000 bulk dielectric constant

 Exchange correlation treatment:
   GGA     =    --    GGA type
   LEXCH   =     8    internal setting for exchange type
   VOSKOWN=      0    Vosko Wilk Nusair interpolation
   LHFCALC =     F    Hartree Fock is set to
   LHFONE  =     F    Hartree Fock one center treatment
   AEXX    =    0.0000 exact exchange contribution

 Linear response parameters
   LEPSILON=     F    determine dielectric tensor
   LRPA    =     F    only Hartree local field effects (RPA)
   LNABLA  =     F    use nabla operator in PAW spheres
   LVEL    =     F    velocity operator in full k-point grid
   LINTERFAST=   F  fast interpolation
   KINTER  =     0    interpolate to denser k-point grid
   CSHIFT  =0.1000    complex shift for real part using Kramers Kronig
   OMEGAMAX=  -1.0    maximum frequency
   DEG_THRESHOLD= 0.2000000E-02 threshold for treating states as degnerate
   RTIME   =   -0.100 relaxation time in fs
  (WPLASMAI=    0.000 imaginary part of plasma frequency in eV, 0.658/RTIME)
   DFIELD  = 0.0000000 0.0000000 0.0000000 field for delta impulse in time
 
 Orbital magnetization related:
   ORBITALMAG=     F  switch on orbital magnetization
   LCHIMAG   =     F  perturbation theory with respect to B field
   DQ        =  0.001000  dq finite difference perturbation B field
   LLRAUG    =     F  two centre corrections for induced B field



--------------------------------------------------------------------------------------------------------


 conjugate gradient relaxation of ions
 charge density and potential will be updated during run
 spin polarized calculation
 Variant of blocked Davidson
 Davidson routine will perform the subspace rotation
 perform sub-space diagonalisation
    after iterative eigenvector-optimisation
 modified Broyden-mixing scheme, WC =      100.0
 initial mixing is a Kerker type mixing with AMIX =  0.4000 and BMIX =      1.0000
 Hartree-type preconditioning will be used
 using additional bands            4
 reciprocal scheme for non local part
 use partial core corrections
 calculate Harris-corrections to forces 
   (improved forces if not selfconsistent)
 use gradient corrections 
 use of overlap-Matrix (Vanderbilt PP)
 Fermi weights with tetrahedron method with Bloechl corrections


--------------------------------------------------------------------------------------------------------


  energy-cutoff  :      700.00
  volume of cell :       41.51
      direct lattice vectors                 reciprocal lattice vectors
     0.000000000  2.752777000  2.752777000    -0.182549775  0.181634764  0.181634764
     2.738979000  0.000000000  2.752777000     0.182549775 -0.181634764  0.181634764
     2.738979000  2.752777000  0.000000000     0.182549775  0.181634764 -0.181634764

  length of vectors
     3.893014568  3.883270165  3.883270165     0.315129807  0.315129807  0.315129807


 
 k-points in units of 2pi/SCALE and weight: pymatgen with grid density = 100 / numbe
   0.00000000  0.00000000  0.00000000       0.037
  -0.06084992  0.06054492  0.06054492       0.296
  -0.00000000  0.00000000  0.12108984       0.148
   0.12169985 -0.12108984 -0.00000000       0.296
   0.12169985  0.00000000 -0.00000000       0.074
   0.18254977 -0.06054492 -0.06054492       0.148
 
 k-points in reciprocal lattice and weights: pymatgen with grid density = 100 / numbe
   0.00000000  0.00000000  0.00000000       0.037
   0.33333333  0.00000000  0.00000000       0.296
   0.33333333  0.33333333  0.00000000       0.148
  -0.33333333  0.33333333  0.00000000       0.296
  -0.00000000  0.33333333  0.33333333       0.074
  -0.33333333  0.33333333  0.33333333       0.148
 
 position of ions in fractional coordinates (direct lattice) 
   0.75000000  0.75000000  0.75000000
   0.50000000  0.50000000  0.50000000
 
 position of ions in cartesian coordinates  (Angst):
   4.10846850  4.12916550  4.12916550
   2.73897900  2.75277700  2.75277700
 


--------------------------------------------------------------------------------------------------------


 k-point   1 :   0.0000 0.0000 0.0000  plane waves:    1807
 k-point   2 :   0.3333 0.0000 0.0000  plane waves:    1740
 k-point   3 :   0.3333 0.3333 0.0000  plane waves:    1744
 k-point   4 :  -0.3333 0.3333 0.0000  plane waves:    1758
 k-point   5 :  -0.0000 0.3333 0.3333  plane waves:    1736
 k-point   6 :  -0.3333 0.3333 0.3333  plane waves:    1754

 maximum and minimum number of plane-waves per node :      1807     1736

 maximum number of plane-waves:      1807
 maximum index in each direction: 
   IXMAX=    8   IYMAX=    8   IZMAX=    8
   IXMIN=   -8   IYMIN=   -8   IZMIN=   -8


 serial   3D FFT for wavefunctions
 parallel 3D FFT for charge:
    minimum data exchange during FFTs selected (reduces bandwidth)


 total amount of memory used by VASP MPI-rank0    77851. kBytes
=======================================================================

   base      :      30000. kBytes
   nonl-proj :        751. kBytes
   fftplans  :      13060. kBytes
   grid      :      31228. kBytes
   one-center:         12. kBytes
   wavefun   :       2800. kBytes
 
     INWAV:  cpu time    0.0000: real time    0.0000
 Broyden mixing: mesh for mixing (old mesh)
   NGX = 17   NGY = 17   NGZ = 17
  (NGX  = 72   NGY  = 72   NGZ  = 72)
  gives a total of   4913 points

 initial charge density was supplied:
 charge density of overlapping atoms calculated
 number of electron       8.0000000 magnetization       0.0000000
 keeping initial charge density in first step


--------------------------------------------------------------------------------------------------------


 Maximum index for augmentation-charges        36435 (set IRDMAX)


--------------------------------------------------------------------------------------------------------


 First call to EWALD:  gamma=   0.512
 Maximum number of real-space cells 3x 3x 3
 Maximum number of reciprocal cells 3x 3x 3

    FEWALD:  cpu time    0.0009: real time    0.0009


--------------------------------------- Iteration      1(   1)  ---------------------------------------


    POTLOK:  cpu time    0.2225: real time    0.2227
    SETDIJ:  cpu time    0.3196: real time    0.3222
     EDDAV:  cpu time    0.5164: real time    0.5232
 BZINTS: Fermi energy:   10.303841;    8.000000 electrons
         Band energy: 0.258473E+02;  BLOECHL correction:   -0.229321
       DOS:  cpu time    0.0007: real time    0.0007
    --------------------------------------------
      LOOP:  cpu time    1.0593: real time    1.0688

 eigenvalue-minimisations  :   192
 total energy-change (2. order) : 0.1430743E+02  (-0.3952194E+03)
 number of electron       8.0000000 magnetization       0.0000000
 augmentation part        8.0000000 magnetization       0.0000000

 Free energy of the ion-electron system (eV)
  ---------------------------------------------------
  alpha Z        PSCENC =         3.24379751
  Ewald energy   TEWEN  =      -225.80567222
  -Hartree energ DENC   =       -11.55418764
  -exchange      EXHF   =         0.00000000
  -V(xc)+E(xc)   XCENC  =       -18.74358033
  PAW double counting   =       176.24759923     -141.06103558
  entropy T*S    EENTRO =         0.00000000
  eigenvalues    EBANDS =        25.84725878
  atomic energy  EATOM  =       206.13324734
  Solvation  Ediel_sol  =         0.00000000
  ---------------------------------------------------
  free energy    TOTEN  =        14.30742708 eV

  energy without entropy =       14.30742708  energy(sigma->0) =       14.30742708


--------------------------------------------------------------------------------------------------------




--------------------------------------- Iteration      1(   2)  ---------------------------------------


     EDDAV:  cpu time    0.5532: real time    0.5654
 BZINTS: Fermi energy:    5.052832;    8.000000 electrons
         Band energy: 0.159886E+01;  BLOECHL correction:   -0.000000
       DOS:  cpu time    0.0003: real time    0.0003
    --------------------------------------------
      LOOP:  cpu time    0.5535: real time    0.5657

 eigenvalue-minimisations  :   256
 total energy-change (2. order) :-0.2424840E+02  (-0.2413686E+02)
 number of electron       8.0000000 magnetization       0.0000000
 augmentation part        8.0000000 magnetization       0.0000000

 Free energy of the ion-electron system (eV)
  ---------------------------------------------------
  alpha Z        PSCENC =         3.24379751
  Ewald energy   TEWEN  =      -225.80567222
  -Hartree energ DENC   =       -11.55418764
  -exchange      EXHF   =         0.00000000
  -V(xc)+E(xc)   XCENC  =       -18.74358033
  PAW double counting   =       176.24759923     -141.06103558
  entropy T*S    EENTRO =         0.00000000
  eigenvalues    EBANDS =         1.59886321
  atomic energy  EATOM  =       206.13324734
  Solvation  Ediel_sol  =         0.00000000
  ---------------------------------------------------
  free energy    TOTEN  =        -9.94096849 eV

  energy without entropy =       -9.94096849  energy(sigma->0) =       -9.94096849


--------------------------------------------------------------------------------------------------------




--------------------------------------- Iteration      1(   3)  ---------------------------------------


     EDDAV:  cpu time    0.4979: real time    0.5045
 BZINTS: Fermi energy:    4.958564;    8.000000 electrons
         Band energy: 0.108414E+01;  BLOECHL correction:   -0.000000
       DOS:  cpu time    0.0003: real time    0.0003
    --------------------------------------------
      LOOP:  cpu time    0.4981: real time    0.5048

 eigenvalue-minimisations  :   240
 total energy-change (2. order) :-0.5147190E+00  (-0.5147190E+00)
 number of electron       8.0000000 magnetization       0.0000000
 augmentation part        8.0000000 magnetization       0.0000000

 Free energy of the ion-electron system (eV)
  ---------------------------------------------------
  alpha Z        PSCENC =         3.24379751
  Ewald energy   TEWEN  =      -225.80567222
  -Hartree energ DENC   =       -11.55418764
  -exchange      EXHF   =         0.00000000
  -V(xc)+E(xc)   XCENC  =       -18.74358033
  PAW double counting   =       176.24759923     -141.06103558
  entropy T*S    EENTRO =         0.00000000
  eigenvalues    EBANDS =         1.08414421
  atomic energy  EATOM  =       206.13324734
  Solvation  Ediel_sol  =         0.00000000
  ---------------------------------------------------
  free energy    TOTEN  =       -10.45568748 eV

  energy without entropy =      -10.45568748  energy(sigma->0) =      -10.45568748


--------------------------------------------------------------------------------------------------------




--------------------------------------- Iteration      1(   4)  ---------------------------------------


     EDDAV:  cpu time    0.4835: real time    0.4858
 BZINTS: Fermi energy:    4.958028;    8.000000 electrons
         Band energy: 0.107990E+01;  BLOECHL correction:   -0.000000
       DOS:  cpu time    0.0003: real time    0.0003
    --------------------------------------------
      LOOP:  cpu time    0.4837: real time    0.4861

 eigenvalue-minimisations  :   304
 total energy-change (2. order) :-0.4248585E-02  (-0.4248582E-02)
 number of electron       8.0000000 magnetization       0.0000000
 augmentation part        8.0000000 magnetization       0.0000000

 Free energy of the ion-electron system (eV)
  ---------------------------------------------------
  alpha Z        PSCENC =         3.24379751
  Ewald energy   TEWEN  =      -225.80567222
  -Hartree energ DENC   =       -11.55418764
  -exchange      EXHF   =         0.00000000
  -V(xc)+E(xc)   XCENC  =       -18.74358033
  PAW double counting   =       176.24759923     -141.06103558
  entropy T*S    EENTRO =         0.00000000
  eigenvalues    EBANDS =         1.07989563
  atomic energy  EATOM  =       206.13324734
  Solvation  Ediel_sol  =         0.00000000
  ---------------------------------------------------
  free energy    TOTEN  =       -10.45993607 eV

  energy without entropy =      -10.45993607  energy(sigma->0) =      -10.45993607


--------------------------------------------------------------------------------------------------------




--------------------------------------- Iteration      1(   5)  ---------------------------------------


     EDDAV:  cpu time    0.3486: real time    0.3502
 BZINTS: Fermi energy:    4.958070;    8.000000 electrons
         Band energy: 0.107987E+01;  BLOECHL correction:   -0.000000
       DOS:  cpu time    0.0003: real time    0.0003
    CHARGE:  cpu time    0.0478: real time    0.0478
    MIXING:  cpu time    0.0078: real time    0.0078
    --------------------------------------------
      LOOP:  cpu time    0.4045: real time    0.4062

 eigenvalue-minimisations  :   248
 total energy-change (2. order) :-0.2800525E-04  (-0.2800842E-04)
 number of electron       8.0000000 magnetization       0.0000000
 augmentation part       -0.4585242 magnetization       0.0000002

 Broyden mixing:
  rms(total) = 0.48883E+00    rms(broyden)= 0.48883E+00
  rms(prec ) = 0.10194E+01
  weight for this iteration     100.00

 Free energy of the ion-electron system (eV)
  ---------------------------------------------------
  alpha Z        PSCENC =         3.24379751
  Ewald energy   TEWEN  =      -225.80567222
  -Hartree energ DENC   =       -11.55418764
  -exchange      EXHF   =         0.00000000
  -V(xc)+E(xc)   XCENC  =       -18.74358033
  PAW double counting   =       176.24759923     -141.06103558
  entropy T*S    EENTRO =         0.00000000
  eigenvalues    EBANDS =         1.07986762
  atomic energy  EATOM  =       206.13324734
  Solvation  Ediel_sol  =         0.00000000
  ---------------------------------------------------
  free energy    TOTEN  =       -10.45996407 eV

  energy without entropy =      -10.45996407  energy(sigma->0) =      -10.45996407


--------------------------------------------------------------------------------------------------------




--------------------------------------- Iteration      1(   6)  ---------------------------------------


    POTLOK:  cpu time    0.2696: real time    0.2710
    SETDIJ:  cpu time    0.3202: real time    0.3234
     EDDAV:  cpu time    0.2744: real time    0.2746
 BZINTS: Fermi energy:    5.210919;    8.000000 electrons
         Band energy: 0.277841E+01;  BLOECHL correction:   -0.000000
       DOS:  cpu time    0.0002: real time    0.0002
    CHARGE:  cpu time    0.0462: real time    0.0464
    MIXING:  cpu time    0.0119: real time    0.0120
    --------------------------------------------
      LOOP:  cpu time    0.9226: real time    0.9277

 eigenvalue-minimisations  :   208
 total energy-change (2. order) : 0.1488397E+00  (-0.9226534E-02)
 number of electron       8.0000000 magnetization       0.0000000
 augmentation part       -0.4517695 magnetization      -0.0000019

 Broyden mixing:
  rms(total) = 0.30050E+00    rms(broyden)= 0.30050E+00
  rms(prec ) = 0.61134E+00
  weight for this iteration     100.00

 eigenvalues of (default mixing * dielectric matrix)
  average eigenvalue GAMMA=   2.5830
  2.5830

 Free energy of the ion-electron system (eV)
  ---------------------------------------------------
  alpha Z        PSCENC =         3.24379751
  Ewald energy   TEWEN  =      -225.80567222
  -Hartree energ DENC   =       -13.25241218
  -exchange      EXHF   =         0.00000000
  -V(xc)+E(xc)   XCENC  =       -18.48788455
  PAW double counting   =       368.71349653     -333.63410925
  entropy T*S    EENTRO =         0.00000000
  eigenvalues    EBANDS =         2.77841248
  atomic energy  EATOM  =       206.13324734
  Solvation  Ediel_sol  =         0.00000000
  ---------------------------------------------------
  free energy    TOTEN  =       -10.31112436 eV

  energy without entropy =      -10.31112436  energy(sigma->0) =      -10.31112436


--------------------------------------------------------------------------------------------------------




--------------------------------------- Iteration      1(   7)  ---------------------------------------


    POTLOK:  cpu time    0.2584: real time    0.2587
    SETDIJ:  cpu time    0.2876: real time    0.2897
     EDDAV:  cpu time    0.2957: real time    0.2973
 BZINTS: Fermi energy:    5.604469;    8.000000 electrons
         Band energy: 0.542983E+01;  BLOECHL correction:   -0.000000
       DOS:  cpu time    0.0002: real time    0.0002
    CHARGE:  cpu time    0.0406: real time    0.0412
    MIXING:  cpu time    0.0078: real time    0.0080
    --------------------------------------------
      LOOP:  cpu time    0.8903: real time    0.8950

 eigenvalue-minimisations  :   224
 total energy-change (2. order) : 0.6738465E-01  (-0.1860836E-01)
 number of electron       8.0000000 magnetization       0.0000000
 augmentation part       -0.4433480 magnetization       0.0000033

 Broyden mixing:
  rms(total) = 0.19714E-01    rms(broyden)= 0.19714E-01
  rms(prec ) = 0.45981E-01
  weight for this iteration     100.00

 eigenvalues of (default mixing * dielectric matrix)
  average eigenvalue GAMMA=   2.0933
  1.8525  2.3340

 Free energy of the ion-electron system (eV)
  ---------------------------------------------------
  alpha Z        PSCENC =         3.24379751
  Ewald energy   TEWEN  =      -225.80567222
  -Hartree energ DENC   =       -16.14207674
  -exchange      EXHF   =         0.00000000
  -V(xc)+E(xc)   XCENC  =       -18.04345661
  PAW double counting   =       834.54787109     -799.60727621
  entropy T*S    EENTRO =         0.00000000
  eigenvalues    EBANDS =         5.42982613
  atomic energy  EATOM  =       206.13324734
  Solvation  Ediel_sol  =         0.00000000
  ---------------------------------------------------
  free energy    TOTEN  =       -10.24373971 eV

  energy without entropy =      -10.24373971  energy(sigma->0) =      -10.24373971


--------------------------------------------------------------------------------------------------------




--------------------------------------- Iteration      1(   8)  ---------------------------------------


    POTLOK:  cpu time    0.2851: real time    0.2877
    SETDIJ:  cpu time    0.2785: real time    0.2799
     EDDAV:  cpu time    0.4918: real time    0.4983
 BZINTS: Fermi energy:    5.588951;    8.000000 electrons
         Band energy: 0.533711E+01;  BLOECHL correction:   -0.000000
       DOS:  cpu time    0.0003: real time    0.0003
    CHARGE:  cpu time    0.0543: real time    0.0547
    MIXING:  cpu time    0.0091: real time    0.0091
    --------------------------------------------
      LOOP:  cpu time    1.1189: real time    1.1298

 eigenvalue-minimisations  :   224
 total energy-change (2. order) :-0.2428545E-02  (-0.5328748E-03)
 number of electron       8.0000000 magnetization      -0.0000000
 augmentation part       -0.4444315 magnetization      -0.0000102

 Broyden mixing:
  rms(total) = 0.71321E-02    rms(broyden)= 0.71321E-02
  rms(prec ) = 0.15192E-01
  weight for this iteration     100.00

 eigenvalues of (default mixing * dielectric matrix)
  average eigenvalue GAMMA=   2.1109
  1.5956  2.7144  2.0229

 Free energy of the ion-electron system (eV)
  ---------------------------------------------------
  alpha Z        PSCENC =         3.24379751
  Ewald energy   TEWEN  =      -225.80567222
  -Hartree energ DENC   =       -16.08234115
  -exchange      EXHF   =         0.00000000
  -V(xc)+E(xc)   XCENC  =       -18.04318499
  PAW double counting   =       839.83425591     -804.86338021
  entropy T*S    EENTRO =         0.00000000
  eigenvalues    EBANDS =         5.33710956
  atomic energy  EATOM  =       206.13324734
  Solvation  Ediel_sol  =         0.00000000
  ---------------------------------------------------
  free energy    TOTEN  =       -10.24616825 eV

  energy without entropy =      -10.24616825  energy(sigma->0) =      -10.24616825


--------------------------------------------------------------------------------------------------------




--------------------------------------- Iteration      1(   9)  ---------------------------------------


    POTLOK:  cpu time    0.3856: real time    0.3932
    SETDIJ:  cpu time    0.4599: real time    0.4692
     EDDAV:  cpu time    0.8199: real time    0.8509
 BZINTS: Fermi energy:    5.595395;    8.000000 electrons
         Band energy: 0.538238E+01;  BLOECHL correction:    0.000000
       DOS:  cpu time    0.0003: real time    0.0002
    CHARGE:  cpu time    0.0480: real time    0.0481
    MIXING:  cpu time    0.0084: real time    0.0084
    --------------------------------------------
      LOOP:  cpu time    1.7220: real time    1.7700

 eigenvalue-minimisations  :   256
 total energy-change (2. order) :-0.4396421E-03  (-0.4401212E-04)
 number of electron       8.0000000 magnetization       0.0000000
 augmentation part       -0.4445732 magnetization      -0.0000037

 Broyden mixing:
  rms(total) = 0.59507E-02    rms(broyden)= 0.59507E-02
  rms(prec ) = 0.71118E-02
  weight for this iteration     100.00

 eigenvalues of (default mixing * dielectric matrix)
  average eigenvalue GAMMA=   1.9585
  2.9742  2.0907  2.0907  0.6785

 Free energy of the ion-electron system (eV)
  ---------------------------------------------------
  alpha Z        PSCENC =         3.24379751
  Ewald energy   TEWEN  =      -225.80567222
  -Hartree energ DENC   =       -16.14231376
  -exchange      EXHF   =         0.00000000
  -V(xc)+E(xc)   XCENC  =       -18.03269958
  PAW double counting   =       842.75261764     -807.77795988
  entropy T*S    EENTRO =         0.00000000
  eigenvalues    EBANDS =         5.38237506
  atomic energy  EATOM  =       206.13324734
  Solvation  Ediel_sol  =         0.00000000
  ---------------------------------------------------
  free energy    TOTEN  =       -10.24660790 eV

  energy without entropy =      -10.24660790  energy(sigma->0) =      -10.24660790


--------------------------------------------------------------------------------------------------------




--------------------------------------- Iteration      1(  10)  ---------------------------------------


    POTLOK:  cpu time    0.2835: real time    0.2845
    SETDIJ:  cpu time    0.3955: real time    0.3999
     EDDAV:  cpu time    0.3556: real time    0.3578
 BZINTS: Fermi energy:    5.596286;    8.000000 electrons
         Band energy: 0.539342E+01;  BLOECHL correction:   -0.000000
       DOS:  cpu time    0.0002: real time    0.0002
    CHARGE:  cpu time    0.0508: real time    0.0512
    MIXING:  cpu time    0.0088: real time    0.0088
    --------------------------------------------
      LOOP:  cpu time    1.0944: real time    1.1023

 eigenvalue-minimisations  :   224
 total energy-change (2. order) :-0.4227722E-04  (-0.5164121E-05)
 number of electron       8.0000000 magnetization      -0.0000000
 augmentation part       -0.4445434 magnetization       0.0000022

 Broyden mixing:
  rms(total) = 0.11616E-02    rms(broyden)= 0.11616E-02
  rms(prec ) = 0.14666E-02
  weight for this iteration     100.00

 eigenvalues of (default mixing * dielectric matrix)
  average eigenvalue GAMMA=   1.7836
  3.0285  2.2373  2.2373  0.7075  0.7075

 Free energy of the ion-electron system (eV)
  ---------------------------------------------------
  alpha Z        PSCENC =         3.24379751
  Ewald energy   TEWEN  =      -225.80567222
  -Hartree energ DENC   =       -16.15327539
  -exchange      EXHF   =         0.00000000
  -V(xc)+E(xc)   XCENC  =       -18.03225833
  PAW double counting   =       833.01955087     -798.04545574
  entropy T*S    EENTRO =         0.00000000
  eigenvalues    EBANDS =         5.39341579
  atomic energy  EATOM  =       206.13324734
  Solvation  Ediel_sol  =         0.00000000
  ---------------------------------------------------
  free energy    TOTEN  =       -10.24665017 eV

  energy without entropy =      -10.24665017  energy(sigma->0) =      -10.24665017


--------------------------------------------------------------------------------------------------------




--------------------------------------- Iteration      1(  11)  ---------------------------------------


    POTLOK:  cpu time    0.2699: real time    0.2710
    SETDIJ:  cpu time    0.2870: real time    0.2880
     EDDAV:  cpu time    0.4013: real time    0.4025
 BZINTS: Fermi energy:    5.596132;    8.000000 electrons
         Band energy: 0.539296E+01;  BLOECHL correction:   -0.000000
       DOS:  cpu time    0.0002: real time    0.0002
    CHARGE:  cpu time    0.0396: real time    0.0397
    MIXING:  cpu time    0.0078: real time    0.0078
    --------------------------------------------
      LOOP:  cpu time    1.0059: real time    1.0091

 eigenvalue-minimisations  :   312
 total energy-change (2. order) :-0.2998220E-05  (-0.2720422E-06)
 number of electron       8.0000000 magnetization      -0.0000000
 augmentation part       -0.4445513 magnetization      -0.0000014

 Broyden mixing:
  rms(total) = 0.43207E-03    rms(broyden)= 0.43207E-03
  rms(prec ) = 0.53355E-03
  weight for this iteration     100.00

 eigenvalues of (default mixing * dielectric matrix)
  average eigenvalue GAMMA=   1.6714
  3.0397  2.4269  2.2093  0.8740  0.8740  0.6043

 Free energy of the ion-electron system (eV)
  ---------------------------------------------------
  alpha Z        PSCENC =         3.24379751
  Ewald energy   TEWEN  =      -225.80567222
  -Hartree energ DENC   =       -16.15283912
  -exchange      EXHF   =         0.00000000
  -V(xc)+E(xc)   XCENC  =       -18.03246438
  PAW double counting   =       831.93973903     -796.96542045
  entropy T*S    EENTRO =         0.00000000
  eigenvalues    EBANDS =         5.39295912
  atomic energy  EATOM  =       206.13324734
  Solvation  Ediel_sol  =         0.00000000
  ---------------------------------------------------
  free energy    TOTEN  =       -10.24665317 eV

  energy without entropy =      -10.24665317  energy(sigma->0) =      -10.24665317


--------------------------------------------------------------------------------------------------------




--------------------------------------- Iteration      1(  12)  ---------------------------------------


    POTLOK:  cpu time    0.2324: real time    0.2326
    SETDIJ:  cpu time    0.2614: real time    0.2614
     EDDAV:  cpu time    0.3255: real time    0.3263
 BZINTS: Fermi energy:    5.596155;    8.000000 electrons
         Band energy: 0.539251E+01;  BLOECHL correction:   -0.000000
       DOS:  cpu time    0.0002: real time    0.0002
    --------------------------------------------
      LOOP:  cpu time    0.8194: real time    0.8205

 eigenvalue-minimisations  :   232
 total energy-change (2. order) :-0.9320559E-08  (-0.9010825E-08)
 number of electron       8.0000000 magnetization      -0.0000000
 augmentation part       -0.4445513 magnetization      -0.0000014

 Free energy of the ion-electron system (eV)
  ---------------------------------------------------
  alpha Z        PSCENC =         3.24379751
  Ewald energy   TEWEN  =      -225.80567222
  -Hartree energ DENC   =       -16.15242588
  -exchange      EXHF   =         0.00000000
  -V(xc)+E(xc)   XCENC  =       -18.03254266
  PAW double counting   =       832.20647814     -797.23204389
  entropy T*S    EENTRO =         0.00000000
  eigenvalues    EBANDS =         5.39250849
  atomic energy  EATOM  =       206.13324734
  Solvation  Ediel_sol  =         0.00000000
  ---------------------------------------------------
  free energy    TOTEN  =       -10.24665318 eV

  energy without entropy =      -10.24665318  energy(sigma->0) =      -10.24665318


--------------------------------------------------------------------------------------------------------




 average (electrostatic) potential at core
  the test charge radii are     0.9892
  (the norm of the test charge is              1.0000)
       1 -83.4845       2 -83.4845
 
 
 
 E-fermi :   5.5962     XC(G=0):  -9.2003     alpha+bet :-11.5558

 Fermi energy:         5.5961545029

 spin component 1

 k-point     1 :       0.0000    0.0000    0.0000
  band No.  band energies     occupation 
      1      -6.1589      1.00000
      2       5.5621      1.00000
      3       5.5621      1.00000
      4       5.5964      1.00000
      5       8.0679      0.00000
      6       8.0869      0.00000
      7       8.0869      0.00000
      8       8.5452      0.00000

 k-point     2 :       0.3333    0.0000    0.0000
  band No.  band energies     occupation 
      1      -4.8251      1.00000
      2       0.3293      1.00000
      3       4.5726      1.00000
      4       4.6135      1.00000
      5       7.1961      0.00000
      6       9.0142      0.00000
      7       9.0429      0.00000
      8      13.2760      0.00000

 k-point     3 :       0.3333    0.3333    0.0000
  band No.  band energies     occupation 
      1      -4.3155      1.00000
      2       0.5784      1.00000
      3       3.2271      1.00000
      4       3.2339      1.00000
      5       6.3313      0.00000
      6       7.5768      0.00000
      7      12.6143      0.00000
      8      12.7048      0.00000

 k-point     4 :      -0.3333    0.3333    0.0000
  band No.  band energies     occupation 
      1      -3.0019      1.00000
      2      -1.1208      1.00000
      3       1.2955      1.00000
      4       3.5275      1.00000
      5       7.1506      0.00000
      6      11.3355      0.00000
      7      11.8908      0.00000
      8      12.4480      0.00000

 k-point     5 :      -0.0000    0.3333    0.3333
  band No.  band energies     occupation 
      1      -4.3005      1.00000
      2       0.6131      1.00000
      3       3.1975      1.00000
      4       3.1975      1.00000
      5       6.2871      0.00000
      6       7.5643      0.00000
      7      12.6639      0.00000
      8      12.6639      0.00000

 k-point     6 :      -0.3333    0.3333    0.3333
  band No.  band energies     occupation 
      1      -3.0028      1.00000
      2      -1.0978      1.00000
      3       1.3118      1.00000
      4       3.4891      1.00000
      5       7.1072      0.00000
      6      11.2682      0.00000
      7      11.8887      0.00000
      8      12.4769      0.00000
 Fermi energy:         5.5961545029

 spin component 2

 k-point     1 :       0.0000    0.0000    0.0000
  band No.  band energies     occupation 
      1      -6.1589      1.00000
      2       5.5621      1.00000
      3       5.5621      1.00000
      4       5.5963      1.00000
      5       8.0679      0.00000
      6       8.0869      0.00000
      7       8.0869      0.00000
      8       8.5452      0.00000

 k-point     2 :       0.3333    0.0000    0.0000
  band No.  band energies     occupation 
      1      -4.8251      1.00000
      2       0.3293      1.00000
      3       4.5726      1.00000
      4       4.6135      1.00000
      5       7.1961      0.00000
      6       9.0142      0.00000
      7       9.0429      0.00000
      8      13.2760      0.00000

 k-point     3 :       0.3333    0.3333    0.0000
  band No.  band energies     occupation 
      1      -4.3155      1.00000
      2       0.5784      1.00000
      3       3.2270      1.00000
      4       3.2339      1.00000
      5       6.3313      0.00000
      6       7.5768      0.00000
      7      12.6143      0.00000
      8      12.7048      0.00000

 k-point     4 :      -0.3333    0.3333    0.0000
  band No.  band energies     occupation 
      1      -3.0019      1.00000
      2      -1.1208      1.00000
      3       1.2955      1.00000
      4       3.5275      1.00000
      5       7.1506      0.00000
      6      11.3355      0.00000
      7      11.8908      0.00000
      8      12.4480      0.00000

 k-point     5 :      -0.0000    0.3333    0.3333
  band No.  band energies     occupation 
      1      -4.3005      1.00000
      2       0.6131      1.00000
      3       3.1975      1.00000
      4       3.1975      1.00000
      5       6.2871      0.00000
      6       7.5644      0.00000
      7      12.6639      0.00000
      8      12.6639      0.00000

 k-point     6 :      -0.3333    0.3333    0.3333
  band No.  band energies     occupation 
      1      -3.0028      1.00000
      2      -1.0978      1.00000
      3       1.3118      1.00000
      4       3.4891      1.00000
      5       7.1072      0.00000
      6      11.2682      0.00000
      7      11.8887      0.00000
      8      12.4769      0.00000


--------------------------------------------------------------------------------------------------------


 soft charge-density along one line, spin component           1
         0         1         2         3         4         5         6         7         8         9
 total charge-density along one line
 
 soft charge-density along one line, spin component           2
         0         1         2         3         4         5         6         7         8         9
 total charge-density along one line
 
 pseudopotential strength for first ion, spin component:           1
 18.440  25.726   0.000   0.000   0.000   0.000   0.000   0.000
 25.726  35.898   0.000   0.000   0.000   0.000   0.000   0.000
  0.000   0.000   4.181   0.000   0.000   7.792   0.000   0.000
  0.000   0.000   0.000   4.181   0.000   0.000   7.792   0.000
  0.000   0.000   0.000   0.000   4.181   0.000   0.000   7.792
  0.000   0.000   7.792   0.000   0.000  14.531   0.000   0.000
  0.000   0.000   0.000   7.792   0.000   0.000  14.531   0.000
  0.000   0.000   0.000   0.000   7.792   0.000   0.000  14.531
 pseudopotential strength for first ion, spin component:           2
 18.440  25.726  -0.000  -0.000  -0.000  -0.000  -0.000  -0.000
 25.726  35.898  -0.000  -0.000  -0.000  -0.000  -0.000  -0.000
 -0.000  -0.000   4.181   0.000   0.000   7.792   0.000   0.000
 -0.000  -0.000   0.000   4.181   0.000   0.000   7.792   0.000
 -0.000  -0.000   0.000   0.000   4.181   0.000   0.000   7.792
 -0.000  -0.000   7.792   0.000   0.000  14.531   0.000   0.000
 -0.000  -0.000   0.000   7.792   0.000   0.000  14.531   0.000
 -0.000  -0.000   0.000   0.000   7.792   0.000   0.000  14.531
 total augmentation occupancy for first ion, spin component:           1
  5.501  -2.040  -0.000   0.000   0.000   0.000   0.000   0.000
 -2.040   0.827   0.000   0.000   0.000   0.000   0.000   0.000
 -0.000   0.000   2.923   0.000  -0.000  -0.641  -0.000   0.000
  0.000   0.000   0.000   2.923  -0.000  -0.000  -0.641   0.000
  0.000   0.000  -0.000  -0.000   2.913   0.000   0.000  -0.637
  0.000  -0.000  -0.641  -0.000   0.000   0.150   0.000  -0.000
  0.000  -0.000  -0.000  -0.641   0.000   0.000   0.150  -0.000
  0.000   0.000   0.000   0.000  -0.637  -0.000  -0.000   0.149
 total augmentation occupancy for first ion, spin component:           2
 -0.000   0.000  -0.000   0.000   0.000   0.000   0.000   0.000
  0.000  -0.000   0.000   0.000   0.000   0.000   0.000   0.000
 -0.000   0.000  -0.000  -0.000   0.000   0.000   0.000  -0.000
  0.000   0.000  -0.000  -0.000   0.000   0.000   0.000  -0.000
  0.000   0.000   0.000   0.000  -0.000  -0.000  -0.000   0.000
  0.000   0.000   0.000   0.000  -0.000  -0.000  -0.000   0.000
  0.000   0.000   0.000   0.000  -0.000  -0.000  -0.000   0.000
  0.000   0.000  -0.000  -0.000   0.000   0.000   0.000  -0.000


------------------------ aborting loop because EDIFF is reached ----------------------------------------





 total charge

# of ion       s       p       d       tot
------------------------------------------
    1        0.718   0.960   0.000   1.678
    2        0.718   0.960   0.000   1.678
--------------------------------------------------
tot          1.436   1.921   0.000   3.357



 magnetization (x)

# of ion       s       p       d       tot
------------------------------------------
    1       -0.000  -0.000   0.000  -0.000
    2       -0.000  -0.000   0.000  -0.000
--------------------------------------------------
tot         -0.000  -0.000   0.000  -0.000
 
    CHARGE:  cpu time    0.0388: real time    0.0388
    FORLOC:  cpu time    0.0053: real time    0.0053
    FORNL :  cpu time    0.0431: real time    0.0431
    STRESS:  cpu time    0.2420: real time    0.2443
    FORCOR:  cpu time    0.3370: real time    0.3491
    FORHAR:  cpu time    0.0440: real time    0.0458
    MIXING:  cpu time    0.0119: real time    0.0121
    OFIELD:  cpu time    0.0001: real time    0.0001

  FORCE on cell =-STRESS in cart. coord.  units (eV):
  Direction    XX          YY          ZZ          XY          YZ          ZX
  --------------------------------------------------------------------------------------
  Alpha Z     3.24380     3.24380     3.24380
  Ewald     -75.61548   -75.09515   -75.09515    -0.00000    -0.00000     0.00000
  Hartree     5.31783     5.41768     5.41768     0.00000     0.00000     0.00000
  E(xc)     -25.29128   -25.29064   -25.29064     0.00000     0.00000     0.00000
  Local     -29.70724   -30.35852   -30.35852     0.00000     0.00000     0.00000
  n-local    76.35405    78.40830    74.42294     2.33982    -1.76007     1.22992
  augment   -11.30506   -11.30410   -11.30410    -0.00000    -0.00000    -0.00000
  Kinetic    57.20797    58.78559    55.30577     3.61195    -2.70134     1.74434
  Fock        0.00000     0.00000     0.00000     0.00000     0.00000     0.00000
  -------------------------------------------------------------------------------------
  Total       0.20459     0.07437     0.07437     0.00000     0.00000    -0.00000
  in kB       7.89631     2.87044     2.87044     0.00000     0.00000    -0.00000
  external pressure =        4.55 kB  Pullay stress =        0.00 kB


 VOLUME and BASIS-vectors are now :
 -----------------------------------------------------------------------------
  energy-cutoff  :      700.00
  volume of cell :       41.51
      direct lattice vectors                 reciprocal lattice vectors
     0.000000000  2.752777000  2.752777000    -0.182549775  0.181634764  0.181634764
     2.738979000  0.000000000  2.752777000     0.182549775 -0.181634764  0.181634764
     2.738979000  2.752777000  0.000000000     0.182549775  0.181634764 -0.181634764

  length of vectors
     3.893014568  3.883270165  3.883270165     0.315129807  0.315129807  0.315129807


 FORCES acting on ions
    electron-ion (+dipol)            ewald-force                    non-local-force                 convergence-correction
 -----------------------------------------------------------------------------------------------
   -.572E-08 -.689E-08 -.692E-08   -.711E-14 0.913E-14 -.429E-14   -.438E-16 -.446E-17 -.913E-17   -.479E-11 -.125E-10 -.125E-10
   0.572E-08 0.689E-08 0.692E-08   0.728E-14 -.908E-14 0.402E-14   0.318E-16 0.413E-16 -.434E-16   0.479E-11 0.125E-10 0.125E-10
 -----------------------------------------------------------------------------------------------
   0.376E-12 0.969E-13 0.244E-12   0.162E-15 0.558E-16 -.268E-15   -.120E-16 0.368E-16 -.526E-16   0.606E-17 0.668E-15 0.182E-14
 
 
 POSITION                                       TOTAL-FORCE (eV/Angst)
 -----------------------------------------------------------------------------------
      4.10847      4.12917      4.12917        -0.000000      0.000000      0.000000
      2.73898      2.75278      2.75278         0.000000     -0.000000     -0.000000
 -----------------------------------------------------------------------------------
    total drift:                                0.000000      0.000000      0.000000


--------------------------------------------------------------------------------------------------------



  FREE ENERGIE OF THE ION-ELECTRON SYSTEM (eV)
  ---------------------------------------------------
  free  energy   TOTEN  =       -10.24665318 eV

  energy  without entropy=      -10.24665318  energy(sigma->0) =      -10.24665318
 


--------------------------------------------------------------------------------------------------------


    POTLOK:  cpu time    1.0053: real time    1.0564


--------------------------------------------------------------------------------------------------------




--------------------------------------------------------------------------------------------------------


     LOOP+:  cpu time   13.6347: real time   13.8320
    4ORBIT:  cpu time    0.0000: real time    0.0000



 total charge

# of ion       s       p       d       tot
------------------------------------------
    1        0.718   0.960   0.000   1.678
    2        0.718   0.960   0.000   1.678
--------------------------------------------------
tot          1.436   1.921   0.000   3.357



 magnetization (x)

# of ion       s       p       d       tot
------------------------------------------
    1       -0.000  -0.000   0.000  -0.000
    2       -0.000  -0.000   0.000  -0.000
--------------------------------------------------
tot         -0.000  -0.000   0.000  -0.000
 
 BZINTS: Fermi energy:    5.596155;    8.000000 electrons
         Band energy: 0.539251E+01;  BLOECHL correction:   -0.000000

 total amount of memory used by VASP MPI-rank0    77851. kBytes
=======================================================================

   base      :      30000. kBytes
   nonl-proj :        751. kBytes
   fftplans  :      13060. kBytes
   grid      :      31228. kBytes
   one-center:         12. kBytes
   wavefun   :       2800. kBytes
 
  
  
 General timing and accounting informations for this job:
 ========================================================
  
                  Total CPU time used (sec):       16.889
                            User time (sec):       15.085
                          System time (sec):        1.804
                         Elapsed time (sec):       17.206
  
                   Maximum memory used (kb):   118603776.
                   Average memory used (kb):          N/A
  
                          Minor page faults:       157127
                          Major page faults:          326
                 Voluntary context switches:           15
