<?xml version="1.0" encoding="ISO-8859-1"?>
<modeling>
 <generator>
  <i name="program" type="string">vasp </i>
  <i name="version" type="string">6.2.1  </i>
  <i name="subversion" type="string">16May21 (build Oct 27 2021 18:14:32) complex                          parallel </i>
  <i name="platform" type="string">LinuxIFC </i>
  <i name="date" type="string">2021 11 08 </i>
  <i name="time" type="string">17:27:46 </i>
 </generator>
 <incar>
  <i type="string" name="PREC">Accurate</i>
  <i type="string" name="ALGO">Normal</i>
  <i type="int" name="ISPIN">     2</i>
  <i type="int" name="NELM">   200</i>
  <i type="int" name="IBRION">     2</i>
  <i name="EDIFF">      0.00000010</i>
  <i name="EDIFFG">     -0.00100000</i>
  <i type="int" name="NSW">     1</i>
  <i type="int" name="ISIF">     3</i>
  <i name="ENCUT">    700.00000000</i>
  <i name="ENAUG">   1360.00000000</i>
  <v name="MAGMOM">      0.00000000      0.00000000</v>
  <i type="logical" name="LREAL"> F  </i>
  <i type="int" name="ISMEAR">    -5</i>
  <i name="SIGMA">      0.05000000</i>
  <i name="KSPACING">      0.29252878</i>
  <i type="logical" name="LWAVE"> F  </i>
  <i type="logical" name="LCHARG"> T  </i>
  <i type="logical" name="LVTOT"> T  </i>
  <i type="int" name="LORBIT">    11</i>
  <i type="logical" name="LELF"> T  </i>
  <i type="logical" name="LASPH"> T  </i>
  <i type="logical" name="LAECHG"> F  </i>
  <i type="logical" name="LMIXTAU"> T  </i>
 </incar>
 <primitive_cell>
  <structure name="primitive_cell" >
   <crystal>
    <varray name="basis" >
     <v>       0.00000000       2.75277700       2.75277700 </v>
     <v>       2.73897900       0.00000000       2.75277700 </v>
     <v>       2.73897900       2.75277700       0.00000000 </v>
    </varray>
    <i name="volume">     41.51076721 </i>
    <varray name="rec_basis" >
     <v>      -0.18254977       0.18163476       0.18163476 </v>
     <v>       0.18254977      -0.18163476       0.18163476 </v>
     <v>       0.18254977       0.18163476      -0.18163476 </v>
    </varray>
   </crystal>
   <varray name="positions" >
    <v>       0.75000000       0.75000000       0.75000000 </v>
    <v>       0.50000000       0.50000000       0.50000000 </v>
   </varray>
  </structure>
  <varray name="primitive_index" >
   <v type="int" >        1 </v>
   <v type="int" >        2 </v>
  </varray>
 </primitive_cell>
 <kpoints>
  <generation param="Gamma">
   <v type="int" name="divisions">       3        3        3 </v>
   <v name="usershift">      0.00000000       0.00000000       0.00000000 </v>
   <v name="genvec1">      0.33333333      -0.00000000      -0.00000000 </v>
   <v name="genvec2">      0.00000000       0.33333333       0.00000000 </v>
   <v name="genvec3">     -0.00000000       0.00000000       0.33333333 </v>
   <v name="shift">      0.00000000       0.00000000       0.00000000 </v>
  </generation>
  <varray name="kpointlist" >
   <v>       0.00000000       0.00000000       0.00000000 </v>
   <v>       0.33333333       0.00000000       0.00000000 </v>
   <v>       0.33333333       0.33333333       0.00000000 </v>
   <v>      -0.33333333       0.33333333       0.00000000 </v>
   <v>      -0.00000000       0.33333333       0.33333333 </v>
   <v>      -0.33333333       0.33333333       0.33333333 </v>
  </varray>
  <varray name="weights" >
   <v>       0.03703704 </v>
   <v>       0.29629630 </v>
   <v>       0.14814815 </v>
   <v>       0.29629630 </v>
   <v>       0.07407407 </v>
   <v>       0.14814815 </v>
  </varray>
  <varray name="tetrahedronlist"  type="int" >
   <v type="int" >       16        1        2        2        3 </v>
   <v type="int" >        8        1        2        2        5 </v>
   <v type="int" >       16        2        3        4        6 </v>
   <v type="int" >       16        2        2        4        6 </v>
   <v type="int" >        8        2        2        3        6 </v>
   <v type="int" >        8        2        2        4        5 </v>
   <v type="int" >       16        2        4        5        6 </v>
   <v type="int" >        8        2        2        4        4 </v>
   <v type="int" >       16        2        3        4        4 </v>
   <v type="int" >        8        2        2        3        4 </v>
   <v type="int" >        8        3        3        4        4 </v>
   <v type="int" >        8        3        4        4        6 </v>
   <v type="int" >        8        3        4        4        4 </v>
   <v type="int" >        4        4        4        6        6 </v>
   <v type="int" >        8        4        5        6        6 </v>
   <v type="int" >        2        4        4        4        4 </v>
   <v type="int" >        4        5        5        6        6 </v>
  </varray>
  <i name="volumeweight">      0.00617284 </i>
 </kpoints>
 <parameters>
  <separator name="general" >
   <i type="string" name="SYSTEM">unknown system</i>
   <i type="logical" name="LCOMPAT"> F  </i>
  </separator>
  <separator name="electronic" >
   <i type="string" name="PREC">accura</i>
   <i name="ENMAX">    700.00000000</i>
   <i name="ENAUG">   1360.00000000</i>
   <i name="EDIFF">      0.00000010</i>
   <i type="int" name="IALGO">    38</i>
   <i type="int" name="IWAVPR">    11</i>
   <i type="int" name="NBANDS">     8</i>
   <i type="int" name="NBANDSLOW">    -1</i>
   <i type="int" name="NBANDSHIGH">    -1</i>
   <i name="NELECT">      8.00000000</i>
   <i type="int" name="TURBO">     0</i>
   <i type="int" name="IRESTART">     0</i>
   <i type="int" name="NREBOOT">     0</i>
   <i type="int" name="NMIN">     0</i>
   <i name="EREF">      0.00000000</i>
   <separator name="electronic smearing" >
    <i type="int" name="ISMEAR">    -5</i>
    <i name="SIGMA">      0.05000000</i>
    <i name="KSPACING">      0.29252878</i>
    <i type="logical" name="KGAMMA"> T  </i>
    <i type="logical" name="KBLOWUP"> T  </i>
   </separator>
   <separator name="electronic projectors" >
    <i type="logical" name="LREAL"> F  </i>
    <v name="ROPT">      0.00000000</v>
    <i type="int" name="LMAXPAW">  -100</i>
    <i type="int" name="LMAXMIX">     2</i>
    <i type="logical" name="NLSPLINE"> F  </i>
   </separator>
   <separator name="electronic startup" >
    <i type="int" name="ISTART">     0</i>
    <i type="int" name="ICHARG">     2</i>
    <i type="int" name="INIWAV">     1</i>
   </separator>
   <separator name="electronic spin" >
    <i type="int" name="ISPIN">     2</i>
    <i type="logical" name="LNONCOLLINEAR"> F  </i>
    <v name="MAGMOM">      0.00000000      0.00000000</v>
    <i name="NUPDOWN">     -1.00000000</i>
    <i type="logical" name="LSORBIT"> F  </i>
    <v name="SAXIS">      0.00000000      0.00000000      1.00000000</v>
    <i type="logical" name="LSPIRAL"> F  </i>
    <v name="QSPIRAL">      0.00000000      0.00000000      0.00000000</v>
    <i type="logical" name="LZEROZ"> F  </i>
   </separator>
   <separator name="electronic exchange-correlation" >
    <i type="logical" name="LASPH"> T  </i>
    <i type="logical" name="LMETAGGA"> F  </i>
   </separator>
   <separator name="electronic convergence" >
    <i type="int" name="NELM">   200</i>
    <i type="int" name="NELMDL">    -5</i>
    <i type="int" name="NELMIN">     2</i>
    <i name="ENINI">    700.00000000</i>
    <separator name="electronic convergence detail" >
     <i type="logical" name="LDIAG"> T  </i>
     <i type="logical" name="LSUBROT"> F  </i>
     <i name="WEIMIN">      0.00100000</i>
     <i name="EBREAK">      0.00000000</i>
     <i name="DEPER">      0.30000000</i>
     <i type="int" name="NRMM">     4</i>
     <i name="TIME">      0.40000000</i>
    </separator>
   </separator>
   <separator name="electronic mixer" >
    <i name="AMIX">      0.40000000</i>
    <i name="BMIX">      1.00000000</i>
    <i name="AMIN">      0.10000000</i>
    <i name="AMIX_MAG">      1.60000000</i>
    <i name="BMIX_MAG">      1.00000000</i>
    <separator name="electronic mixer details" >
     <i type="int" name="IMIX">     4</i>
     <i type="logical" name="MIXFIRST"> F  </i>
     <i type="int" name="MAXMIX">   -45</i>
     <i name="WC">    100.00000000</i>
     <i type="int" name="INIMIX">     1</i>
     <i type="int" name="MIXPRE">     1</i>
     <i type="int" name="MREMOVE">     5</i>
    </separator>
   </separator>
   <separator name="electronic dipolcorrection" >
    <i type="logical" name="LDIPOL"> F  </i>
    <i type="logical" name="LMONO"> F  </i>
    <i type="int" name="IDIPOL">     0</i>
    <i name="EPSILON">      1.00000000</i>
    <v name="DIPOL">   -100.00000000   -100.00000000   -100.00000000</v>
    <i name="EFIELD">      0.00000000</i>
   </separator>
  </separator>
  <separator name="grids" >
   <i type="int" name="NGX">    36</i>
   <i type="int" name="NGY">    36</i>
   <i type="int" name="NGZ">    36</i>
   <i type="int" name="NGXF">    72</i>
   <i type="int" name="NGYF">    72</i>
   <i type="int" name="NGZF">    72</i>
   <i type="logical" name="ADDGRID"> F  </i>
  </separator>
  <separator name="ionic" >
   <i type="int" name="NSW">     1</i>
   <i type="int" name="IBRION">     2</i>
   <i type="int" name="MDALGO">     0</i>
   <i type="int" name="ISIF">     3</i>
   <i name="PSTRESS">      0.00000000</i>
   <i name="EDIFFG">     -0.00100000</i>
   <i type="int" name="NFREE">     1</i>
   <i name="POTIM">      0.50000000</i>
   <i name="SMASS">     -3.00000000</i>
   <i name="SCALEE">      1.00000000</i>
  </separator>
  <separator name="ionic md" >
   <i name="TEBEG">      0.00010000</i>
   <i name="TEEND">      0.00010000</i>
   <i type="int" name="NBLOCK">     1</i>
   <i type="int" name="KBLOCK">     1</i>
   <i type="int" name="NPACO">   256</i>
   <i name="APACO">     16.00000000</i>
  </separator>
  <separator name="symmetry" >
   <i type="int" name="ISYM">     2</i>
   <i name="SYMPREC">      0.00001000</i>
  </separator>
  <separator name="dos" >
   <i type="int" name="LORBIT">    11</i>
   <v name="RWIGS">     -1.00000000</v>
   <i type="int" name="NEDOS">   301</i>
   <i name="EMIN">     10.00000000</i>
   <i name="EMAX">    -10.00000000</i>
   <i name="EFERMI">      0.00000000</i>
  </separator>
  <separator name="writing" >
   <i type="int" name="NWRITE">     2</i>
   <i type="logical" name="LWAVE"> F  </i>
   <i type="logical" name="LDOWNSAMPLE"> F  </i>
   <i type="logical" name="LCHARG"> T  </i>
   <i type="logical" name="LPARD"> F  </i>
   <i type="logical" name="LVTOT"> T  </i>
   <i type="logical" name="LVHAR"> F  </i>
   <i type="logical" name="LELF"> T  </i>
   <i type="logical" name="LOPTICS"> F  </i>
   <v name="STM">      0.00000000      0.00000000      0.00000000      0.00000000      0.00000000      0.00000000      0.00000000</v>
  </separator>
  <separator name="performance" >
   <i type="int" name="NPAR">     1</i>
   <i type="int" name="NSIM">     4</i>
   <i type="int" name="NBLK">    -1</i>
   <i type="logical" name="LPLANE"> T  </i>
   <i type="logical" name="LSCALAPACK"> F  </i>
   <i type="logical" name="LSCAAWARE"> F  </i>
   <i type="logical" name="LSCALU"> F  </i>
   <i type="logical" name="LASYNC"> F  </i>
   <i type="logical" name="LORBITALREAL"> F  </i>
  </separator>
  <separator name="miscellaneous" >
   <i type="int" name="IDIOT">     3</i>
   <i type="int" name="PHON_NSTRUCT">    -1</i>
   <i type="logical" name="LMUSIC"> F  </i>
   <v name="POMASS">     28.08500000</v>
   <v name="DARWINR">      0.00000000</v>
   <v name="DARWINV">      1.00000000</v>
   <i type="logical" name="LCORR"> T  </i>
  </separator>
  <i type="logical" name="GGA_COMPAT"> T  </i>
  <i type="logical" name="LBERRY"> F  </i>
  <i type="int" name="ICORELEVEL">     0</i>
  <i type="logical" name="LDAU"> F  </i>
  <i type="int" name="I_CONSTRAINED_M">     0</i>
  <separator name="electronic exchange-correlation" >
   <i type="string" name="GGA">--</i>
   <i type="int" name="VOSKOWN">     0</i>
   <i type="logical" name="LHFCALC"> F  </i>
   <i type="string" name="PRECFOCK"></i>
   <i type="logical" name="LSYMGRAD"> F  </i>
   <i type="logical" name="LHFONE"> F  </i>
   <i type="logical" name="LRHFCALC"> F  </i>
   <i type="logical" name="LTHOMAS"> F  </i>
   <i type="logical" name="LMODELHF"> F  </i>
   <i type="logical" name="LFOCKACE"> F  </i>
   <i name="ENCUT4O">     -1.00000000</i>
   <i type="int" name="EXXOEP">     0</i>
   <i type="int" name="FOURORBIT">     0</i>
   <i name="AEXX">      0.00000000</i>
   <i name="HFALPHA">      0.00000000</i>
   <i name="MCALPHA">      0.00000000</i>
   <i name="ALDAX">      1.00000000</i>
   <i name="AGGAX">      1.00000000</i>
   <i name="ALDAC">      1.00000000</i>
   <i name="AGGAC">      1.00000000</i>
   <i type="int" name="NKREDX">     1</i>
   <i type="int" name="NKREDY">     1</i>
   <i type="int" name="NKREDZ">     1</i>
   <i type="logical" name="SHIFTRED"> F  </i>
   <i type="logical" name="ODDONLY"> F  </i>
   <i type="logical" name="EVENONLY"> F  </i>
   <i type="int" name="LMAXFOCK">     0</i>
   <i type="int" name="NMAXFOCKAE">     0</i>
   <i type="logical" name="LFOCKAEDFT"> F  </i>
   <i name="HFSCREEN">      0.00000000</i>
   <i name="HFSCREENC">      0.00000000</i>
   <i type="int" name="NBANDSGWLOW">     0</i>
  </separator>
  <separator name="vdW DFT" >
   <i type="logical" name="LUSE_VDW"> F  </i>
   <i name="Zab_VDW">     -0.84910000</i>
   <i name="PARAM1">      0.12340000</i>
   <i name="PARAM2">      1.00000000</i>
   <i name="PARAM3">      0.00000000</i>
  </separator>
  <separator name="model GW" >
   <i type="int" name="MODEL_GW">     0</i>
   <i name="MODEL_EPS0">     12.45323016</i>
   <i name="MODEL_ALPHA">      1.00000000</i>
  </separator>
  <separator name="linear response parameters" >
   <i type="logical" name="LEPSILON"> F  </i>
   <i type="logical" name="LRPA"> F  </i>
   <i type="logical" name="LNABLA"> F  </i>
   <i type="logical" name="LVEL"> F  </i>
   <i type="int" name="KINTER">     0</i>
   <i name="CSHIFT">      0.10000000</i>
   <i name="OMEGAMAX">     -1.00000000</i>
   <i name="DEG_THRESHOLD">      0.00200000</i>
   <i name="RTIME">     -0.10000000</i>
   <i name="WPLASMAI">      0.00000000</i>
   <v name="DFIELD">      0.00000000      0.00000000      0.00000000</v>
   <v name="WPLASMA">      0.00000000      0.00000000      0.00000000      0.00000000      0.00000000      0.00000000      0.00000000      0.00000000      0.00000000</v>
  </separator>
  <separator name="orbital magnetization" >
   <i type="logical" name="NUCIND"> F  </i>
   <v name="MAGPOS">      0.00000000      0.00000000      0.00000000</v>
   <i type="logical" name="LNICSALL"> T  </i>
   <i type="logical" name="ORBITALMAG"> F  </i>
   <i type="logical" name="LMAGBLOCH"> F  </i>
   <i type="logical" name="LCHIMAG"> F  </i>
   <i type="logical" name="LGAUGE"> T  </i>
   <i type="int" name="MAGATOM">     0</i>
   <v name="MAGDIPOL">      0.00000000      0.00000000      0.00000000</v>
   <v name="AVECCONST">      0.00000000      0.00000000      0.00000000</v>
  </separator>
  <separator name="response functions" >
   <i type="logical" name="LFINITE_TEMPERATURE"> F  </i>
   <i type="logical" name="LADDER"> F  </i>
   <i type="logical" name="LRPAFORCE"> F  </i>
   <i type="logical" name="LFXC"> F  </i>
   <i type="logical" name="LHARTREE"> T  </i>
   <i type="int" name="IBSE">     0</i>
   <v type="int" name="KPOINT">    -1     0     0     0</v>
   <i type="logical" name="LTCTC"> F  </i>
   <i type="logical" name="LTCTE"> F  </i>
   <i type="logical" name="LTETE"> F  </i>
   <i type="logical" name="LTRIPLET"> F  </i>
   <i type="logical" name="LFXCEPS"> F  </i>
   <i type="logical" name="LFXHEG"> F  </i>
   <i type="int" name="NATURALO">     2</i>
   <i type="logical" name="LHOLEGF"> F  </i>
   <i type="logical" name="L2ORDER"> F  </i>
   <i type="logical" name="LDMP1"> F  </i>
   <i type="logical" name="LMP2LT"> F  </i>
   <i type="logical" name="LSMP2LT"> F  </i>
   <i type="logical" name="LGWLF"> F  </i>
   <i name="ENCUTGW">     -2.00000000</i>
   <i name="ENCUTGWSOFT">     -2.00000000</i>
   <i name="ENCUTLF">     -1.00000000</i>
   <i type="logical" name="LESF_SPLINES"> F  </i>
   <i type="int" name="LMAXMP2">    -1</i>
   <i name="SCISSOR">      0.00000000</i>
   <i type="int" name="NOMEGA">     0</i>
   <i type="int" name="NOMEGAR">     0</i>
   <i type="int" name="NBANDSGW">    -1</i>
   <i type="int" name="NBANDSO">    -1</i>
   <i type="int" name="NBANDSV">    -1</i>
   <i type="int" name="NELM">   200</i>
   <i type="int" name="NELMHF">     1</i>
   <i type="int" name="DIM">     3</i>
   <i type="int" name="IESPILON">     4</i>
   <i type="int" name="ANTIRES">     0</i>
   <i name="OMEGAMAX">    -30.00000000</i>
   <i name="OMEGAMIN">    -30.00000000</i>
   <i name="OMEGATL">   -200.00000000</i>
   <i type="int" name="OMEGAGRID">     0</i>
   <i name="CSHIFT">     -0.10000000</i>
   <i type="logical" name="LSELFENERGY"> F  </i>
   <i type="logical" name="LSPECTRAL"> F  </i>
   <i type="logical" name="LSPECTRALGW"> F  </i>
   <i type="logical" name="LSINGLES"> F  </i>
   <i type="logical" name="LFERMIGW"> F  </i>
   <i type="logical" name="ODDONLYGW"> F  </i>
   <i type="logical" name="EVENONLYGW"> F  </i>
   <i type="int" name="NKREDLFX">     1</i>
   <i type="int" name="NKREDLFY">     1</i>
   <i type="int" name="NKREDLFZ">     1</i>
   <i type="int" name="MAXMEM">  2800</i>
   <i type="int" name="TELESCOPE">     0</i>
   <i type="int" name="NTAUPAR">    -1</i>
   <i type="int" name="NOMEGAPAR">    -1</i>
   <i name="DAMP_NEWTON">      0.80000001</i>
   <i name="LAMBDA">      1.00000000</i>
  </separator>
  <separator name="External order field" >
   <i name="OFIELD_KAPPA">      0.00000000</i>
   <v name="OFIELD_K">      0.00000000      0.00000000      0.00000000</v>
   <i name="OFIELD_Q6_NEAR">      0.00000000</i>
   <i name="OFIELD_Q6_FAR">      0.00000000</i>
   <i name="OFIELD_A">      0.00000000</i>
  </separator>
 </parameters>
 <atominfo>
  <atoms>       2 </atoms>
  <types>       1 </types>
  <array name="atoms" >
   <dimension dim="1">ion</dimension>
   <field type="string">element</field>
   <field type="int">atomtype</field>
   <set>
    <rc><c>Si</c><c>   1</c></rc>
    <rc><c>Si</c><c>   1</c></rc>
   </set>
  </array>
  <array name="atomtypes" >
   <dimension dim="1">type</dimension>
   <field type="int">atomspertype</field>
   <field type="string">element</field>
   <field>mass</field>
   <field>valence</field>
   <field type="string">pseudopotential</field>
   <set>
    <rc><c>   2</c><c>Si</c><c>     28.08500000</c><c>      4.00000000</c><c>  PAW_PBE Si 05Jan2001                  </c></rc>
   </set>
  </array>
 </atominfo>
 <structure name="initialpos" >
  <crystal>
   <varray name="basis" >
    <v>       0.00000000       2.75277700       2.75277700 </v>
    <v>       2.73897900       0.00000000       2.75277700 </v>
    <v>       2.73897900       2.75277700       0.00000000 </v>
   </varray>
   <i name="volume">     41.51076721 </i>
   <varray name="rec_basis" >
    <v>      -0.18254977       0.18163476       0.18163476 </v>
    <v>       0.18254977      -0.18163476       0.18163476 </v>
    <v>       0.18254977       0.18163476      -0.18163476 </v>
   </varray>
  </crystal>
  <varray name="positions" >
   <v>       0.75000000       0.75000000       0.75000000 </v>
   <v>       0.50000000       0.50000000       0.50000000 </v>
  </varray>
 </structure>
 <calculation>
  <scstep>
   <time name="dav">    0.52    0.52</time>
   <time name="total">    1.06    1.07</time>
   <energy>
    <i name="alphaZ">      3.24379751 </i>
    <i name="ewald">   -225.80567222 </i>
    <i name="hartreedc">    -11.55418764 </i>
    <i name="XCdc">    -18.74358033 </i>
    <i name="pawpsdc">    176.24759923 </i>
    <i name="pawaedc">   -141.06103558 </i>
    <i name="eentropy">      0.00000000 </i>
    <i name="bandstr">     25.84725878 </i>
    <i name="atom">    206.13324734 </i>
    <i name="e_fr_energy">     14.30742708 </i>
    <i name="e_wo_entrp">     14.30742708 </i>
    <i name="e_0_energy">     14.30742708 </i>
   </energy>
  </scstep>
  <scstep>
   <time name="dav">    0.55    0.57</time>
   <time name="total">    0.55    0.57</time>
   <energy>
    <i name="e_fr_energy">     -9.94096849 </i>
    <i name="e_wo_entrp">     -9.94096849 </i>
    <i name="e_0_energy">     -9.94096849 </i>
   </energy>
  </scstep>
  <scstep>
   <time name="dav">    0.50    0.50</time>
   <time name="total">    0.50    0.50</time>
   <energy>
    <i name="e_fr_energy">    -10.45568748 </i>
    <i name="e_wo_entrp">    -10.45568748 </i>
    <i name="e_0_energy">    -10.45568748 </i>
   </energy>
  </scstep>
  <scstep>
   <time name="dav">    0.48    0.49</time>
   <time name="total">    0.48    0.49</time>
   <energy>
    <i name="e_fr_energy">    -10.45993607 </i>
    <i name="e_wo_entrp">    -10.45993607 </i>
    <i name="e_0_energy">    -10.45993607 </i>
   </energy>
  </scstep>
  <scstep>
   <time name="dav">    0.35    0.35</time>
   <time name="total">    0.40    0.41</time>
   <energy>
    <i name="e_fr_energy">    -10.45996407 </i>
    <i name="e_wo_entrp">    -10.45996407 </i>
    <i name="e_0_energy">    -10.45996407 </i>
   </energy>
  </scstep>
  <scstep>
   <time name="dav">    0.27    0.27</time>
   <time name="total">    0.92    0.93</time>
   <energy>
    <i name="e_fr_energy">    -10.31112436 </i>
    <i name="e_wo_entrp">    -10.31112436 </i>
    <i name="e_0_energy">    -10.31112436 </i>
   </energy>
  </scstep>
  <scstep>
   <time name="dav">    0.30    0.30</time>
   <time name="total">    0.89    0.90</time>
   <energy>
    <i name="e_fr_energy">    -10.24373971 </i>
    <i name="e_wo_entrp">    -10.24373971 </i>
    <i name="e_0_energy">    -10.24373971 </i>
   </energy>
  </scstep>
  <scstep>
   <time name="dav">    0.49    0.50</time>
   <time name="total">    1.12    1.13</time>
   <energy>
    <i name="e_fr_energy">    -10.24616825 </i>
    <i name="e_wo_entrp">    -10.24616825 </i>
    <i name="e_0_energy">    -10.24616825 </i>
   </energy>
  </scstep>
  <scstep>
   <time name="dav">    0.82    0.85</time>
   <time name="total">    1.72    1.77</time>
   <energy>
    <i name="e_fr_energy">    -10.24660790 </i>
    <i name="e_wo_entrp">    -10.24660790 </i>
    <i name="e_0_energy">    -10.24660790 </i>
   </energy>
  </scstep>
  <scstep>
   <time name="dav">    0.36    0.36</time>
   <time name="total">    1.09    1.10</time>
   <energy>
    <i name="e_fr_energy">    -10.24665017 </i>
    <i name="e_wo_entrp">    -10.24665017 </i>
    <i name="e_0_energy">    -10.24665017 </i>
   </energy>
  </scstep>
  <scstep>
   <time name="dav">    0.40    0.40</time>
   <time name="total">    1.01    1.01</time>
   <energy>
    <i name="e_fr_energy">    -10.24665317 </i>
    <i name="e_wo_entrp">    -10.24665317 </i>
    <i name="e_0_energy">    -10.24665317 </i>
   </energy>
  </scstep>
  <scstep>
   <time name="dav">    0.33    0.33</time>
   <time name="total">    0.82    0.82</time>
   <energy>
    <i name="alphaZ">      3.24379751 </i>
    <i name="ewald">   -225.80567222 </i>
    <i name="hartreedc">    -16.15242588 </i>
    <i name="XCdc">    -18.03254266 </i>
    <i name="pawpsdc">    832.20647814 </i>
    <i name="pawaedc">   -797.23204389 </i>
    <i name="eentropy">      0.00000000 </i>
    <i name="bandstr">      5.39250849 </i>
    <i name="atom">    206.13324734 </i>
    <i name="e_fr_energy">    -10.24665318 </i>
    <i name="e_wo_entrp">    -10.24665318 </i>
    <i name="e_0_energy">    -10.24665318 </i>
   </energy>
  </scstep>
  <structure>
   <crystal>
    <varray name="basis" >
     <v>       0.00000000       2.75277700       2.75277700 </v>
     <v>       2.73897900       0.00000000       2.75277700 </v>
     <v>       2.73897900       2.75277700       0.00000000 </v>
    </varray>
    <i name="volume">     41.51076721 </i>
    <varray name="rec_basis" >
     <v>      -0.18254977       0.18163476       0.18163476 </v>
     <v>       0.18254977      -0.18163476       0.18163476 </v>
     <v>       0.18254977       0.18163476      -0.18163476 </v>
    </varray>
   </crystal>
   <varray name="positions" >
    <v>       0.75000000       0.75000000       0.75000000 </v>
    <v>       0.50000000       0.50000000       0.50000000 </v>
   </varray>
  </structure>
  <varray name="forces" >
   <v>      -0.00000000       0.00000000       0.00000000 </v>
   <v>       0.00000000      -0.00000000      -0.00000000 </v>
  </varray>
  <varray name="stress" >
   <v>       7.89630879      -0.00000000      -0.00000000 </v>
   <v>       0.00000000       2.87044245       0.00000000 </v>
   <v>       0.00000000       0.00000000       2.87044245 </v>
  </varray>
  <energy>
   <i name="e_fr_energy">    -10.24665318 </i>
   <i name="e_wo_entrp">    -10.24665318 </i>
   <i name="e_0_energy">    -10.24665318 </i>
  </energy>
  <time name="totalsc">   13.63   13.83</time>
  <eigenvalues>
   <array>
    <dimension dim="1">band</dimension>
    <dimension dim="2">kpoint</dimension>
    <dimension dim="3">spin</dimension>
    <field>eigene</field>
    <field>occ</field>
    <set>
     <set comment="spin 1">
      <set comment="kpoint 1">
       <r>   -6.1589    1.0000 </r>
       <r>    5.5621    1.0000 </r>
       <r>    5.5621    1.0000 </r>
       <r>    5.5964    1.0000 </r>
       <r>    8.0679    0.0000 </r>
       <r>    8.0869    0.0000 </r>
       <r>    8.0869    0.0000 </r>
       <r>    8.5452    0.0000 </r>
      </set>
      <set comment="kpoint 2">
       <r>   -4.8251    1.0000 </r>
       <r>    0.3293    1.0000 </r>
       <r>    4.5726    1.0000 </r>
       <r>    4.6135    1.0000 </r>
       <r>    7.1961    0.0000 </r>
       <r>    9.0142    0.0000 </r>
       <r>    9.0429    0.0000 </r>
       <r>   13.2760    0.0000 </r>
      </set>
      <set comment="kpoint 3">
       <r>   -4.3155    1.0000 </r>
       <r>    0.5784    1.0000 </r>
       <r>    3.2271    1.0000 </r>
       <r>    3.2339    1.0000 </r>
       <r>    6.3313    0.0000 </r>
       <r>    7.5768    0.0000 </r>
       <r>   12.6143    0.0000 </r>
       <r>   12.7048    0.0000 </r>
      </set>
      <set comment="kpoint 4">
       <r>   -3.0019    1.0000 </r>
       <r>   -1.1208    1.0000 </r>
       <r>    1.2955    1.0000 </r>
       <r>    3.5275    1.0000 </r>
       <r>    7.1506    0.0000 </r>
       <r>   11.3355    0.0000 </r>
       <r>   11.8908    0.0000 </r>
       <r>   12.4480    0.0000 </r>
      </set>
      <set comment="kpoint 5">
       <r>   -4.3005    1.0000 </r>
       <r>    0.6131    1.0000 </r>
       <r>    3.1975    1.0000 </r>
       <r>    3.1975    1.0000 </r>
       <r>    6.2871    0.0000 </r>
       <r>    7.5643    0.0000 </r>
       <r>   12.6639    0.0000 </r>
       <r>   12.6639    0.0000 </r>
      </set>
      <set comment="kpoint 6">
       <r>   -3.0028    1.0000 </r>
       <r>   -1.0978    1.0000 </r>
       <r>    1.3118    1.0000 </r>
       <r>    3.4891    1.0000 </r>
       <r>    7.1072    0.0000 </r>
       <r>   11.2682    0.0000 </r>
       <r>   11.8887    0.0000 </r>
       <r>   12.4769    0.0000 </r>
      </set>
     </set>
     <set comment="spin 2">
      <set comment="kpoint 1">
       <r>   -6.1589    1.0000 </r>
       <r>    5.5621    1.0000 </r>
       <r>    5.5621    1.0000 </r>
       <r>    5.5963    1.0000 </r>
       <r>    8.0679    0.0000 </r>
       <r>    8.0869    0.0000 </r>
       <r>    8.0869    0.0000 </r>
       <r>    8.5452    0.0000 </r>
      </set>
      <set comment="kpoint 2">
       <r>   -4.8251    1.0000 </r>
       <r>    0.3293    1.0000 </r>
       <r>    4.5726    1.0000 </r>
       <r>    4.6135    1.0000 </r>
       <r>    7.1961    0.0000 </r>
       <r>    9.0142    0.0000 </r>
       <r>    9.0429    0.0000 </r>
       <r>   13.2760    0.0000 </r>
      </set>
      <set comment="kpoint 3">
       <r>   -4.3155    1.0000 </r>
       <r>    0.5784    1.0000 </r>
       <r>    3.2270    1.0000 </r>
       <r>    3.2339    1.0000 </r>
       <r>    6.3313    0.0000 </r>
       <r>    7.5768    0.0000 </r>
       <r>   12.6143    0.0000 </r>
       <r>   12.7048    0.0000 </r>
      </set>
      <set comment="kpoint 4">
       <r>   -3.0019    1.0000 </r>
       <r>   -1.1208    1.0000 </r>
       <r>    1.2955    1.0000 </r>
       <r>    3.5275    1.0000 </r>
       <r>    7.1506    0.0000 </r>
       <r>   11.3355    0.0000 </r>
       <r>   11.8908    0.0000 </r>
       <r>   12.4480    0.0000 </r>
      </set>
      <set comment="kpoint 5">
       <r>   -4.3005    1.0000 </r>
       <r>    0.6131    1.0000 </r>
       <r>    3.1975    1.0000 </r>
       <r>    3.1975    1.0000 </r>
       <r>    6.2871    0.0000 </r>
       <r>    7.5644    0.0000 </r>
       <r>   12.6639    0.0000 </r>
       <r>   12.6639    0.0000 </r>
      </set>
      <set comment="kpoint 6">
       <r>   -3.0028    1.0000 </r>
       <r>   -1.0978    1.0000 </r>
       <r>    1.3118    1.0000 </r>
       <r>    3.4891    1.0000 </r>
       <r>    7.1072    0.0000 </r>
       <r>   11.2682    0.0000 </r>
       <r>   11.8887    0.0000 </r>
       <r>   12.4769    0.0000 </r>
      </set>
     </set>
    </set>
   </array>
  </eigenvalues>
  <separator name="orbital magnetization" >
   <v name="MAGDIPOLOUT">      0.00000000      0.00000000      0.00000000</v>
  </separator>
  <dos>
   <i name="efermi">      5.59615450 </i>
   <total>
    <array>
     <dimension dim="1">gridpoints</dimension>
     <dimension dim="2">spin</dimension>
     <field>energy</field>
     <field>total</field>
     <field>integrated</field>
     <set>
      <set comment="spin 1">
       <r>    -7.1306     0.0000     0.0000 </r>
       <r>    -7.0594     0.0000     0.0000 </r>
       <r>    -6.9881     0.0000     0.0000 </r>
       <r>    -6.9168     0.0000     0.0000 </r>
       <r>    -6.8456     0.0000     0.0000 </r>
       <r>    -6.7743     0.0000     0.0000 </r>
       <r>    -6.7031     0.0000     0.0000 </r>
       <r>    -6.6318     0.0000     0.0000 </r>
       <r>    -6.5605     0.0000     0.0000 </r>
       <r>    -6.4893     0.0000     0.0000 </r>
       <r>    -6.4180     0.0000     0.0000 </r>
       <r>    -6.3468     0.0000     0.0000 </r>
       <r>    -6.2755     0.0000     0.0000 </r>
       <r>    -6.2042     0.0000     0.0000 </r>
       <r>    -6.1330     0.0001     0.0000 </r>
       <r>    -6.0617     0.0013     0.0000 </r>
       <r>    -5.9904     0.0038     0.0002 </r>
       <r>    -5.9192     0.0078     0.0006 </r>
       <r>    -5.8479     0.0131     0.0014 </r>
       <r>    -5.7767     0.0197     0.0025 </r>
       <r>    -5.7054     0.0278     0.0042 </r>
       <r>    -5.6341     0.0372     0.0065 </r>
       <r>    -5.5629     0.0480     0.0095 </r>
       <r>    -5.4916     0.0602     0.0134 </r>
       <r>    -5.4204     0.0737     0.0181 </r>
       <r>    -5.3491     0.0886     0.0239 </r>
       <r>    -5.2778     0.1049     0.0308 </r>
       <r>    -5.2066     0.1226     0.0389 </r>
       <r>    -5.1353     0.1416     0.0483 </r>
       <r>    -5.0641     0.1620     0.0591 </r>
       <r>    -4.9928     0.1838     0.0714 </r>
       <r>    -4.9215     0.2069     0.0854 </r>
       <r>    -4.8503     0.2315     0.1010 </r>
       <r>    -4.7790     0.2536     0.1183 </r>
       <r>    -4.7077     0.2748     0.1371 </r>
       <r>    -4.6365     0.2969     0.1575 </r>
       <r>    -4.5652     0.3201     0.1795 </r>
       <r>    -4.4940     0.3444     0.2031 </r>
       <r>    -4.4227     0.3696     0.2286 </r>
       <r>    -4.3514     0.3959     0.2558 </r>
       <r>    -4.2802     0.4304     0.2851 </r>
       <r>    -4.2089     0.4713     0.3173 </r>
       <r>    -4.1377     0.5067     0.3522 </r>
       <r>    -4.0664     0.5367     0.3894 </r>
       <r>    -3.9951     0.5613     0.4285 </r>
       <r>    -3.9239     0.5805     0.4692 </r>
       <r>    -3.8526     0.5942     0.5111 </r>
       <r>    -3.7814     0.6025     0.5538 </r>
       <r>    -3.7101     0.6054     0.5969 </r>
       <r>    -3.6388     0.6029     0.6400 </r>
       <r>    -3.5676     0.5949     0.6827 </r>
       <r>    -3.4963     0.5816     0.7246 </r>
       <r>    -3.4250     0.5628     0.7654 </r>
       <r>    -3.3538     0.5386     0.8047 </r>
       <r>    -3.2825     0.5089     0.8421 </r>
       <r>    -3.2113     0.4739     0.8771 </r>
       <r>    -3.1400     0.4334     0.9095 </r>
       <r>    -3.0687     0.3875     0.9387 </r>
       <r>    -2.9975     0.5197     1.0000 </r>
       <r>    -2.9262     0.0000     1.0000 </r>
       <r>    -2.8550     0.0000     1.0000 </r>
       <r>    -2.7837     0.0000     1.0000 </r>
       <r>    -2.7124     0.0000     1.0000 </r>
       <r>    -2.6412     0.0000     1.0000 </r>
       <r>    -2.5699     0.0000     1.0000 </r>
       <r>    -2.4987     0.0000     1.0000 </r>
       <r>    -2.4274     0.0000     1.0000 </r>
       <r>    -2.3561     0.0000     1.0000 </r>
       <r>    -2.2849     0.0000     1.0000 </r>
       <r>    -2.2136     0.0000     1.0000 </r>
       <r>    -2.1423     0.0000     1.0000 </r>
       <r>    -2.0711     0.0000     1.0000 </r>
       <r>    -1.9998     0.0000     1.0000 </r>
       <r>    -1.9286     0.0000     1.0000 </r>
       <r>    -1.8573     0.0000     1.0000 </r>
       <r>    -1.7860     0.0000     1.0000 </r>
       <r>    -1.7148     0.0000     1.0000 </r>
       <r>    -1.6435     0.0000     1.0000 </r>
       <r>    -1.5723     0.0000     1.0000 </r>
       <r>    -1.5010     0.0000     1.0000 </r>
       <r>    -1.4297     0.0000     1.0000 </r>
       <r>    -1.3585     0.0000     1.0000 </r>
       <r>    -1.2872     0.0000     1.0000 </r>
       <r>    -1.2160     0.0000     1.0000 </r>
       <r>    -1.1447     0.0000     1.0000 </r>
       <r>    -1.0734     0.8192     1.0482 </r>
       <r>    -1.0022     0.3638     1.0719 </r>
       <r>    -0.9309     0.4216     1.0999 </r>
       <r>    -0.8596     0.4730     1.1318 </r>
       <r>    -0.7884     0.5180     1.1672 </r>
       <r>    -0.7171     0.5566     1.2055 </r>
       <r>    -0.6459     0.5886     1.2463 </r>
       <r>    -0.5746     0.6143     1.2892 </r>
       <r>    -0.5033     0.6335     1.3337 </r>
       <r>    -0.4321     0.6463     1.3794 </r>
       <r>    -0.3608     0.6526     1.4257 </r>
       <r>    -0.2896     0.6525     1.4722 </r>
       <r>    -0.2183     0.6460     1.5185 </r>
       <r>    -0.1470     0.6330     1.5641 </r>
       <r>    -0.0758     0.6136     1.6086 </r>
       <r>    -0.0045     0.5877     1.6514 </r>
       <r>     0.0667     0.5554     1.6922 </r>
       <r>     0.1380     0.5166     1.7304 </r>
       <r>     0.2093     0.4714     1.7657 </r>
       <r>     0.2805     0.4198     1.7975 </r>
       <r>     0.3518     0.3349     1.8250 </r>
       <r>     0.4231     0.2146     1.8444 </r>
       <r>     0.4943     0.1323     1.8565 </r>
       <r>     0.5656     0.0880     1.8642 </r>
       <r>     0.6368     0.0792     1.8700 </r>
       <r>     0.7081     0.0769     1.8755 </r>
       <r>     0.7794     0.0747     1.8810 </r>
       <r>     0.8506     0.0725     1.8862 </r>
       <r>     0.9219     0.0703     1.8913 </r>
       <r>     0.9931     0.0681     1.8962 </r>
       <r>     1.0644     0.0660     1.9010 </r>
       <r>     1.1357     0.0640     1.9056 </r>
       <r>     1.2069     0.0619     1.9101 </r>
       <r>     1.2782     0.0599     1.9145 </r>
       <r>     1.3494     0.8212     1.9672 </r>
       <r>     1.4207     0.3156     1.9892 </r>
       <r>     1.4920     0.3285     2.0122 </r>
       <r>     1.5632     0.3402     2.0360 </r>
       <r>     1.6345     0.3507     2.0606 </r>
       <r>     1.7058     0.3601     2.0860 </r>
       <r>     1.7770     0.3682     2.1119 </r>
       <r>     1.8483     0.3751     2.1384 </r>
       <r>     1.9195     0.3809     2.1653 </r>
       <r>     1.9908     0.3854     2.1927 </r>
       <r>     2.0621     0.3887     2.2202 </r>
       <r>     2.1333     0.3909     2.2480 </r>
       <r>     2.2046     0.3918     2.2759 </r>
       <r>     2.2758     0.3916     2.3038 </r>
       <r>     2.3471     0.3901     2.3317 </r>
       <r>     2.4184     0.3875     2.3594 </r>
       <r>     2.4896     0.3836     2.3869 </r>
       <r>     2.5609     0.3786     2.4141 </r>
       <r>     2.6321     0.3724     2.4408 </r>
       <r>     2.7034     0.3649     2.4671 </r>
       <r>     2.7747     0.3563     2.4928 </r>
       <r>     2.8459     0.3465     2.5179 </r>
       <r>     2.9172     0.3355     2.5422 </r>
       <r>     2.9885     0.3232     2.5656 </r>
       <r>     3.0597     0.3098     2.5882 </r>
       <r>     3.1310     0.2952     2.6098 </r>
       <r>     3.2022     0.2879     2.6303 </r>
       <r>     3.2735     0.5591     2.6579 </r>
       <r>     3.3448     1.0219     2.7137 </r>
       <r>     3.4160     1.5725     2.8056 </r>
       <r>     3.4873     2.2109     2.9399 </r>
       <r>     3.5585     1.4788     3.0829 </r>
       <r>     3.6298     0.9536     3.1511 </r>
       <r>     3.7011     0.9433     3.2187 </r>
       <r>     3.7723     0.9280     3.2854 </r>
       <r>     3.8436     0.9079     3.3508 </r>
       <r>     3.9148     0.8829     3.4147 </r>
       <r>     3.9861     0.8531     3.4766 </r>
       <r>     4.0574     0.8183     3.5361 </r>
       <r>     4.1286     0.7787     3.5931 </r>
       <r>     4.1999     0.7342     3.6470 </r>
       <r>     4.2712     0.6848     3.6976 </r>
       <r>     4.3424     0.6305     3.7445 </r>
       <r>     4.4137     0.5714     3.7873 </r>
       <r>     4.4849     0.5074     3.8258 </r>
       <r>     4.5562     0.4385     3.8595 </r>
       <r>     4.6275     0.3539     3.8877 </r>
       <r>     4.6987     0.3029     3.9111 </r>
       <r>     4.7700     0.2558     3.9309 </r>
       <r>     4.8412     0.2128     3.9476 </r>
       <r>     4.9125     0.1737     3.9614 </r>
       <r>     4.9838     0.1385     3.9725 </r>
       <r>     5.0550     0.1074     3.9812 </r>
       <r>     5.1263     0.0802     3.9879 </r>
       <r>     5.1975     0.0570     3.9927 </r>
       <r>     5.2688     0.0377     3.9961 </r>
       <r>     5.3401     0.0224     3.9982 </r>
       <r>     5.4113     0.0111     3.9994 </r>
       <r>     5.4826     0.0038     3.9999 </r>
       <r>     5.5539     0.0004     4.0000 </r>
       <r>     5.6251     0.0000     4.0000 </r>
       <r>     5.6964     0.0000     4.0000 </r>
       <r>     5.7676     0.0000     4.0000 </r>
       <r>     5.8389     0.0000     4.0000 </r>
       <r>     5.9102     0.0000     4.0000 </r>
       <r>     5.9814     0.0000     4.0000 </r>
       <r>     6.0527     0.0000     4.0000 </r>
       <r>     6.1239     0.0000     4.0000 </r>
       <r>     6.1952     0.0000     4.0000 </r>
       <r>     6.2665     0.0000     4.0000 </r>
       <r>     6.3377     0.0160     4.0003 </r>
       <r>     6.4090     0.0832     4.0037 </r>
       <r>     6.4802     0.1762     4.0128 </r>
       <r>     6.5515     0.2951     4.0294 </r>
       <r>     6.6228     0.4398     4.0555 </r>
       <r>     6.6940     0.6103     4.0927 </r>
       <r>     6.7653     0.8067     4.1431 </r>
       <r>     6.8366     1.0290     4.2083 </r>
       <r>     6.9078     1.2771     4.2903 </r>
       <r>     6.9791     1.5510     4.3909 </r>
       <r>     7.0503     1.8508     4.5120 </r>
       <r>     7.1216     2.9493     4.6615 </r>
       <r>     7.1929     1.3589     4.9239 </r>
       <r>     7.2641     0.2157     4.9422 </r>
       <r>     7.3354     0.1792     4.9563 </r>
       <r>     7.4066     0.1460     4.9678 </r>
       <r>     7.4779     0.1162     4.9771 </r>
       <r>     7.5492     0.0898     4.9845 </r>
       <r>     7.6204     0.0696     4.9901 </r>
       <r>     7.6917     0.0584     4.9946 </r>
       <r>     7.7629     0.0558     4.9986 </r>
       <r>     7.8342     0.0619     5.0028 </r>
       <r>     7.9055     0.0767     5.0076 </r>
       <r>     7.9767     0.1000     5.0139 </r>
       <r>     8.0480     0.1321     5.0221 </r>
       <r>     8.1193     0.1709     5.0329 </r>
       <r>     8.1905     0.2074     5.0464 </r>
       <r>     8.2618     0.2400     5.0624 </r>
       <r>     8.3330     0.2688     5.0805 </r>
       <r>     8.4043     0.2936     5.1006 </r>
       <r>     8.4756     0.3146     5.1223 </r>
       <r>     8.5468     0.3318     5.1453 </r>
       <r>     8.6181     0.3451     5.1695 </r>
       <r>     8.6893     0.3545     5.1944 </r>
       <r>     8.7606     0.3602     5.2199 </r>
       <r>     8.8319     0.3620     5.2457 </r>
       <r>     8.9031     0.3600     5.2714 </r>
       <r>     8.9744     0.3542     5.2969 </r>
       <r>     9.0456     0.3625     5.3221 </r>
       <r>     9.1169     0.3876     5.3488 </r>
       <r>     9.1882     0.4113     5.3773 </r>
       <r>     9.2594     0.4334     5.4074 </r>
       <r>     9.3307     0.4540     5.4390 </r>
       <r>     9.4020     0.4732     5.4721 </r>
       <r>     9.4732     0.4909     5.5064 </r>
       <r>     9.5445     0.5071     5.5420 </r>
       <r>     9.6157     0.5218     5.5787 </r>
       <r>     9.6870     0.5350     5.6163 </r>
       <r>     9.7583     0.5467     5.6549 </r>
       <r>     9.8295     0.5570     5.6942 </r>
       <r>     9.9008     0.5657     5.7342 </r>
       <r>     9.9720     0.5730     5.7748 </r>
       <r>    10.0433     0.5788     5.8158 </r>
       <r>    10.1146     0.5831     5.8573 </r>
       <r>    10.1858     0.5859     5.8989 </r>
       <r>    10.2571     0.5872     5.9407 </r>
       <r>    10.3283     0.5871     5.9826 </r>
       <r>    10.3996     0.5854     6.0244 </r>
       <r>    10.4709     0.5823     6.0660 </r>
       <r>    10.5421     0.5777     6.1073 </r>
       <r>    10.6134     0.5716     6.1483 </r>
       <r>    10.6847     0.5640     6.1887 </r>
       <r>    10.7559     0.5549     6.2286 </r>
       <r>    10.8272     0.5444     6.2678 </r>
       <r>    10.8984     0.5323     6.3062 </r>
       <r>    10.9697     0.5188     6.3436 </r>
       <r>    11.0410     0.5038     6.3801 </r>
       <r>    11.1122     0.4873     6.4154 </r>
       <r>    11.1835     0.4693     6.4495 </r>
       <r>    11.2547     0.4498     6.4822 </r>
       <r>    11.3260     0.6332     6.5351 </r>
       <r>    11.3973     0.4908     6.5717 </r>
       <r>    11.4685     0.3202     6.5944 </r>
       <r>    11.5398     0.3226     6.6173 </r>
       <r>    11.6110     0.3248     6.6404 </r>
       <r>    11.6823     0.3267     6.6636 </r>
       <r>    11.7536     0.3285     6.6870 </r>
       <r>    11.8248     0.3299     6.7104 </r>
       <r>    11.8961     1.4423     6.7746 </r>
       <r>    11.9674     0.8165     6.8365 </r>
       <r>    12.0386     0.7157     6.8911 </r>
       <r>    12.1099     0.6201     6.9386 </r>
       <r>    12.1811     0.5297     6.9796 </r>
       <r>    12.2524     0.4445     7.0143 </r>
       <r>    12.3237     0.3644     7.0430 </r>
       <r>    12.3949     0.2896     7.0663 </r>
       <r>    12.4662     3.0022     7.1318 </r>
       <r>    12.5374     2.1185     7.2905 </r>
       <r>    12.6087     1.8121     7.4322 </r>
       <r>    12.6800     1.3465     7.5441 </r>
       <r>    12.7512     1.1830     7.6320 </r>
       <r>    12.8225     1.0997     7.7135 </r>
       <r>    12.8937     0.9920     7.7882 </r>
       <r>    12.9650     0.8601     7.8543 </r>
       <r>    13.0363     0.7038     7.9102 </r>
       <r>    13.1075     0.5233     7.9540 </r>
       <r>    13.1788     0.3185     7.9842 </r>
       <r>    13.2501     0.0893     7.9988 </r>
       <r>    13.3213     0.0000     8.0000 </r>
       <r>    13.3926     0.0000     8.0000 </r>
       <r>    13.4638     0.0000     8.0000 </r>
       <r>    13.5351     0.0000     8.0000 </r>
       <r>    13.6064     0.0000     8.0000 </r>
       <r>    13.6776     0.0000     8.0000 </r>
       <r>    13.7489     0.0000     8.0000 </r>
       <r>    13.8201     0.0000     8.0000 </r>
       <r>    13.8914     0.0000     8.0000 </r>
       <r>    13.9627     0.0000     8.0000 </r>
       <r>    14.0339     0.0000     8.0000 </r>
       <r>    14.1052     0.0000     8.0000 </r>
       <r>    14.1764     0.0000     8.0000 </r>
       <r>    14.2477     0.0000     8.0000 </r>
      </set>
      <set comment="spin 2">
       <r>    -7.1306     0.0000     0.0000 </r>
       <r>    -7.0594     0.0000     0.0000 </r>
       <r>    -6.9881     0.0000     0.0000 </r>
       <r>    -6.9168     0.0000     0.0000 </r>
       <r>    -6.8456     0.0000     0.0000 </r>
       <r>    -6.7743     0.0000     0.0000 </r>
       <r>    -6.7031     0.0000     0.0000 </r>
       <r>    -6.6318     0.0000     0.0000 </r>
       <r>    -6.5605     0.0000     0.0000 </r>
       <r>    -6.4893     0.0000     0.0000 </r>
       <r>    -6.4180     0.0000     0.0000 </r>
       <r>    -6.3468     0.0000     0.0000 </r>
       <r>    -6.2755     0.0000     0.0000 </r>
       <r>    -6.2042     0.0000     0.0000 </r>
       <r>    -6.1330     0.0001     0.0000 </r>
       <r>    -6.0617     0.0013     0.0000 </r>
       <r>    -5.9904     0.0038     0.0002 </r>
       <r>    -5.9192     0.0078     0.0006 </r>
       <r>    -5.8479     0.0131     0.0014 </r>
       <r>    -5.7767     0.0197     0.0025 </r>
       <r>    -5.7054     0.0278     0.0042 </r>
       <r>    -5.6341     0.0372     0.0065 </r>
       <r>    -5.5629     0.0480     0.0095 </r>
       <r>    -5.4916     0.0602     0.0134 </r>
       <r>    -5.4204     0.0737     0.0181 </r>
       <r>    -5.3491     0.0886     0.0239 </r>
       <r>    -5.2778     0.1049     0.0308 </r>
       <r>    -5.2066     0.1226     0.0389 </r>
       <r>    -5.1353     0.1416     0.0483 </r>
       <r>    -5.0641     0.1620     0.0591 </r>
       <r>    -4.9928     0.1838     0.0714 </r>
       <r>    -4.9215     0.2070     0.0854 </r>
       <r>    -4.8503     0.2315     0.1010 </r>
       <r>    -4.7790     0.2536     0.1183 </r>
       <r>    -4.7077     0.2748     0.1371 </r>
       <r>    -4.6365     0.2969     0.1575 </r>
       <r>    -4.5652     0.3202     0.1795 </r>
       <r>    -4.4940     0.3444     0.2031 </r>
       <r>    -4.4227     0.3696     0.2286 </r>
       <r>    -4.3514     0.3959     0.2558 </r>
       <r>    -4.2802     0.4304     0.2851 </r>
       <r>    -4.2089     0.4713     0.3173 </r>
       <r>    -4.1377     0.5067     0.3522 </r>
       <r>    -4.0664     0.5367     0.3894 </r>
       <r>    -3.9951     0.5613     0.4285 </r>
       <r>    -3.9239     0.5805     0.4692 </r>
       <r>    -3.8526     0.5942     0.5111 </r>
       <r>    -3.7814     0.6025     0.5538 </r>
       <r>    -3.7101     0.6054     0.5969 </r>
       <r>    -3.6388     0.6029     0.6400 </r>
       <r>    -3.5676     0.5949     0.6827 </r>
       <r>    -3.4963     0.5816     0.7246 </r>
       <r>    -3.4250     0.5628     0.7654 </r>
       <r>    -3.3538     0.5386     0.8047 </r>
       <r>    -3.2825     0.5089     0.8421 </r>
       <r>    -3.2113     0.4739     0.8771 </r>
       <r>    -3.1400     0.4334     0.9095 </r>
       <r>    -3.0687     0.3875     0.9387 </r>
       <r>    -2.9975     0.5197     1.0000 </r>
       <r>    -2.9262     0.0000     1.0000 </r>
       <r>    -2.8550     0.0000     1.0000 </r>
       <r>    -2.7837     0.0000     1.0000 </r>
       <r>    -2.7124     0.0000     1.0000 </r>
       <r>    -2.6412     0.0000     1.0000 </r>
       <r>    -2.5699     0.0000     1.0000 </r>
       <r>    -2.4987     0.0000     1.0000 </r>
       <r>    -2.4274     0.0000     1.0000 </r>
       <r>    -2.3561     0.0000     1.0000 </r>
       <r>    -2.2849     0.0000     1.0000 </r>
       <r>    -2.2136     0.0000     1.0000 </r>
       <r>    -2.1423     0.0000     1.0000 </r>
       <r>    -2.0711     0.0000     1.0000 </r>
       <r>    -1.9998     0.0000     1.0000 </r>
       <r>    -1.9286     0.0000     1.0000 </r>
       <r>    -1.8573     0.0000     1.0000 </r>
       <r>    -1.7860     0.0000     1.0000 </r>
       <r>    -1.7148     0.0000     1.0000 </r>
       <r>    -1.6435     0.0000     1.0000 </r>
       <r>    -1.5723     0.0000     1.0000 </r>
       <r>    -1.5010     0.0000     1.0000 </r>
       <r>    -1.4297     0.0000     1.0000 </r>
       <r>    -1.3585     0.0000     1.0000 </r>
       <r>    -1.2872     0.0000     1.0000 </r>
       <r>    -1.2160     0.0000     1.0000 </r>
       <r>    -1.1447     0.0000     1.0000 </r>
       <r>    -1.0734     0.8192     1.0482 </r>
       <r>    -1.0022     0.3638     1.0719 </r>
       <r>    -0.9309     0.4216     1.0999 </r>
       <r>    -0.8596     0.4730     1.1318 </r>
       <r>    -0.7884     0.5180     1.1672 </r>
       <r>    -0.7171     0.5566     1.2055 </r>
       <r>    -0.6459     0.5886     1.2463 </r>
       <r>    -0.5746     0.6143     1.2892 </r>
       <r>    -0.5033     0.6335     1.3337 </r>
       <r>    -0.4321     0.6463     1.3794 </r>
       <r>    -0.3608     0.6526     1.4257 </r>
       <r>    -0.2896     0.6525     1.4722 </r>
       <r>    -0.2183     0.6460     1.5185 </r>
       <r>    -0.1470     0.6330     1.5641 </r>
       <r>    -0.0758     0.6136     1.6086 </r>
       <r>    -0.0045     0.5877     1.6514 </r>
       <r>     0.0667     0.5554     1.6922 </r>
       <r>     0.1380     0.5166     1.7304 </r>
       <r>     0.2093     0.4714     1.7657 </r>
       <r>     0.2805     0.4198     1.7975 </r>
       <r>     0.3518     0.3349     1.8250 </r>
       <r>     0.4231     0.2146     1.8444 </r>
       <r>     0.4943     0.1323     1.8565 </r>
       <r>     0.5656     0.0880     1.8642 </r>
       <r>     0.6368     0.0792     1.8700 </r>
       <r>     0.7081     0.0769     1.8755 </r>
       <r>     0.7794     0.0747     1.8810 </r>
       <r>     0.8506     0.0725     1.8862 </r>
       <r>     0.9219     0.0703     1.8913 </r>
       <r>     0.9931     0.0681     1.8962 </r>
       <r>     1.0644     0.0660     1.9010 </r>
       <r>     1.1357     0.0640     1.9056 </r>
       <r>     1.2069     0.0619     1.9101 </r>
       <r>     1.2782     0.0599     1.9145 </r>
       <r>     1.3494     0.8212     1.9672 </r>
       <r>     1.4207     0.3156     1.9892 </r>
       <r>     1.4920     0.3285     2.0122 </r>
       <r>     1.5632     0.3402     2.0360 </r>
       <r>     1.6345     0.3507     2.0606 </r>
       <r>     1.7058     0.3601     2.0860 </r>
       <r>     1.7770     0.3682     2.1119 </r>
       <r>     1.8483     0.3751     2.1384 </r>
       <r>     1.9195     0.3809     2.1654 </r>
       <r>     1.9908     0.3854     2.1927 </r>
       <r>     2.0621     0.3887     2.2202 </r>
       <r>     2.1333     0.3909     2.2480 </r>
       <r>     2.2046     0.3918     2.2759 </r>
       <r>     2.2758     0.3916     2.3038 </r>
       <r>     2.3471     0.3901     2.3317 </r>
       <r>     2.4184     0.3875     2.3594 </r>
       <r>     2.4896     0.3836     2.3869 </r>
       <r>     2.5609     0.3786     2.4141 </r>
       <r>     2.6321     0.3724     2.4408 </r>
       <r>     2.7034     0.3649     2.4671 </r>
       <r>     2.7747     0.3563     2.4928 </r>
       <r>     2.8459     0.3465     2.5179 </r>
       <r>     2.9172     0.3355     2.5422 </r>
       <r>     2.9885     0.3232     2.5656 </r>
       <r>     3.0597     0.3098     2.5882 </r>
       <r>     3.1310     0.2952     2.6098 </r>
       <r>     3.2022     0.2879     2.6303 </r>
       <r>     3.2735     0.5591     2.6579 </r>
       <r>     3.3448     1.0219     2.7137 </r>
       <r>     3.4160     1.5726     2.8056 </r>
       <r>     3.4873     2.2110     2.9399 </r>
       <r>     3.5585     1.4788     3.0829 </r>
       <r>     3.6298     0.9536     3.1511 </r>
       <r>     3.7011     0.9433     3.2187 </r>
       <r>     3.7723     0.9280     3.2854 </r>
       <r>     3.8436     0.9079     3.3508 </r>
       <r>     3.9148     0.8829     3.4147 </r>
       <r>     3.9861     0.8531     3.4766 </r>
       <r>     4.0574     0.8183     3.5361 </r>
       <r>     4.1286     0.7787     3.5931 </r>
       <r>     4.1999     0.7342     3.6470 </r>
       <r>     4.2712     0.6848     3.6976 </r>
       <r>     4.3424     0.6305     3.7445 </r>
       <r>     4.4137     0.5714     3.7873 </r>
       <r>     4.4849     0.5074     3.8258 </r>
       <r>     4.5562     0.4385     3.8595 </r>
       <r>     4.6275     0.3539     3.8877 </r>
       <r>     4.6987     0.3029     3.9111 </r>
       <r>     4.7700     0.2558     3.9309 </r>
       <r>     4.8412     0.2128     3.9476 </r>
       <r>     4.9125     0.1737     3.9614 </r>
       <r>     4.9838     0.1385     3.9725 </r>
       <r>     5.0550     0.1074     3.9812 </r>
       <r>     5.1263     0.0802     3.9879 </r>
       <r>     5.1975     0.0570     3.9927 </r>
       <r>     5.2688     0.0377     3.9961 </r>
       <r>     5.3401     0.0224     3.9982 </r>
       <r>     5.4113     0.0111     3.9994 </r>
       <r>     5.4826     0.0038     3.9999 </r>
       <r>     5.5539     0.0004     4.0000 </r>
       <r>     5.6251     0.0000     4.0000 </r>
       <r>     5.6964     0.0000     4.0000 </r>
       <r>     5.7676     0.0000     4.0000 </r>
       <r>     5.8389     0.0000     4.0000 </r>
       <r>     5.9102     0.0000     4.0000 </r>
       <r>     5.9814     0.0000     4.0000 </r>
       <r>     6.0527     0.0000     4.0000 </r>
       <r>     6.1239     0.0000     4.0000 </r>
       <r>     6.1952     0.0000     4.0000 </r>
       <r>     6.2665     0.0000     4.0000 </r>
       <r>     6.3377     0.0160     4.0003 </r>
       <r>     6.4090     0.0832     4.0037 </r>
       <r>     6.4802     0.1762     4.0128 </r>
       <r>     6.5515     0.2951     4.0294 </r>
       <r>     6.6228     0.4398     4.0555 </r>
       <r>     6.6940     0.6103     4.0927 </r>
       <r>     6.7653     0.8067     4.1431 </r>
       <r>     6.8366     1.0290     4.2083 </r>
       <r>     6.9078     1.2771     4.2903 </r>
       <r>     6.9791     1.5510     4.3909 </r>
       <r>     7.0503     1.8508     4.5120 </r>
       <r>     7.1216     2.9492     4.6615 </r>
       <r>     7.1929     1.3586     4.9239 </r>
       <r>     7.2641     0.2157     4.9422 </r>
       <r>     7.3354     0.1792     4.9563 </r>
       <r>     7.4066     0.1460     4.9678 </r>
       <r>     7.4779     0.1162     4.9771 </r>
       <r>     7.5492     0.0898     4.9845 </r>
       <r>     7.6204     0.0696     4.9901 </r>
       <r>     7.6917     0.0584     4.9946 </r>
       <r>     7.7629     0.0558     4.9986 </r>
       <r>     7.8342     0.0619     5.0028 </r>
       <r>     7.9055     0.0767     5.0076 </r>
       <r>     7.9767     0.1000     5.0139 </r>
       <r>     8.0480     0.1321     5.0221 </r>
       <r>     8.1193     0.1709     5.0329 </r>
       <r>     8.1905     0.2074     5.0464 </r>
       <r>     8.2618     0.2400     5.0624 </r>
       <r>     8.3330     0.2688     5.0805 </r>
       <r>     8.4043     0.2936     5.1006 </r>
       <r>     8.4756     0.3146     5.1223 </r>
       <r>     8.5468     0.3318     5.1453 </r>
       <r>     8.6181     0.3451     5.1695 </r>
       <r>     8.6893     0.3545     5.1944 </r>
       <r>     8.7606     0.3602     5.2199 </r>
       <r>     8.8319     0.3620     5.2457 </r>
       <r>     8.9031     0.3600     5.2714 </r>
       <r>     8.9744     0.3542     5.2969 </r>
       <r>     9.0456     0.3625     5.3221 </r>
       <r>     9.1169     0.3876     5.3488 </r>
       <r>     9.1882     0.4113     5.3773 </r>
       <r>     9.2594     0.4334     5.4074 </r>
       <r>     9.3307     0.4540     5.4390 </r>
       <r>     9.4020     0.4732     5.4721 </r>
       <r>     9.4732     0.4909     5.5064 </r>
       <r>     9.5445     0.5071     5.5420 </r>
       <r>     9.6157     0.5218     5.5787 </r>
       <r>     9.6870     0.5350     5.6163 </r>
       <r>     9.7583     0.5467     5.6549 </r>
       <r>     9.8295     0.5570     5.6942 </r>
       <r>     9.9008     0.5657     5.7342 </r>
       <r>     9.9720     0.5730     5.7748 </r>
       <r>    10.0433     0.5788     5.8159 </r>
       <r>    10.1146     0.5831     5.8573 </r>
       <r>    10.1858     0.5859     5.8989 </r>
       <r>    10.2571     0.5872     5.9407 </r>
       <r>    10.3283     0.5871     5.9826 </r>
       <r>    10.3996     0.5854     6.0244 </r>
       <r>    10.4709     0.5823     6.0660 </r>
       <r>    10.5421     0.5777     6.1073 </r>
       <r>    10.6134     0.5716     6.1483 </r>
       <r>    10.6847     0.5640     6.1887 </r>
       <r>    10.7559     0.5549     6.2286 </r>
       <r>    10.8272     0.5444     6.2678 </r>
       <r>    10.8984     0.5323     6.3062 </r>
       <r>    10.9697     0.5188     6.3436 </r>
       <r>    11.0410     0.5038     6.3801 </r>
       <r>    11.1122     0.4873     6.4154 </r>
       <r>    11.1835     0.4693     6.4495 </r>
       <r>    11.2547     0.4498     6.4822 </r>
       <r>    11.3260     0.6333     6.5351 </r>
       <r>    11.3973     0.4908     6.5717 </r>
       <r>    11.4685     0.3202     6.5944 </r>
       <r>    11.5398     0.3226     6.6173 </r>
       <r>    11.6110     0.3248     6.6404 </r>
       <r>    11.6823     0.3267     6.6636 </r>
       <r>    11.7536     0.3285     6.6870 </r>
       <r>    11.8248     0.3299     6.7104 </r>
       <r>    11.8961     1.4423     6.7746 </r>
       <r>    11.9674     0.8165     6.8365 </r>
       <r>    12.0386     0.7157     6.8911 </r>
       <r>    12.1099     0.6201     6.9386 </r>
       <r>    12.1811     0.5297     6.9796 </r>
       <r>    12.2524     0.4445     7.0143 </r>
       <r>    12.3237     0.3644     7.0430 </r>
       <r>    12.3949     0.2896     7.0663 </r>
       <r>    12.4662     3.0023     7.1318 </r>
       <r>    12.5374     2.1185     7.2905 </r>
       <r>    12.6087     1.8121     7.4322 </r>
       <r>    12.6800     1.3465     7.5441 </r>
       <r>    12.7512     1.1830     7.6320 </r>
       <r>    12.8225     1.0997     7.7135 </r>
       <r>    12.8937     0.9920     7.7882 </r>
       <r>    12.9650     0.8601     7.8543 </r>
       <r>    13.0363     0.7038     7.9102 </r>
       <r>    13.1075     0.5233     7.9540 </r>
       <r>    13.1788     0.3184     7.9842 </r>
       <r>    13.2501     0.0893     7.9988 </r>
       <r>    13.3213     0.0000     8.0000 </r>
       <r>    13.3926     0.0000     8.0000 </r>
       <r>    13.4638     0.0000     8.0000 </r>
       <r>    13.5351     0.0000     8.0000 </r>
       <r>    13.6064     0.0000     8.0000 </r>
       <r>    13.6776     0.0000     8.0000 </r>
       <r>    13.7489     0.0000     8.0000 </r>
       <r>    13.8201     0.0000     8.0000 </r>
       <r>    13.8914     0.0000     8.0000 </r>
       <r>    13.9627     0.0000     8.0000 </r>
       <r>    14.0339     0.0000     8.0000 </r>
       <r>    14.1052     0.0000     8.0000 </r>
       <r>    14.1764     0.0000     8.0000 </r>
       <r>    14.2477     0.0000     8.0000 </r>
      </set>
     </set>
    </array>
   </total>
   <partial>
    <array>
     <dimension dim="1">gridpoints</dimension>
     <dimension dim="2">spin</dimension>
     <dimension dim="3">ion</dimension>
     <field>energy</field>
     <field>    s</field>
     <field>   py</field>
     <field>   pz</field>
     <field>   px</field>
     <field>  dxy</field>
     <field>  dyz</field>
     <field>  dz2</field>
     <field>  dxz</field>
     <field>x2-y2</field>
     <set>
      <set comment="ion 1">
       <set comment="spin 1">
        <r>    -7.1306     0.0000     0.0000     0.0000     0.0000     0.0000     0.0000     0.0000     0.0000     0.0000 </r>
        <r>    -7.0594     0.0000     0.0000     0.0000     0.0000     0.0000     0.0000     0.0000     0.0000     0.0000 </r>
        <r>    -6.9881     0.0000     0.0000     0.0000     0.0000     0.0000     0.0000     0.0000     0.0000     0.0000 </r>
        <r>    -6.9168     0.0000     0.0000     0.0000     0.0000     0.0000     0.0000     0.0000     0.0000     0.0000 </r>
        <r>    -6.8456     0.0000     0.0000     0.0000     0.0000     0.0000     0.0000     0.0000     0.0000     0.0000 </r>
        <r>    -6.7743     0.0000     0.0000     0.0000     0.0000     0.0000     0.0000     0.0000     0.0000     0.0000 </r>
        <r>    -6.7031     0.0000     0.0000     0.0000     0.0000     0.0000     0.0000     0.0000     0.0000     0.0000 </r>
        <r>    -6.6318     0.0000     0.0000     0.0000     0.0000     0.0000     0.0000     0.0000     0.0000     0.0000 </r>
        <r>    -6.5605     0.0000     0.0000     0.0000     0.0000     0.0000     0.0000     0.0000     0.0000     0.0000 </r>
        <r>    -6.4893     0.0000     0.0000     0.0000     0.0000     0.0000     0.0000     0.0000     0.0000     0.0000 </r>
        <r>    -6.4180     0.0000     0.0000     0.0000     0.0000     0.0000     0.0000     0.0000     0.0000     0.0000 </r>
        <r>    -6.3468     0.0000     0.0000     0.0000     0.0000     0.0000     0.0000     0.0000     0.0000     0.0000 </r>
        <r>    -6.2755     0.0000     0.0000     0.0000     0.0000     0.0000     0.0000     0.0000     0.0000     0.0000 </r>
        <r>    -6.2042     0.0000     0.0000     0.0000     0.0000     0.0000     0.0000     0.0000     0.0000     0.0000 </r>
        <r>    -6.1330     0.0000     0.0000     0.0000     0.0000     0.0000     0.0000     0.0000     0.0000     0.0000 </r>
        <r>    -6.0617     0.0003     0.0000     0.0000     0.0000     0.0000     0.0000     0.0000     0.0000     0.0000 </r>
        <r>    -5.9904     0.0008     0.0000     0.0000     0.0000     0.0000     0.0000     0.0000     0.0000     0.0000 </r>
        <r>    -5.9192     0.0016     0.0000     0.0000     0.0000     0.0000     0.0000     0.0000     0.0000     0.0000 </r>
        <r>    -5.8479     0.0027     0.0000     0.0000     0.0000     0.0000     0.0000     0.0000     0.0000     0.0000 </r>
        <r>    -5.7767     0.0041     0.0001     0.0001     0.0001     0.0000     0.0000     0.0000     0.0000     0.0000 </r>
        <r>    -5.7054     0.0058     0.0001     0.0001     0.0001     0.0000     0.0000     0.0000     0.0000     0.0000 </r>
        <r>    -5.6341     0.0077     0.0001     0.0001     0.0001     0.0000     0.0000     0.0000     0.0000     0.0000 </r>
        <r>    -5.5629     0.0099     0.0002     0.0002     0.0002     0.0000     0.0000     0.0000     0.0000     0.0000 </r>
        <r>    -5.4916     0.0125     0.0002     0.0002     0.0002     0.0000     0.0000     0.0000     0.0000     0.0000 </r>
        <r>    -5.4204     0.0153     0.0003     0.0003     0.0003     0.0000     0.0000     0.0000     0.0000     0.0000 </r>
        <r>    -5.3491     0.0184     0.0003     0.0003     0.0003     0.0000     0.0000     0.0000     0.0000     0.0000 </r>
        <r>    -5.2778     0.0217     0.0004     0.0004     0.0004     0.0000     0.0000     0.0000     0.0000     0.0000 </r>
        <r>    -5.2066     0.0254     0.0004     0.0004     0.0004     0.0000     0.0000     0.0000     0.0000     0.0000 </r>
        <r>    -5.1353     0.0293     0.0005     0.0005     0.0005     0.0000     0.0000     0.0000     0.0000     0.0000 </r>
        <r>    -5.0641     0.0336     0.0006     0.0006     0.0006     0.0000     0.0000     0.0000     0.0000     0.0000 </r>
        <r>    -4.9928     0.0381     0.0007     0.0007     0.0007     0.0000     0.0000     0.0000     0.0000     0.0000 </r>
        <r>    -4.9215     0.0429     0.0007     0.0007     0.0007     0.0000     0.0000     0.0000     0.0000     0.0000 </r>
        <r>    -4.8503     0.0479     0.0008     0.0008     0.0008     0.0000     0.0000     0.0000     0.0000     0.0000 </r>
        <r>    -4.7790     0.0526     0.0010     0.0010     0.0010     0.0000     0.0000     0.0000     0.0000     0.0000 </r>
        <r>    -4.7077     0.0571     0.0013     0.0013     0.0013     0.0000     0.0000     0.0000     0.0000     0.0000 </r>
        <r>    -4.6365     0.0617     0.0016     0.0016     0.0016     0.0000     0.0000     0.0000     0.0000     0.0000 </r>
        <r>    -4.5652     0.0666     0.0018     0.0018     0.0018     0.0000     0.0000     0.0000     0.0000     0.0000 </r>
        <r>    -4.4940     0.0717     0.0020     0.0020     0.0020     0.0000     0.0000     0.0000     0.0000     0.0000 </r>
        <r>    -4.4227     0.0770     0.0023     0.0023     0.0023     0.0000     0.0000     0.0000     0.0000     0.0000 </r>
        <r>    -4.3514     0.0825     0.0025     0.0025     0.0025     0.0000     0.0000     0.0000     0.0000     0.0000 </r>
        <r>    -4.2802     0.0898     0.0028     0.0028     0.0027     0.0000     0.0000     0.0000     0.0000     0.0000 </r>
        <r>    -4.2089     0.0983     0.0031     0.0031     0.0030     0.0000     0.0000     0.0000     0.0000     0.0000 </r>
        <r>    -4.1377     0.1057     0.0034     0.0034     0.0033     0.0000     0.0000     0.0000     0.0000     0.0000 </r>
        <r>    -4.0664     0.1119     0.0036     0.0036     0.0036     0.0000     0.0000     0.0000     0.0000     0.0000 </r>
        <r>    -3.9951     0.1171     0.0038     0.0038     0.0038     0.0000     0.0000     0.0000     0.0000     0.0000 </r>
        <r>    -3.9239     0.1211     0.0040     0.0040     0.0039     0.0000     0.0000     0.0000     0.0000     0.0000 </r>
        <r>    -3.8526     0.1240     0.0041     0.0041     0.0041     0.0000     0.0000     0.0000     0.0000     0.0000 </r>
        <r>    -3.7814     0.1257     0.0042     0.0042     0.0042     0.0000     0.0000     0.0000     0.0000     0.0000 </r>
        <r>    -3.7101     0.1263     0.0043     0.0043     0.0042     0.0000     0.0000     0.0000     0.0000     0.0000 </r>
        <r>    -3.6388     0.1258     0.0043     0.0043     0.0042     0.0000     0.0000     0.0000     0.0000     0.0000 </r>
        <r>    -3.5676     0.1242     0.0043     0.0043     0.0042     0.0000     0.0000     0.0000     0.0000     0.0000 </r>
        <r>    -3.4963     0.1214     0.0042     0.0042     0.0042     0.0000     0.0000     0.0000     0.0000     0.0000 </r>
        <r>    -3.4250     0.1175     0.0041     0.0041     0.0041     0.0000     0.0000     0.0000     0.0000     0.0000 </r>
        <r>    -3.3538     0.1125     0.0040     0.0040     0.0040     0.0000     0.0000     0.0000     0.0000     0.0000 </r>
        <r>    -3.2825     0.1063     0.0038     0.0038     0.0038     0.0000     0.0000     0.0000     0.0000     0.0000 </r>
        <r>    -3.2113     0.0990     0.0036     0.0036     0.0036     0.0000     0.0000     0.0000     0.0000     0.0000 </r>
        <r>    -3.1400     0.0906     0.0034     0.0034     0.0033     0.0000     0.0000     0.0000     0.0000     0.0000 </r>
        <r>    -3.0687     0.0811     0.0031     0.0031     0.0031     0.0000     0.0000     0.0000     0.0000     0.0000 </r>
        <r>    -2.9975     0.1102     0.0046     0.0046     0.0045     0.0000     0.0000     0.0000     0.0000     0.0000 </r>
        <r>    -2.9262     0.0000     0.0000     0.0000     0.0000     0.0000     0.0000     0.0000     0.0000     0.0000 </r>
        <r>    -2.8550     0.0000     0.0000     0.0000     0.0000     0.0000     0.0000     0.0000     0.0000     0.0000 </r>
        <r>    -2.7837     0.0000     0.0000     0.0000     0.0000     0.0000     0.0000     0.0000     0.0000     0.0000 </r>
        <r>    -2.7124     0.0000     0.0000     0.0000     0.0000     0.0000     0.0000     0.0000     0.0000     0.0000 </r>
        <r>    -2.6412     0.0000     0.0000     0.0000     0.0000     0.0000     0.0000     0.0000     0.0000     0.0000 </r>
        <r>    -2.5699     0.0000     0.0000     0.0000     0.0000     0.0000     0.0000     0.0000     0.0000     0.0000 </r>
        <r>    -2.4987     0.0000     0.0000     0.0000     0.0000     0.0000     0.0000     0.0000     0.0000     0.0000 </r>
        <r>    -2.4274     0.0000     0.0000     0.0000     0.0000     0.0000     0.0000     0.0000     0.0000     0.0000 </r>
        <r>    -2.3561     0.0000     0.0000     0.0000     0.0000     0.0000     0.0000     0.0000     0.0000     0.0000 </r>
        <r>    -2.2849     0.0000     0.0000     0.0000     0.0000     0.0000     0.0000     0.0000     0.0000     0.0000 </r>
        <r>    -2.2136     0.0000     0.0000     0.0000     0.0000     0.0000     0.0000     0.0000     0.0000     0.0000 </r>
        <r>    -2.1423     0.0000     0.0000     0.0000     0.0000     0.0000     0.0000     0.0000     0.0000     0.0000 </r>
        <r>    -2.0711     0.0000     0.0000     0.0000     0.0000     0.0000     0.0000     0.0000     0.0000     0.0000 </r>
        <r>    -1.9998     0.0000     0.0000     0.0000     0.0000     0.0000     0.0000     0.0000     0.0000     0.0000 </r>
        <r>    -1.9286     0.0000     0.0000     0.0000     0.0000     0.0000     0.0000     0.0000     0.0000     0.0000 </r>
        <r>    -1.8573     0.0000     0.0000     0.0000     0.0000     0.0000     0.0000     0.0000     0.0000     0.0000 </r>
        <r>    -1.7860     0.0000     0.0000     0.0000     0.0000     0.0000     0.0000     0.0000     0.0000     0.0000 </r>
        <r>    -1.7148     0.0000     0.0000     0.0000     0.0000     0.0000     0.0000     0.0000     0.0000     0.0000 </r>
        <r>    -1.6435     0.0000     0.0000     0.0000     0.0000     0.0000     0.0000     0.0000     0.0000     0.0000 </r>
        <r>    -1.5723     0.0000     0.0000     0.0000     0.0000     0.0000     0.0000     0.0000     0.0000     0.0000 </r>
        <r>    -1.5010     0.0000     0.0000     0.0000     0.0000     0.0000     0.0000     0.0000     0.0000     0.0000 </r>
        <r>    -1.4297     0.0000     0.0000     0.0000     0.0000     0.0000     0.0000     0.0000     0.0000     0.0000 </r>
        <r>    -1.3585     0.0000     0.0000     0.0000     0.0000     0.0000     0.0000     0.0000     0.0000     0.0000 </r>
        <r>    -1.2872     0.0000     0.0000     0.0000     0.0000     0.0000     0.0000     0.0000     0.0000     0.0000 </r>
        <r>    -1.2160     0.0000     0.0000     0.0000     0.0000     0.0000     0.0000     0.0000     0.0000     0.0000 </r>
        <r>    -1.1447     0.0000     0.0000     0.0000     0.0000     0.0000     0.0000     0.0000     0.0000     0.0000 </r>
        <r>    -1.0734     0.1431     0.0169     0.0169     0.0167     0.0000     0.0000     0.0000     0.0000     0.0000 </r>
        <r>    -1.0022     0.0611     0.0082     0.0082     0.0081     0.0000     0.0000     0.0000     0.0000     0.0000 </r>
        <r>    -0.9309     0.0696     0.0097     0.0097     0.0096     0.0000     0.0000     0.0000     0.0000     0.0000 </r>
        <r>    -0.8596     0.0772     0.0111     0.0111     0.0110     0.0000     0.0000     0.0000     0.0000     0.0000 </r>
        <r>    -0.7884     0.0837     0.0123     0.0123     0.0122     0.0000     0.0000     0.0000     0.0000     0.0000 </r>
        <r>    -0.7171     0.0893     0.0133     0.0133     0.0132     0.0000     0.0000     0.0000     0.0000     0.0000 </r>
        <r>    -0.6459     0.0938     0.0142     0.0142     0.0141     0.0000     0.0000     0.0000     0.0000     0.0000 </r>
        <r>    -0.5746     0.0974     0.0149     0.0149     0.0148     0.0000     0.0000     0.0000     0.0000     0.0000 </r>
        <r>    -0.5033     0.0999     0.0155     0.0155     0.0154     0.0000     0.0000     0.0000     0.0000     0.0000 </r>
        <r>    -0.4321     0.1015     0.0159     0.0159     0.0158     0.0000     0.0000     0.0000     0.0000     0.0000 </r>
        <r>    -0.3608     0.1021     0.0161     0.0161     0.0160     0.0000     0.0000     0.0000     0.0000     0.0000 </r>
        <r>    -0.2896     0.1017     0.0162     0.0162     0.0161     0.0000     0.0000     0.0000     0.0000     0.0000 </r>
        <r>    -0.2183     0.1003     0.0161     0.0161     0.0160     0.0000     0.0000     0.0000     0.0000     0.0000 </r>
        <r>    -0.1470     0.0979     0.0158     0.0158     0.0158     0.0000     0.0000     0.0000     0.0000     0.0000 </r>
        <r>    -0.0758     0.0946     0.0154     0.0154     0.0154     0.0000     0.0000     0.0000     0.0000     0.0000 </r>
        <r>    -0.0045     0.0902     0.0149     0.0149     0.0148     0.0000     0.0000     0.0000     0.0000     0.0000 </r>
        <r>     0.0667     0.0848     0.0141     0.0141     0.0141     0.0000     0.0000     0.0000     0.0000     0.0000 </r>
        <r>     0.1380     0.0785     0.0132     0.0132     0.0132     0.0000     0.0000     0.0000     0.0000     0.0000 </r>
        <r>     0.2093     0.0712     0.0122     0.0122     0.0122     0.0000     0.0000     0.0000     0.0000     0.0000 </r>
        <r>     0.2805     0.0628     0.0110     0.0110     0.0110     0.0000     0.0000     0.0000     0.0000     0.0000 </r>
        <r>     0.3518     0.0491     0.0091     0.0091     0.0088     0.0000     0.0000     0.0000     0.0000     0.0000 </r>
        <r>     0.4231     0.0296     0.0067     0.0067     0.0056     0.0000     0.0000     0.0000     0.0000     0.0000 </r>
        <r>     0.4943     0.0162     0.0050     0.0050     0.0033     0.0000     0.0000     0.0000     0.0000     0.0000 </r>
        <r>     0.5656     0.0090     0.0041     0.0041     0.0021     0.0000     0.0000     0.0000     0.0000     0.0000 </r>
        <r>     0.6368     0.0077     0.0039     0.0039     0.0018     0.0000     0.0000     0.0000     0.0000     0.0000 </r>
        <r>     0.7081     0.0075     0.0038     0.0038     0.0017     0.0000     0.0000     0.0000     0.0000     0.0000 </r>
        <r>     0.7794     0.0073     0.0037     0.0037     0.0017     0.0000     0.0000     0.0000     0.0000     0.0000 </r>
        <r>     0.8506     0.0070     0.0036     0.0036     0.0016     0.0000     0.0000     0.0000     0.0000     0.0000 </r>
        <r>     0.9219     0.0068     0.0035     0.0035     0.0016     0.0000     0.0000     0.0000     0.0000     0.0000 </r>
        <r>     0.9931     0.0066     0.0034     0.0034     0.0016     0.0000     0.0000     0.0000     0.0000     0.0000 </r>
        <r>     1.0644     0.0064     0.0033     0.0033     0.0015     0.0000     0.0000     0.0000     0.0000     0.0000 </r>
        <r>     1.1357     0.0062     0.0032     0.0032     0.0015     0.0000     0.0000     0.0000     0.0000     0.0000 </r>
        <r>     1.2069     0.0060     0.0031     0.0031     0.0014     0.0000     0.0000     0.0000     0.0000     0.0000 </r>
        <r>     1.2782     0.0058     0.0030     0.0030     0.0014     0.0000     0.0000     0.0000     0.0000     0.0000 </r>
        <r>     1.3494     0.0080     0.0422     0.0422     0.0392     0.0000     0.0000     0.0000     0.0000     0.0000 </r>
        <r>     1.4207     0.0061     0.0177     0.0177     0.0137     0.0000     0.0000     0.0000     0.0000     0.0000 </r>
        <r>     1.4920     0.0059     0.0188     0.0188     0.0141     0.0000     0.0000     0.0000     0.0000     0.0000 </r>
        <r>     1.5632     0.0057     0.0199     0.0199     0.0144     0.0000     0.0000     0.0000     0.0000     0.0000 </r>
        <r>     1.6345     0.0055     0.0208     0.0208     0.0146     0.0000     0.0000     0.0000     0.0000     0.0000 </r>
        <r>     1.7058     0.0054     0.0217     0.0217     0.0148     0.0000     0.0000     0.0000     0.0000     0.0000 </r>
        <r>     1.7770     0.0052     0.0225     0.0225     0.0150     0.0000     0.0000     0.0000     0.0000     0.0000 </r>
        <r>     1.8483     0.0050     0.0232     0.0232     0.0151     0.0000     0.0000     0.0000     0.0000     0.0000 </r>
        <r>     1.9195     0.0049     0.0238     0.0238     0.0152     0.0000     0.0000     0.0000     0.0000     0.0000 </r>
        <r>     1.9908     0.0047     0.0244     0.0244     0.0152     0.0000     0.0000     0.0000     0.0000     0.0000 </r>
        <r>     2.0621     0.0045     0.0248     0.0248     0.0152     0.0000     0.0000     0.0000     0.0000     0.0000 </r>
        <r>     2.1333     0.0044     0.0252     0.0252     0.0151     0.0000     0.0000     0.0000     0.0000     0.0000 </r>
        <r>     2.2046     0.0042     0.0255     0.0255     0.0150     0.0000     0.0000     0.0000     0.0000     0.0000 </r>
        <r>     2.2758     0.0041     0.0257     0.0257     0.0148     0.0000     0.0000     0.0000     0.0000     0.0000 </r>
        <r>     2.3471     0.0039     0.0258     0.0258     0.0146     0.0000     0.0000     0.0000     0.0000     0.0000 </r>
        <r>     2.4184     0.0037     0.0258     0.0258     0.0143     0.0000     0.0000     0.0000     0.0000     0.0000 </r>
        <r>     2.4896     0.0036     0.0258     0.0258     0.0140     0.0000     0.0000     0.0000     0.0000     0.0000 </r>
        <r>     2.5609     0.0034     0.0256     0.0256     0.0137     0.0000     0.0000     0.0000     0.0000     0.0000 </r>
        <r>     2.6321     0.0033     0.0254     0.0254     0.0133     0.0000     0.0000     0.0000     0.0000     0.0000 </r>
        <r>     2.7034     0.0031     0.0251     0.0251     0.0129     0.0000     0.0000     0.0000     0.0000     0.0000 </r>
        <r>     2.7747     0.0030     0.0247     0.0247     0.0124     0.0000     0.0000     0.0000     0.0000     0.0000 </r>
        <r>     2.8459     0.0029     0.0242     0.0242     0.0119     0.0000     0.0000     0.0000     0.0000     0.0000 </r>
        <r>     2.9172     0.0027     0.0236     0.0236     0.0113     0.0000     0.0000     0.0000     0.0000     0.0000 </r>
        <r>     2.9885     0.0026     0.0229     0.0229     0.0107     0.0000     0.0000     0.0000     0.0000     0.0000 </r>
        <r>     3.0597     0.0024     0.0222     0.0222     0.0100     0.0000     0.0000     0.0000     0.0000     0.0000 </r>
        <r>     3.1310     0.0023     0.0214     0.0214     0.0093     0.0000     0.0000     0.0000     0.0000     0.0000 </r>
        <r>     3.2022     0.0021     0.0213     0.0213     0.0086     0.0000     0.0000     0.0000     0.0000     0.0000 </r>
        <r>     3.2735     0.0020     0.0398     0.0398     0.0250     0.0000     0.0000     0.0000     0.0000     0.0000 </r>
        <r>     3.3448     0.0019     0.0678     0.0678     0.0606     0.0000     0.0000     0.0000     0.0000     0.0000 </r>
        <r>     3.4160     0.0018     0.1008     0.1008     0.1040     0.0000     0.0000     0.0000     0.0000     0.0000 </r>
        <r>     3.4873     0.0017     0.1388     0.1388     0.1553     0.0000     0.0000     0.0000     0.0000     0.0000 </r>
        <r>     3.5585     0.0016     0.0921     0.0921     0.1065     0.0000     0.0000     0.0000     0.0000     0.0000 </r>
        <r>     3.6298     0.0015     0.0569     0.0569     0.0734     0.0000     0.0000     0.0000     0.0000     0.0000 </r>
        <r>     3.7011     0.0013     0.0559     0.0559     0.0740     0.0000     0.0000     0.0000     0.0000     0.0000 </r>
        <r>     3.7723     0.0012     0.0547     0.0547     0.0740     0.0000     0.0000     0.0000     0.0000     0.0000 </r>
        <r>     3.8436     0.0011     0.0533     0.0533     0.0734     0.0000     0.0000     0.0000     0.0000     0.0000 </r>
        <r>     3.9148     0.0011     0.0516     0.0516     0.0723     0.0000     0.0000     0.0000     0.0000     0.0000 </r>
        <r>     3.9861     0.0010     0.0498     0.0498     0.0705     0.0000     0.0000     0.0000     0.0000     0.0000 </r>
        <r>     4.0574     0.0009     0.0477     0.0477     0.0681     0.0000     0.0000     0.0000     0.0000     0.0000 </r>
        <r>     4.1286     0.0008     0.0455     0.0455     0.0652     0.0000     0.0000     0.0000     0.0000     0.0000 </r>
        <r>     4.1999     0.0007     0.0430     0.0430     0.0616     0.0000     0.0000     0.0000     0.0000     0.0000 </r>
[...]
       </set>
       <set comment="band 5">
        <r>  0.1722  0.0107  0.0107  0.0120  0.0000  0.0000  0.0000  0.0000  0.0000 </r>
        <r>  0.1722  0.0107  0.0107  0.0120  0.0000  0.0000  0.0000  0.0000  0.0000 </r>
       </set>
       <set comment="band 6">
        <r>  0.0000  0.0571  0.0571  0.0000  0.0000  0.0000  0.0000  0.0000  0.0000 </r>
        <r>  0.0000  0.0571  0.0571  0.0000  0.0000  0.0000  0.0000  0.0000  0.0000 </r>
       </set>
       <set comment="band 7">
        <r>  0.0001  0.0198  0.0198  0.0762  0.0000  0.0000  0.0000  0.0000  0.0000 </r>
        <r>  0.0001  0.0198  0.0198  0.0762  0.0000  0.0000  0.0000  0.0000  0.0000 </r>
       </set>
       <set comment="band 8">
        <r>  0.0231  0.0465  0.0461  0.0450  0.0000  0.0000  0.0000  0.0000  0.0000 </r>
        <r>  0.0231  0.0455  0.0463  0.0458  0.0000  0.0000  0.0000  0.0000  0.0000 </r>
       </set>
      </set>
      <set comment="kpoint 3">
       <set comment="band 1">
        <r>  0.2017  0.0000  0.0196  0.0000  0.0000  0.0000  0.0000  0.0000  0.0000 </r>
        <r>  0.2017  0.0000  0.0196  0.0000  0.0000  0.0000  0.0000  0.0000  0.0000 </r>
       </set>
       <set comment="band 2">
        <r>  0.1749  0.0000  0.0745  0.0000  0.0000  0.0000  0.0000  0.0000  0.0000 </r>
        <r>  0.1749  0.0000  0.0745  0.0000  0.0000  0.0000  0.0000  0.0000  0.0000 </r>
       </set>
       <set comment="band 3">
        <r>  0.0000  0.1140  0.0000  0.0790  0.0000  0.0000  0.0000  0.0000  0.0000 </r>
        <r>  0.0000  0.1140  0.0000  0.0790  0.0000  0.0000  0.0000  0.0000  0.0000 </r>
       </set>
       <set comment="band 4">
        <r>  0.0000  0.0788  0.0000  0.1139  0.0000  0.0000  0.0000  0.0000  0.0000 </r>
        <r>  0.0000  0.0788  0.0000  0.1139  0.0000  0.0000  0.0000  0.0000  0.0000 </r>
       </set>
       <set comment="band 5">
        <r>  0.0492  0.0000  0.0585  0.0000  0.0000  0.0000  0.0000  0.0000  0.0000 </r>
        <r>  0.0492  0.0000  0.0585  0.0000  0.0000  0.0000  0.0000  0.0000  0.0000 </r>
       </set>
       <set comment="band 6">
        <r>  0.0450  0.0000  0.0331  0.0000  0.0000  0.0000  0.0000  0.0000  0.0000 </r>
        <r>  0.0450  0.0000  0.0331  0.0000  0.0000  0.0000  0.0000  0.0000  0.0000 </r>
       </set>
       <set comment="band 7">
        <r>  0.0000  0.1014  0.0000  0.0651  0.0000  0.0000  0.0000  0.0000  0.0000 </r>
        <r>  0.0000  0.1014  0.0000  0.0651  0.0000  0.0000  0.0000  0.0000  0.0000 </r>
       </set>
       <set comment="band 8">
        <r>  0.0000  0.0653  0.0000  0.1012  0.0000  0.0000  0.0000  0.0000  0.0000 </r>
        <r>  0.0000  0.0653  0.0000  0.1012  0.0000  0.0000  0.0000  0.0000  0.0000 </r>
       </set>
      </set>
      <set comment="kpoint 4">
       <set comment="band 1">
        <r>  0.2121  0.0073  0.0116  0.0073  0.0000  0.0000  0.0000  0.0000  0.0000 </r>
        <r>  0.2121  0.0073  0.0116  0.0073  0.0000  0.0000  0.0000  0.0000  0.0000 </r>
       </set>
       <set comment="band 2">
        <r>  0.1759  0.0096  0.0404  0.0094  0.0000  0.0000  0.0000  0.0000  0.0000 </r>
        <r>  0.1759  0.0096  0.0404  0.0094  0.0000  0.0000  0.0000  0.0000  0.0000 </r>
       </set>
       <set comment="band 3">
        <r>  0.0033  0.0455  0.0575  0.0457  0.0000  0.0000  0.0000  0.0000  0.0000 </r>
        <r>  0.0033  0.0455  0.0575  0.0457  0.0000  0.0000  0.0000  0.0000  0.0000 </r>
       </set>
       <set comment="band 4">
        <r>  0.0000  0.0992  0.0000  0.0992  0.0000  0.0000  0.0000  0.0000  0.0000 </r>
        <r>  0.0000  0.0992  0.0000  0.0992  0.0000  0.0000  0.0000  0.0000  0.0000 </r>
       </set>
       <set comment="band 5">
        <r>  0.0543  0.0010  0.0450  0.0012  0.0000  0.0000  0.0000  0.0000  0.0000 </r>
        <r>  0.0543  0.0010  0.0450  0.0012  0.0000  0.0000  0.0000  0.0000  0.0000 </r>
       </set>
       <set comment="band 6">
        <r>  0.0077  0.0410  0.0020  0.0349  0.0000  0.0000  0.0000  0.0000  0.0000 </r>
        <r>  0.0077  0.0410  0.0020  0.0349  0.0000  0.0000  0.0000  0.0000  0.0000 </r>
       </set>
       <set comment="band 7">
        <r>  0.0004  0.0704  0.0008  0.0815  0.0000  0.0000  0.0000  0.0000  0.0000 </r>
        <r>  0.0004  0.0704  0.0008  0.0815  0.0000  0.0000  0.0000  0.0000  0.0000 </r>
       </set>
       <set comment="band 8">
        <r>  0.0427  0.0062  0.1232  0.0013  0.0000  0.0000  0.0000  0.0000  0.0000 </r>
        <r>  0.0426  0.0063  0.1233  0.0014  0.0000  0.0000  0.0000  0.0000  0.0000 </r>
       </set>
      </set>
      <set comment="kpoint 5">
       <set comment="band 1">
        <r>  0.2020  0.0000  0.0000  0.0196  0.0000  0.0000  0.0000  0.0000  0.0000 </r>
        <r>  0.2020  0.0000  0.0000  0.0196  0.0000  0.0000  0.0000  0.0000  0.0000 </r>
       </set>
       <set comment="band 2">
        <r>  0.1758  0.0000  0.0000  0.0742  0.0000  0.0000  0.0000  0.0000  0.0000 </r>
        <r>  0.1758  0.0000  0.0000  0.0742  0.0000  0.0000  0.0000  0.0000  0.0000 </r>
       </set>
       <set comment="band 3">
        <r>  0.0000  0.0963  0.0963  0.0000  0.0000  0.0000  0.0000  0.0000  0.0000 </r>
        <r>  0.0000  0.0963  0.0963  0.0000  0.0000  0.0000  0.0000  0.0000  0.0000 </r>
       </set>
       <set comment="band 4">
        <r>  0.0000  0.0963  0.0963  0.0000  0.0000  0.0000  0.0000  0.0000  0.0000 </r>
        <r>  0.0000  0.0963  0.0963  0.0000  0.0000  0.0000  0.0000  0.0000  0.0000 </r>
       </set>
       <set comment="band 5">
        <r>  0.0493  0.0000  0.0000  0.0589  0.0000  0.0000  0.0000  0.0000  0.0000 </r>
        <r>  0.0493  0.0000  0.0000  0.0589  0.0000  0.0000  0.0000  0.0000  0.0000 </r>
       </set>
       <set comment="band 6">
        <r>  0.0444  0.0000  0.0000  0.0343  0.0000  0.0000  0.0000  0.0000  0.0000 </r>
        <r>  0.0444  0.0000  0.0000  0.0343  0.0000  0.0000  0.0000  0.0000  0.0000 </r>
       </set>
       <set comment="band 7">
        <r>  0.0000  0.0831  0.0832  0.0000  0.0000  0.0000  0.0000  0.0000  0.0000 </r>
        <r>  0.0000  0.0830  0.0833  0.0000  0.0000  0.0000  0.0000  0.0000  0.0000 </r>
       </set>
       <set comment="band 8">
        <r>  0.0000  0.0832  0.0831  0.0000  0.0000  0.0000  0.0000  0.0000  0.0000 </r>
        <r>  0.0000  0.0833  0.0830  0.0000  0.0000  0.0000  0.0000  0.0000  0.0000 </r>
       </set>
      </set>
      <set comment="kpoint 6">
       <set comment="band 1">
        <r>  0.2118  0.0075  0.0075  0.0114  0.0000  0.0000  0.0000  0.0000  0.0000 </r>
        <r>  0.2118  0.0075  0.0075  0.0114  0.0000  0.0000  0.0000  0.0000  0.0000 </r>
       </set>
       <set comment="band 2">
        <r>  0.1764  0.0096  0.0096  0.0403  0.0000  0.0000  0.0000  0.0000  0.0000 </r>
        <r>  0.1764  0.0096  0.0096  0.0403  0.0000  0.0000  0.0000  0.0000  0.0000 </r>
       </set>
       <set comment="band 3">
        <r>  0.0036  0.0454  0.0454  0.0581  0.0000  0.0000  0.0000  0.0000  0.0000 </r>
        <r>  0.0036  0.0454  0.0454  0.0581  0.0000  0.0000  0.0000  0.0000  0.0000 </r>
       </set>
       <set comment="band 4">
        <r>  0.0000  0.0990  0.0990  0.0000  0.0000  0.0000  0.0000  0.0000  0.0000 </r>
        <r>  0.0000  0.0990  0.0990  0.0000  0.0000  0.0000  0.0000  0.0000  0.0000 </r>
       </set>
       <set comment="band 5">
        <r>  0.0540  0.0011  0.0011  0.0456  0.0000  0.0000  0.0000  0.0000  0.0000 </r>
        <r>  0.0540  0.0011  0.0011  0.0456  0.0000  0.0000  0.0000  0.0000  0.0000 </r>
       </set>
       <set comment="band 6">
        <r>  0.0087  0.0384  0.0384  0.0028  0.0000  0.0000  0.0000  0.0000  0.0000 </r>
        <r>  0.0087  0.0384  0.0384  0.0028  0.0000  0.0000  0.0000  0.0000  0.0000 </r>
       </set>
       <set comment="band 7">
        <r>  0.0000  0.0760  0.0760  0.0000  0.0000  0.0000  0.0000  0.0000  0.0000 </r>
        <r>  0.0000  0.0760  0.0760  0.0000  0.0000  0.0000  0.0000  0.0000  0.0000 </r>
       </set>
       <set comment="band 8">
        <r>  0.0428  0.0029  0.0029  0.1226  0.0000  0.0000  0.0000  0.0000  0.0000 </r>
        <r>  0.0429  0.0029  0.0029  0.1225  0.0000  0.0000  0.0000  0.0000  0.0000 </r>
       </set>
      </set>
     </set>
     <set comment="spin2">
      <set comment="kpoint 1">
       <set comment="band 1">
        <r>  0.2101  0.0000  0.0000  0.0000  0.0000  0.0000  0.0000  0.0000  0.0000 </r>
        <r>  0.2101  0.0000  0.0000  0.0000  0.0000  0.0000  0.0000  0.0000  0.0000 </r>
       </set>
       <set comment="band 2">
        <r>  0.0000  0.1059  0.1059  0.0000  0.0000  0.0000  0.0000  0.0000  0.0000 </r>
        <r>  0.0000  0.1059  0.1059  0.0000  0.0000  0.0000  0.0000  0.0000  0.0000 </r>
       </set>
       <set comment="band 3">
        <r>  0.0000  0.1059  0.1059  0.0000  0.0000  0.0000  0.0000  0.0000  0.0000 </r>
        <r>  0.0000  0.1059  0.1059  0.0000  0.0000  0.0000  0.0000  0.0000  0.0000 </r>
       </set>
       <set comment="band 4">
        <r>  0.0000  0.0000  0.0000  0.2113  0.0000  0.0000  0.0000  0.0000  0.0000 </r>
        <r>  0.0000  0.0000  0.0000  0.2113  0.0000  0.0000  0.0000  0.0000  0.0000 </r>
       </set>
       <set comment="band 5">
        <r>  0.0000  0.0000  0.0000  0.1500  0.0000  0.0000  0.0000  0.0000  0.0000 </r>
        <r>  0.0000  0.0000  0.0000  0.1500  0.0000  0.0000  0.0000  0.0000  0.0000 </r>
       </set>
       <set comment="band 6">
        <r>  0.0000  0.0746  0.0745  0.0000  0.0000  0.0000  0.0000  0.0000  0.0000 </r>
        <r>  0.0000  0.0746  0.0745  0.0000  0.0000  0.0000  0.0000  0.0000  0.0000 </r>
       </set>
       <set comment="band 7">
        <r>  0.0000  0.0745  0.0746  0.0000  0.0000  0.0000  0.0000  0.0000  0.0000 </r>
        <r>  0.0000  0.0745  0.0746  0.0000  0.0000  0.0000  0.0000  0.0000  0.0000 </r>
       </set>
       <set comment="band 8">
        <r>  0.3578  0.0000  0.0000  0.0000  0.0000  0.0000  0.0000  0.0000  0.0000 </r>
        <r>  0.3578  0.0000  0.0000  0.0000  0.0000  0.0000  0.0000  0.0000  0.0000 </r>
       </set>
      </set>
      <set comment="kpoint 2">
       <set comment="band 1">
        <r>  0.2083  0.0040  0.0040  0.0040  0.0000  0.0000  0.0000  0.0000  0.0000 </r>
        <r>  0.2083  0.0040  0.0040  0.0040  0.0000  0.0000  0.0000  0.0000  0.0000 </r>
       </set>
       <set comment="band 2">
        <r>  0.1069  0.0332  0.0332  0.0331  0.0000  0.0000  0.0000  0.0000  0.0000 </r>
        <r>  0.1069  0.0332  0.0332  0.0331  0.0000  0.0000  0.0000  0.0000  0.0000 </r>
       </set>
       <set comment="band 3">
        <r>  0.0000  0.1052  0.1052  0.0000  0.0000  0.0000  0.0000  0.0000  0.0000 </r>
        <r>  0.0000  0.1052  0.1052  0.0000  0.0000  0.0000  0.0000  0.0000  0.0000 </r>
       </set>
       <set comment="band 4">
        <r>  0.0000  0.0351  0.0351  0.1404  0.0000  0.0000  0.0000  0.0000  0.0000 </r>
        <r>  0.0000  0.0351  0.0351  0.1404  0.0000  0.0000  0.0000  0.0000  0.0000 </r>
       </set>
       <set comment="band 5">
        <r>  0.1722  0.0107  0.0107  0.0120  0.0000  0.0000  0.0000  0.0000  0.0000 </r>
        <r>  0.1722  0.0107  0.0107  0.0120  0.0000  0.0000  0.0000  0.0000  0.0000 </r>
       </set>
       <set comment="band 6">
        <r>  0.0000  0.0571  0.0571  0.0000  0.0000  0.0000  0.0000  0.0000  0.0000 </r>
        <r>  0.0000  0.0571  0.0571  0.0000  0.0000  0.0000  0.0000  0.0000  0.0000 </r>
       </set>
       <set comment="band 7">
        <r>  0.0001  0.0198  0.0198  0.0762  0.0000  0.0000  0.0000  0.0000  0.0000 </r>
        <r>  0.0001  0.0198  0.0198  0.0762  0.0000  0.0000  0.0000  0.0000  0.0000 </r>
       </set>
       <set comment="band 8">
        <r>  0.0230  0.0460  0.0461  0.0454  0.0000  0.0000  0.0000  0.0000  0.0000 </r>
        <r>  0.0230  0.0461  0.0460  0.0454  0.0000  0.0000  0.0000  0.0000  0.0000 </r>
       </set>
      </set>
      <set comment="kpoint 3">
       <set comment="band 1">
        <r>  0.2017  0.0000  0.0196  0.0000  0.0000  0.0000  0.0000  0.0000  0.0000 </r>
        <r>  0.2017  0.0000  0.0196  0.0000  0.0000  0.0000  0.0000  0.0000  0.0000 </r>
       </set>
       <set comment="band 2">
        <r>  0.1749  0.0000  0.0745  0.0000  0.0000  0.0000  0.0000  0.0000  0.0000 </r>
        <r>  0.1749  0.0000  0.0745  0.0000  0.0000  0.0000  0.0000  0.0000  0.0000 </r>
       </set>
       <set comment="band 3">
        <r>  0.0000  0.1140  0.0000  0.0790  0.0000  0.0000  0.0000  0.0000  0.0000 </r>
        <r>  0.0000  0.1140  0.0000  0.0790  0.0000  0.0000  0.0000  0.0000  0.0000 </r>
       </set>
       <set comment="band 4">
        <r>  0.0000  0.0788  0.0000  0.1139  0.0000  0.0000  0.0000  0.0000  0.0000 </r>
        <r>  0.0000  0.0788  0.0000  0.1139  0.0000  0.0000  0.0000  0.0000  0.0000 </r>
       </set>
       <set comment="band 5">
        <r>  0.0492  0.0000  0.0585  0.0000  0.0000  0.0000  0.0000  0.0000  0.0000 </r>
        <r>  0.0492  0.0000  0.0585  0.0000  0.0000  0.0000  0.0000  0.0000  0.0000 </r>
       </set>
       <set comment="band 6">
        <r>  0.0450  0.0000  0.0331  0.0000  0.0000  0.0000  0.0000  0.0000  0.0000 </r>
        <r>  0.0450  0.0000  0.0331  0.0000  0.0000  0.0000  0.0000  0.0000  0.0000 </r>
       </set>
       <set comment="band 7">
        <r>  0.0000  0.1014  0.0000  0.0651  0.0000  0.0000  0.0000  0.0000  0.0000 </r>
        <r>  0.0000  0.1014  0.0000  0.0651  0.0000  0.0000  0.0000  0.0000  0.0000 </r>
       </set>
       <set comment="band 8">
        <r>  0.0000  0.0653  0.0000  0.1012  0.0000  0.0000  0.0000  0.0000  0.0000 </r>
        <r>  0.0000  0.0653  0.0000  0.1012  0.0000  0.0000  0.0000  0.0000  0.0000 </r>
       </set>
      </set>
      <set comment="kpoint 4">
       <set comment="band 1">
        <r>  0.2121  0.0073  0.0116  0.0073  0.0000  0.0000  0.0000  0.0000  0.0000 </r>
        <r>  0.2121  0.0073  0.0116  0.0073  0.0000  0.0000  0.0000  0.0000  0.0000 </r>
       </set>
       <set comment="band 2">
        <r>  0.1759  0.0096  0.0404  0.0094  0.0000  0.0000  0.0000  0.0000  0.0000 </r>
        <r>  0.1759  0.0096  0.0404  0.0094  0.0000  0.0000  0.0000  0.0000  0.0000 </r>
       </set>
       <set comment="band 3">
        <r>  0.0033  0.0455  0.0575  0.0457  0.0000  0.0000  0.0000  0.0000  0.0000 </r>
        <r>  0.0033  0.0455  0.0575  0.0457  0.0000  0.0000  0.0000  0.0000  0.0000 </r>
       </set>
       <set comment="band 4">
        <r>  0.0000  0.0992  0.0000  0.0992  0.0000  0.0000  0.0000  0.0000  0.0000 </r>
        <r>  0.0000  0.0992  0.0000  0.0992  0.0000  0.0000  0.0000  0.0000  0.0000 </r>
       </set>
       <set comment="band 5">
        <r>  0.0543  0.0010  0.0450  0.0012  0.0000  0.0000  0.0000  0.0000  0.0000 </r>
        <r>  0.0543  0.0010  0.0450  0.0012  0.0000  0.0000  0.0000  0.0000  0.0000 </r>
       </set>
       <set comment="band 6">
        <r>  0.0077  0.0410  0.0020  0.0349  0.0000  0.0000  0.0000  0.0000  0.0000 </r>
        <r>  0.0077  0.0410  0.0020  0.0349  0.0000  0.0000  0.0000  0.0000  0.0000 </r>
       </set>
       <set comment="band 7">
        <r>  0.0004  0.0704  0.0008  0.0815  0.0000  0.0000  0.0000  0.0000  0.0000 </r>
        <r>  0.0004  0.0704  0.0008  0.0815  0.0000  0.0000  0.0000  0.0000  0.0000 </r>
       </set>
       <set comment="band 8">
        <r>  0.0427  0.0062  0.1232  0.0013  0.0000  0.0000  0.0000  0.0000  0.0000 </r>
        <r>  0.0427  0.0062  0.1233  0.0014  0.0000  0.0000  0.0000  0.0000  0.0000 </r>
       </set>
      </set>
      <set comment="kpoint 5">
       <set comment="band 1">
        <r>  0.2020  0.0000  0.0000  0.0196  0.0000  0.0000  0.0000  0.0000  0.0000 </r>
        <r>  0.2020  0.0000  0.0000  0.0196  0.0000  0.0000  0.0000  0.0000  0.0000 </r>
       </set>
       <set comment="band 2">
        <r>  0.1758  0.0000  0.0000  0.0742  0.0000  0.0000  0.0000  0.0000  0.0000 </r>
        <r>  0.1758  0.0000  0.0000  0.0742  0.0000  0.0000  0.0000  0.0000  0.0000 </r>
       </set>
       <set comment="band 3">
        <r>  0.0000  0.0963  0.0963  0.0000  0.0000  0.0000  0.0000  0.0000  0.0000 </r>
        <r>  0.0000  0.0963  0.0963  0.0000  0.0000  0.0000  0.0000  0.0000  0.0000 </r>
       </set>
       <set comment="band 4">
        <r>  0.0000  0.0963  0.0963  0.0000  0.0000  0.0000  0.0000  0.0000  0.0000 </r>
        <r>  0.0000  0.0963  0.0963  0.0000  0.0000  0.0000  0.0000  0.0000  0.0000 </r>
       </set>
       <set comment="band 5">
        <r>  0.0493  0.0000  0.0000  0.0589  0.0000  0.0000  0.0000  0.0000  0.0000 </r>
        <r>  0.0493  0.0000  0.0000  0.0589  0.0000  0.0000  0.0000  0.0000  0.0000 </r>
       </set>
       <set comment="band 6">
        <r>  0.0444  0.0000  0.0000  0.0343  0.0000  0.0000  0.0000  0.0000  0.0000 </r>
        <r>  0.0444  0.0000  0.0000  0.0343  0.0000  0.0000  0.0000  0.0000  0.0000 </r>
       </set>
       <set comment="band 7">
        <r>  0.0000  0.0788  0.0876  0.0000  0.0000  0.0000  0.0000  0.0000  0.0000 </r>
        <r>  0.0000  0.0760  0.0903  0.0000  0.0000  0.0000  0.0000  0.0000  0.0000 </r>
       </set>
       <set comment="band 8">
        <r>  0.0000  0.0876  0.0788  0.0000  0.0000  0.0000  0.0000  0.0000  0.0000 </r>
        <r>  0.0000  0.0903  0.0760  0.0000  0.0000  0.0000  0.0000  0.0000  0.0000 </r>
       </set>
      </set>
      <set comment="kpoint 6">
       <set comment="band 1">
        <r>  0.2118  0.0075  0.0075  0.0114  0.0000  0.0000  0.0000  0.0000  0.0000 </r>
        <r>  0.2118  0.0075  0.0075  0.0114  0.0000  0.0000  0.0000  0.0000  0.0000 </r>
       </set>
       <set comment="band 2">
        <r>  0.1764  0.0096  0.0096  0.0403  0.0000  0.0000  0.0000  0.0000  0.0000 </r>
        <r>  0.1764  0.0096  0.0096  0.0403  0.0000  0.0000  0.0000  0.0000  0.0000 </r>
       </set>
       <set comment="band 3">
        <r>  0.0036  0.0454  0.0454  0.0581  0.0000  0.0000  0.0000  0.0000  0.0000 </r>
        <r>  0.0036  0.0454  0.0454  0.0581  0.0000  0.0000  0.0000  0.0000  0.0000 </r>
       </set>
       <set comment="band 4">
        <r>  0.0000  0.0990  0.0990  0.0000  0.0000  0.0000  0.0000  0.0000  0.0000 </r>
        <r>  0.0000  0.0990  0.0990  0.0000  0.0000  0.0000  0.0000  0.0000  0.0000 </r>
       </set>
       <set comment="band 5">
        <r>  0.0540  0.0011  0.0011  0.0456  0.0000  0.0000  0.0000  0.0000  0.0000 </r>
        <r>  0.0540  0.0011  0.0011  0.0456  0.0000  0.0000  0.0000  0.0000  0.0000 </r>
       </set>
       <set comment="band 6">
        <r>  0.0087  0.0384  0.0384  0.0028  0.0000  0.0000  0.0000  0.0000  0.0000 </r>
        <r>  0.0087  0.0384  0.0384  0.0028  0.0000  0.0000  0.0000  0.0000  0.0000 </r>
       </set>
       <set comment="band 7">
        <r>  0.0000  0.0760  0.0760  0.0000  0.0000  0.0000  0.0000  0.0000  0.0000 </r>
        <r>  0.0000  0.0760  0.0760  0.0000  0.0000  0.0000  0.0000  0.0000  0.0000 </r>
       </set>
       <set comment="band 8">
        <r>  0.0428  0.0029  0.0029  0.1226  0.0000  0.0000  0.0000  0.0000  0.0000 </r>
        <r>  0.0429  0.0028  0.0028  0.1225  0.0000  0.0000  0.0000  0.0000  0.0000 </r>
       </set>
      </set>
     </set>
    </set>
   </array>
  </projected>
 </calculation>
 <structure name="finalpos" >
  <crystal>
   <varray name="basis" >
    <v>       0.00000000       2.75277700       2.75277700 </v>
    <v>       2.73897900       0.00000000       2.75277700 </v>
    <v>       2.73897900       2.75277700       0.00000000 </v>
   </varray>
   <i name="volume">     41.51076721 </i>
   <varray name="rec_basis" >
    <v>      -0.18254977       0.18163476       0.18163476 </v>
    <v>       0.18254977      -0.18163476       0.18163476 </v>
    <v>       0.18254977       0.18163476      -0.18163476 </v>
   </varray>
  </crystal>
  <varray name="positions" >
   <v>       0.75000000       0.75000000       0.75000000 </v>
   <v>       0.50000000       0.50000000       0.50000000 </v>
  </varray>
 </structure>
</modeling>
