Si    ONCVPSP-3.2.3.1  r_core=   1.40591   1.60303   1.80612
14.0000     12.0000      170510    zatom,zion,pspd
8      11   2     4   600     0    pspcod,pspxc,lmax,lloc,mmax,r2well
5.99000000  0.00000000  0.00000000    rchrg fchrg qchrg
2     2     2     0     0    nproj
1     1           extension_switch
0                         1.8360502489818D+00 -1.6640355119901D+00
1  0.0000000000000D+00 -1.4562797634454D-09  2.2523943821184D-10
2  1.0000000000000D-02  1.3612856380636D-01  4.3769627133219D-02
3  2.0000000000000D-02  2.7142247219746D-01  8.7545530854770D-02
4  3.0000000000000D-02  4.0505283069588D-01  1.3133342199120D-01
5  4.0000000000000D-02  5.3620222249892D-01  1.7513788582009D-01
6  5.0000000000000D-02  6.6407033718586D-01  2.1896183417434D-01
7  6.0000000000000D-02  7.8787946830904D-01  2.6280597523998D-01
8  7.0000000000000D-02  9.0687983788597D-01  3.0666830667848D-01
9  8.0000000000000D-02  1.0203547072664D+00  3.5054363747952D-01
10  9.0000000000000D-02  1.1276252356432D+00  3.9442314367261D-01
11  1.0000000000000D-01  1.2280550495944D+00  4.3829396269935D-01
12  1.1000000000000D-01  1.3210544894644D+00  4.8213883087504D-01
13  1.2000000000000D-01  1.4060845010947D+00  5.2593576795307D-01
14  1.3000000000000D-01  1.4826601443737D+00  5.6965781235155D-01
15  1.4000000000000D-01  1.5503536932633D+00  6.1327281011392D-01
16  1.5000000000000D-01  1.6087973053507D+00  6.5674326015820D-01
17  1.6000000000000D-01  1.6576852425301D+00  7.0002621782865D-01
18  1.7000000000000D-01  1.6967756281212D+00  7.4307325820338D-01
19  1.8000000000000D-01  1.7258917295284D+00  7.8583050003866D-01
20  1.9000000000000D-01  1.7449227594218D+00  8.2823869064937D-01
21  2.0000000000000D-01  1.7538241923272D+00  8.7023335144218D-01
22  2.1000000000000D-01  1.7526175974229D+00  9.1174498323856D-01
23  2.2000000000000D-01  1.7413899922191D+00  9.5269932995448D-01
24  2.3000000000000D-01  1.7202927256023D+00  9.9301769864810D-01
25  2.4000000000000D-01  1.6895399024389D+00  1.0326173334113D+00
26  2.5000000000000D-01  1.6494063655049D+00  1.0714118400705D+00
27  2.6000000000000D-01  1.6002252539238D+00  1.1093116581824D+00
28  2.7000000000000D-01  1.5423851605103D+00  1.1462245763630D+00
29  2.8000000000000D-01  1.4763269134239D+00  1.1820562865849D+00
30  2.9000000000000D-01  1.4025400102853D+00  1.2167109727076D+00
31  3.0000000000000D-01  1.3215587354050D+00  1.2500919281945D+00
32  3.1000000000000D-01  1.2339579929742D+00  1.2821021976925D+00
33  3.2000000000000D-01  1.1403488909693D+00  1.3126452369382D+00
34  3.3000000000000D-01  1.0413741121108D+00  1.3416255852847D+00
35  3.4000000000000D-01  9.3770310947128D-01  1.3689495450319D+00
36  3.5000000000000D-01  8.3002716525672D-01  1.3945258616895D+00
37  3.6000000000000D-01  7.1905435187063D-01  1.4182663992948D+00
38  3.7000000000000D-01  6.0550443461956D-01  1.4400868049677D+00
39  3.8000000000000D-01  4.9010375533054D-01  1.4599071569846D+00
40  3.9000000000000D-01  3.7358013573336D-01  1.4776525908198D+00
41  4.0000000000000D-01  2.5665783871989D-01  1.4932538978079D+00
42  4.1000000000000D-01  1.4005262454261D-01  1.5066480913397D+00
43  4.2000000000000D-01  2.4466937668997D-02  1.5177789358101D+00
44  4.3000000000000D-01 -8.9414741616029D-02  1.5265974338757D+00
45  4.4000000000000D-01 -2.0093034864913D-01  1.5330622679693D+00
46  4.5000000000000D-01 -3.0944445877790D-01  1.5371401924291D+00
47  4.6000000000000D-01 -4.1435225694076D-01  1.5388063730504D+00
48  4.7000000000000D-01 -5.1508322719539D-01  1.5380446713382D+00
49  4.8000000000000D-01 -6.1110453963174D-01  1.5348478712299D+00
50  4.9000000000000D-01 -7.0192411491504D-01  1.5292178465631D+00
51  5.0000000000000D-01 -7.8709334961500D-01  1.5211656680830D+00
52  5.1000000000000D-01 -8.6620948846152D-01  1.5107116493016D+00
53  5.2000000000000D-01 -9.3891763269411D-01  1.4978853310458D+00
54  5.3000000000000D-01 -1.0049123767121D+00  1.4827254050464D+00
55  5.4000000000000D-01 -1.0639390682540D+00  1.4652795774256D+00
56  5.5000000000000D-01 -1.1157946903154D+00  1.4456043734363D+00
57  5.6000000000000D-01 -1.1603283659184D+00  1.4237648852741D+00
58  5.7000000000000D-01 -1.1974414896521D+00  1.3998344652365D+00
59  5.8000000000000D-01 -1.2270874925888D+00  1.3738943669249D+00
60  5.9000000000000D-01 -1.2492712497137D+00  1.3460333375753D+00
61  6.0000000000000D-01 -1.2640481413765D+00  1.3163471649640D+00
62  6.1000000000000D-01 -1.2715227824569D+00  1.2849381826529D+00
63  6.2000000000000D-01 -1.2718474349100D+00  1.2519147376228D+00
64  6.3000000000000D-01 -1.2652201211283D+00  1.2173906245844D+00
65  6.4000000000000D-01 -1.2518824570820D+00  1.1814844914544D+00
66  6.5000000000000D-01 -1.2321172255053D+00  1.1443192206414D+00
67  6.6000000000000D-01 -1.2062457104478D+00  1.1060212908974D+00
68  6.7000000000000D-01 -1.1746248153155D+00  1.0667201245594D+00
69  6.8000000000000D-01 -1.1376439870978D+00  1.0265474250308D+00
70  6.9000000000000D-01 -1.0957219697851D+00  9.8563650933364D-01
71  7.0000000000000D-01 -1.0493034100686D+00  9.4412164050582D-01
72  7.1000000000000D-01 -9.9885533825529D-01  9.0213736451784D-01
73  7.2000000000000D-01 -9.4486354695991D-01  8.5981785624757D-01
74  7.3000000000000D-01 -8.8782888954421D-01  8.1729627888126D-01
75  7.4000000000000D-01 -8.2826351949387D-01  7.7470416090419D-01
76  7.5000000000000D-01 -7.6668709095589D-01  7.3217079461158D-01
77  7.6000000000000D-01 -7.0362293953231D-01  6.8982265980958D-01
78  7.7000000000000D-01 -6.3959426114631D-01  6.4778287609226D-01
79  7.8000000000000D-01 -5.7512030539887D-01  6.0617068677711D-01
80  7.9000000000000D-01 -5.1071259832501D-01  5.6510097726073D-01
81  8.0000000000000D-01 -4.4687120786656D-01  5.2468383022310D-01
82  8.1000000000000D-01 -3.8408106372347D-01  4.8502411976571D-01
83  8.2000000000000D-01 -3.2280834154846D-01  4.4622114621948D-01
84  8.3000000000000D-01 -2.6349691973247D-01  4.0836831300680D-01
85  8.4000000000000D-01 -2.0656491531214D-01  3.7155284659069D-01
86  8.5000000000000D-01 -1.5240130383442D-01  3.3585556019664D-01
87  8.6000000000000D-01 -1.0136262635930D-01  3.0135066165218D-01
88  8.7000000000000D-01 -5.3769785184906D-02  2.6810560535819D-01
89  8.8000000000000D-01 -9.9049283601710D-03  2.3618098808707D-01
90  8.9000000000000D-01  2.9991578377720D-02  2.0563048799855D-01
91  9.0000000000000D-01  6.5724094925028D-02  1.7650084597634D-01
92  9.1000000000000D-01  9.7144569278679D-02  1.4883188811941D-01
93  9.2000000000000D-01  1.2415532410801D-01  1.2265658797245D-01
94  9.3000000000000D-01  1.4671177332391D-01  9.8001166852359D-02
95  9.4000000000000D-01  1.6482507532633D-01  7.4885230421506D-02
96  9.5000000000000D-01  1.7856473024824D-01  5.3321939476558D-02
97  9.6000000000000D-01  1.8806112899710D-01  3.3318212762209D-02
98  9.7000000000000D-01  1.9350806222280D-01  1.4874959484472D-02
99  9.8000000000000D-01  1.9516520738758D-01 -2.0126603206792D-03
100  9.9000000000000D-01  1.9336060325130D-01 -1.7354950586100D-02
101  1.0000000000000D+00  1.8849253815221D-01 -3.1167402959709D-02
102  1.0100000000000D+00  1.8103424427049D-01 -4.3470238087776D-02
103  1.0200000000000D+00  1.7152322269665D-01 -5.4288850736855D-02
104  1.0300000000000D+00  1.6053174702889D-01 -6.3655160498451D-02
105  1.0400000000000D+00  1.4863795148073D-01 -7.1608518899784D-02
106  1.0500000000000D+00  1.3641782264207D-01 -7.8195163318791D-02
107  1.0600000000000D+00  1.2443389372232D-01 -8.3467824060521D-02
108  1.0700000000000D+00  1.1322264990071D-01 -8.7485344449065D-02
109  1.0800000000000D+00  1.0328034774233D-01 -9.0312325752312D-02
110  1.0900000000000D+00  9.5047587397397D-02 -9.2018776329052D-02
111  1.1000000000000D+00  8.8893052326820D-02 -9.2679747118408D-02
112  1.1100000000000D+00  8.5097140233891D-02 -9.2374927190354D-02
113  1.1200000000000D+00  8.3836484755646D-02 -9.1188170652324D-02
114  1.1300000000000D+00  8.5170597701752D-02 -8.9206925994791D-02
115  1.1400000000000D+00  8.9032015316738D-02 -8.6521542658673D-02
116  1.1500000000000D+00  9.5221459055017D-02 -8.3224433522176D-02
117  1.1600000000000D+00  1.0340941890374D-01 -7.9409086203009D-02
118  1.1700000000000D+00  1.1314522967007D-01 -7.5168930751738D-02
119  1.1800000000000D+00  1.2387427539774D-01 -7.0596087034173D-02
120  1.1900000000000D+00  1.3496337756806D-01 -6.5780034403629D-02
121  1.2000000000000D+00  1.4573336026192D-01 -6.0806267949813D-02
122  1.2100000000000D+00  1.5549705316727D-01 -5.5755010914697D-02
123  1.2200000000000D+00  1.6360043784011D-01 -5.0700064350297D-02
124  1.2300000000000D+00  1.6946349931776D-01 -4.5707873058862D-02
125  1.2400000000000D+00  1.7261768864785D-01 -4.0836863320360D-02
126  1.2500000000000D+00  1.7273666169132D-01 -3.6137102684242D-02
127  1.2600000000000D+00  1.6965737714398D-01 -3.1650294400805D-02
128  1.2700000000000D+00  1.6339019099473D-01 -2.7410082246319D-02
129  1.2800000000000D+00  1.5411676673847D-01 -2.3442634338121D-02
130  1.2900000000000D+00  1.4217642992199D-01 -1.9767428200243D-02
131  1.3000000000000D+00  1.2804289618426D-01 -1.6398158684743D-02
132  1.3100000000000D+00  1.1229326592186D-01 -1.3343686104167D-02
133  1.3200000000000D+00  9.5572925550796D-02 -1.0608933464438D-02
134  1.3300000000000D+00  7.8558923998333D-02 -8.1956857164540D-03
135  1.3400000000000D+00  6.1925188158086D-02 -6.1032220869461D-03
136  1.3500000000000D+00  4.6311825148181D-02 -4.3287731443512D-03
137  1.3600000000000D+00  3.2305862181815D-02 -2.8681857076003D-03
138  1.3700000000000D+00  2.0398248825882D-02 -1.7144739695485D-03
139  1.3800000000000D+00  1.0938316811777D-02 -8.5595001733073D-04
140  1.3900000000000D+00  4.4747883090688D-03 -2.9623899126758D-04
141  1.4000000000000D+00  1.2119119193958D-03 -2.1821786385832D-05
142  1.4100000000000D+00  1.0387076045559D-04  4.4320209913294D-05
143  1.4200000000000D+00 -2.4176835547413D-05  1.1411224282532D-05
144  1.4300000000000D+00  2.9005470712522D-05 -9.4216377149072D-06
145  1.4400000000000D+00 -8.6796531194939D-08  6.4795800368280D-08
146  1.4500000000000D+00 -3.2587482097265D-06  1.7805862125536D-06
147  1.4600000000000D+00 -6.1021110226061D-07 -5.7401343789986D-08
148  1.4700000000000D+00 -7.7418175545218D-07 -7.2825736758991D-08
149  1.4800000000000D+00  0.0000000000000D+00  0.0000000000000D+00
150  1.4900000000000D+00  0.0000000000000D+00  0.0000000000000D+00
151  1.5000000000000D+00  0.0000000000000D+00  0.0000000000000D+00
152  1.5100000000000D+00  0.0000000000000D+00  0.0000000000000D+00
153  1.5200000000000D+00  0.0000000000000D+00  0.0000000000000D+00
154  1.5300000000000D+00  0.0000000000000D+00  0.0000000000000D+00
155  1.5400000000000D+00  0.0000000000000D+00  0.0000000000000D+00
156  1.5500000000000D+00  0.0000000000000D+00  0.0000000000000D+00
157  1.5600000000000D+00  0.0000000000000D+00  0.0000000000000D+00
158  1.5700000000000D+00  0.0000000000000D+00  0.0000000000000D+00
159  1.5800000000000D+00  0.0000000000000D+00  0.0000000000000D+00
160  1.5900000000000D+00  0.0000000000000D+00  0.0000000000000D+00
161  1.6000000000000D+00  0.0000000000000D+00  0.0000000000000D+00
162  1.6100000000000D+00  0.0000000000000D+00  0.0000000000000D+00
163  1.6200000000000D+00  0.0000000000000D+00  0.0000000000000D+00
164  1.6300000000000D+00  0.0000000000000D+00  0.0000000000000D+00
165  1.6400000000000D+00  0.0000000000000D+00  0.0000000000000D+00
166  1.6500000000000D+00  0.0000000000000D+00  0.0000000000000D+00
167  1.6600000000000D+00  0.0000000000000D+00  0.0000000000000D+00
168  1.6700000000000D+00  0.0000000000000D+00  0.0000000000000D+00
169  1.6800000000000D+00  0.0000000000000D+00  0.0000000000000D+00
170  1.6900000000000D+00  0.0000000000000D+00  0.0000000000000D+00
171  1.7000000000000D+00  0.0000000000000D+00  0.0000000000000D+00
172  1.7100000000000D+00  0.0000000000000D+00  0.0000000000000D+00
173  1.7200000000000D+00  0.0000000000000D+00  0.0000000000000D+00
174  1.7300000000000D+00  0.0000000000000D+00  0.0000000000000D+00
175  1.7400000000000D+00  0.0000000000000D+00  0.0000000000000D+00
176  1.7500000000000D+00  0.0000000000000D+00  0.0000000000000D+00
177  1.7600000000000D+00  0.0000000000000D+00  0.0000000000000D+00
178  1.7700000000000D+00  0.0000000000000D+00  0.0000000000000D+00
179  1.7800000000000D+00  0.0000000000000D+00  0.0000000000000D+00
180  1.7900000000000D+00  0.0000000000000D+00  0.0000000000000D+00
181  1.8000000000000D+00  0.0000000000000D+00  0.0000000000000D+00
182  1.8100000000000D+00  0.0000000000000D+00  0.0000000000000D+00
183  1.8200000000000D+00  0.0000000000000D+00  0.0000000000000D+00
184  1.8300000000000D+00  0.0000000000000D+00  0.0000000000000D+00
185  1.8400000000000D+00  0.0000000000000D+00  0.0000000000000D+00
186  1.8500000000000D+00  0.0000000000000D+00  0.0000000000000D+00
187  1.8600000000000D+00  0.0000000000000D+00  0.0000000000000D+00
188  1.8700000000000D+00  0.0000000000000D+00  0.0000000000000D+00
189  1.8800000000000D+00  0.0000000000000D+00  0.0000000000000D+00
190  1.8900000000000D+00  0.0000000000000D+00  0.0000000000000D+00
191  1.9000000000000D+00  0.0000000000000D+00  0.0000000000000D+00
192  1.9100000000000D+00  0.0000000000000D+00  0.0000000000000D+00
193  1.9200000000000D+00  0.0000000000000D+00  0.0000000000000D+00
194  1.9300000000000D+00  0.0000000000000D+00  0.0000000000000D+00
195  1.9400000000000D+00  0.0000000000000D+00  0.0000000000000D+00
196  1.9500000000000D+00  0.0000000000000D+00  0.0000000000000D+00
197  1.9600000000000D+00  0.0000000000000D+00  0.0000000000000D+00
198  1.9700000000000D+00  0.0000000000000D+00  0.0000000000000D+00
199  1.9800000000000D+00  0.0000000000000D+00  0.0000000000000D+00
200  1.9900000000000D+00  0.0000000000000D+00  0.0000000000000D+00
201  2.0000000000000D+00  0.0000000000000D+00  0.0000000000000D+00
202  2.0100000000000D+00  0.0000000000000D+00  0.0000000000000D+00
203  2.0200000000000D+00  0.0000000000000D+00  0.0000000000000D+00
204  2.0300000000000D+00  0.0000000000000D+00  0.0000000000000D+00
205  2.0400000000000D+00  0.0000000000000D+00  0.0000000000000D+00
206  2.0500000000000D+00  0.0000000000000D+00  0.0000000000000D+00
207  2.0600000000000D+00  0.0000000000000D+00  0.0000000000000D+00
208  2.0700000000000D+00  0.0000000000000D+00  0.0000000000000D+00
209  2.0800000000000D+00  0.0000000000000D+00  0.0000000000000D+00
210  2.0900000000000D+00  0.0000000000000D+00  0.0000000000000D+00
211  2.1000000000000D+00  0.0000000000000D+00  0.0000000000000D+00
212  2.1100000000000D+00  0.0000000000000D+00  0.0000000000000D+00
213  2.1200000000000D+00  0.0000000000000D+00  0.0000000000000D+00
214  2.1300000000000D+00  0.0000000000000D+00  0.0000000000000D+00
215  2.1400000000000D+00  0.0000000000000D+00  0.0000000000000D+00
216  2.1500000000000D+00  0.0000000000000D+00  0.0000000000000D+00
217  2.1600000000000D+00  0.0000000000000D+00  0.0000000000000D+00
218  2.1700000000000D+00  0.0000000000000D+00  0.0000000000000D+00
219  2.1800000000000D+00  0.0000000000000D+00  0.0000000000000D+00
220  2.1900000000000D+00  0.0000000000000D+00  0.0000000000000D+00
221  2.2000000000000D+00  0.0000000000000D+00  0.0000000000000D+00
222  2.2100000000000D+00  0.0000000000000D+00  0.0000000000000D+00
223  2.2200000000000D+00  0.0000000000000D+00  0.0000000000000D+00
224  2.2300000000000D+00  0.0000000000000D+00  0.0000000000000D+00
225  2.2400000000000D+00  0.0000000000000D+00  0.0000000000000D+00
226  2.2500000000000D+00  0.0000000000000D+00  0.0000000000000D+00
227  2.2600000000000D+00  0.0000000000000D+00  0.0000000000000D+00
228  2.2700000000000D+00  0.0000000000000D+00  0.0000000000000D+00
229  2.2800000000000D+00  0.0000000000000D+00  0.0000000000000D+00
230  2.2900000000000D+00  0.0000000000000D+00  0.0000000000000D+00
231  2.3000000000000D+00  0.0000000000000D+00  0.0000000000000D+00
232  2.3100000000000D+00  0.0000000000000D+00  0.0000000000000D+00
233  2.3200000000000D+00  0.0000000000000D+00  0.0000000000000D+00
234  2.3300000000000D+00  0.0000000000000D+00  0.0000000000000D+00
235  2.3400000000000D+00  0.0000000000000D+00  0.0000000000000D+00
236  2.3500000000000D+00  0.0000000000000D+00  0.0000000000000D+00
237  2.3600000000000D+00  0.0000000000000D+00  0.0000000000000D+00
238  2.3700000000000D+00  0.0000000000000D+00  0.0000000000000D+00
239  2.3800000000000D+00  0.0000000000000D+00  0.0000000000000D+00
240  2.3900000000000D+00  0.0000000000000D+00  0.0000000000000D+00
241  2.4000000000000D+00  0.0000000000000D+00  0.0000000000000D+00
242  2.4100000000000D+00  0.0000000000000D+00  0.0000000000000D+00
243  2.4200000000000D+00  0.0000000000000D+00  0.0000000000000D+00
244  2.4300000000000D+00  0.0000000000000D+00  0.0000000000000D+00
245  2.4400000000000D+00  0.0000000000000D+00  0.0000000000000D+00
246  2.4500000000000D+00  0.0000000000000D+00  0.0000000000000D+00
247  2.4600000000000D+00  0.0000000000000D+00  0.0000000000000D+00
248  2.4700000000000D+00  0.0000000000000D+00  0.0000000000000D+00
249  2.4800000000000D+00  0.0000000000000D+00  0.0000000000000D+00
250  2.4900000000000D+00  0.0000000000000D+00  0.0000000000000D+00
251  2.5000000000000D+00  0.0000000000000D+00  0.0000000000000D+00
252  2.5100000000000D+00  0.0000000000000D+00  0.0000000000000D+00
253  2.5200000000000D+00  0.0000000000000D+00  0.0000000000000D+00
254  2.5300000000000D+00  0.0000000000000D+00  0.0000000000000D+00
255  2.5400000000000D+00  0.0000000000000D+00  0.0000000000000D+00
256  2.5500000000000D+00  0.0000000000000D+00  0.0000000000000D+00
257  2.5600000000000D+00  0.0000000000000D+00  0.0000000000000D+00
258  2.5700000000000D+00  0.0000000000000D+00  0.0000000000000D+00
259  2.5800000000000D+00  0.0000000000000D+00  0.0000000000000D+00
260  2.5900000000000D+00  0.0000000000000D+00  0.0000000000000D+00
261  2.6000000000000D+00  0.0000000000000D+00  0.0000000000000D+00
262  2.6100000000000D+00  0.0000000000000D+00  0.0000000000000D+00
263  2.6200000000000D+00  0.0000000000000D+00  0.0000000000000D+00
264  2.6300000000000D+00  0.0000000000000D+00  0.0000000000000D+00
265  2.6400000000000D+00  0.0000000000000D+00  0.0000000000000D+00
266  2.6500000000000D+00  0.0000000000000D+00  0.0000000000000D+00
267  2.6600000000000D+00  0.0000000000000D+00  0.0000000000000D+00
268  2.6700000000000D+00  0.0000000000000D+00  0.0000000000000D+00
269  2.6800000000000D+00  0.0000000000000D+00  0.0000000000000D+00
270  2.6900000000000D+00  0.0000000000000D+00  0.0000000000000D+00
271  2.7000000000000D+00  0.0000000000000D+00  0.0000000000000D+00
272  2.7100000000000D+00  0.0000000000000D+00  0.0000000000000D+00
273  2.7200000000000D+00  0.0000000000000D+00  0.0000000000000D+00
274  2.7300000000000D+00  0.0000000000000D+00  0.0000000000000D+00
275  2.7400000000000D+00  0.0000000000000D+00  0.0000000000000D+00
276  2.7500000000000D+00  0.0000000000000D+00  0.0000000000000D+00
277  2.7600000000000D+00  0.0000000000000D+00  0.0000000000000D+00
278  2.7700000000000D+00  0.0000000000000D+00  0.0000000000000D+00
279  2.7800000000000D+00  0.0000000000000D+00  0.0000000000000D+00
280  2.7900000000000D+00  0.0000000000000D+00  0.0000000000000D+00
281  2.8000000000000D+00  0.0000000000000D+00  0.0000000000000D+00
282  2.8100000000000D+00  0.0000000000000D+00  0.0000000000000D+00
283  2.8200000000000D+00  0.0000000000000D+00  0.0000000000000D+00
284  2.8300000000000D+00  0.0000000000000D+00  0.0000000000000D+00
285  2.8400000000000D+00  0.0000000000000D+00  0.0000000000000D+00
286  2.8500000000000D+00  0.0000000000000D+00  0.0000000000000D+00
287  2.8600000000000D+00  0.0000000000000D+00  0.0000000000000D+00
288  2.8700000000000D+00  0.0000000000000D+00  0.0000000000000D+00
289  2.8800000000000D+00  0.0000000000000D+00  0.0000000000000D+00
290  2.8900000000000D+00  0.0000000000000D+00  0.0000000000000D+00
291  2.9000000000000D+00  0.0000000000000D+00  0.0000000000000D+00
292  2.9100000000000D+00  0.0000000000000D+00  0.0000000000000D+00
293  2.9200000000000D+00  0.0000000000000D+00  0.0000000000000D+00
294  2.9300000000000D+00  0.0000000000000D+00  0.0000000000000D+00
295  2.9400000000000D+00  0.0000000000000D+00  0.0000000000000D+00
296  2.9500000000000D+00  0.0000000000000D+00  0.0000000000000D+00
297  2.9600000000000D+00  0.0000000000000D+00  0.0000000000000D+00
298  2.9700000000000D+00  0.0000000000000D+00  0.0000000000000D+00
299  2.9800000000000D+00  0.0000000000000D+00  0.0000000000000D+00
300  2.9900000000000D+00  0.0000000000000D+00  0.0000000000000D+00
301  3.0000000000000D+00  0.0000000000000D+00  0.0000000000000D+00
302  3.0100000000000D+00  0.0000000000000D+00  0.0000000000000D+00
303  3.0200000000000D+00  0.0000000000000D+00  0.0000000000000D+00
304  3.0300000000000D+00  0.0000000000000D+00  0.0000000000000D+00
305  3.0400000000000D+00  0.0000000000000D+00  0.0000000000000D+00
306  3.0500000000000D+00  0.0000000000000D+00  0.0000000000000D+00
307  3.0600000000000D+00  0.0000000000000D+00  0.0000000000000D+00
308  3.0700000000000D+00  0.0000000000000D+00  0.0000000000000D+00
309  3.0800000000000D+00  0.0000000000000D+00  0.0000000000000D+00
310  3.0900000000000D+00  0.0000000000000D+00  0.0000000000000D+00
311  3.1000000000000D+00  0.0000000000000D+00  0.0000000000000D+00
312  3.1100000000000D+00  0.0000000000000D+00  0.0000000000000D+00
313  3.1200000000000D+00  0.0000000000000D+00  0.0000000000000D+00
314  3.1300000000000D+00  0.0000000000000D+00  0.0000000000000D+00
315  3.1400000000000D+00  0.0000000000000D+00  0.0000000000000D+00
316  3.1500000000000D+00  0.0000000000000D+00  0.0000000000000D+00
317  3.1600000000000D+00  0.0000000000000D+00  0.0000000000000D+00
318  3.1700000000000D+00  0.0000000000000D+00  0.0000000000000D+00
319  3.1800000000000D+00  0.0000000000000D+00  0.0000000000000D+00
320  3.1900000000000D+00  0.0000000000000D+00  0.0000000000000D+00
321  3.2000000000000D+00  0.0000000000000D+00  0.0000000000000D+00
322  3.2100000000000D+00  0.0000000000000D+00  0.0000000000000D+00
323  3.2200000000000D+00  0.0000000000000D+00  0.0000000000000D+00
324  3.2300000000000D+00  0.0000000000000D+00  0.0000000000000D+00
325  3.2400000000000D+00  0.0000000000000D+00  0.0000000000000D+00
326  3.2500000000000D+00  0.0000000000000D+00  0.0000000000000D+00
327  3.2600000000000D+00  0.0000000000000D+00  0.0000000000000D+00
328  3.2700000000000D+00  0.0000000000000D+00  0.0000000000000D+00
329  3.2800000000000D+00  0.0000000000000D+00  0.0000000000000D+00
330  3.2900000000000D+00  0.0000000000000D+00  0.0000000000000D+00
331  3.3000000000000D+00  0.0000000000000D+00  0.0000000000000D+00
332  3.3100000000000D+00  0.0000000000000D+00  0.0000000000000D+00
333  3.3200000000000D+00  0.0000000000000D+00  0.0000000000000D+00
334  3.3300000000000D+00  0.0000000000000D+00  0.0000000000000D+00
335  3.3400000000000D+00  0.0000000000000D+00  0.0000000000000D+00
336  3.3500000000000D+00  0.0000000000000D+00  0.0000000000000D+00
337  3.3600000000000D+00  0.0000000000000D+00  0.0000000000000D+00
338  3.3700000000000D+00  0.0000000000000D+00  0.0000000000000D+00
339  3.3800000000000D+00  0.0000000000000D+00  0.0000000000000D+00
340  3.3900000000000D+00  0.0000000000000D+00  0.0000000000000D+00
341  3.4000000000000D+00  0.0000000000000D+00  0.0000000000000D+00
342  3.4100000000000D+00  0.0000000000000D+00  0.0000000000000D+00
343  3.4200000000000D+00  0.0000000000000D+00  0.0000000000000D+00
344  3.4300000000000D+00  0.0000000000000D+00  0.0000000000000D+00
345  3.4400000000000D+00  0.0000000000000D+00  0.0000000000000D+00
346  3.4500000000000D+00  0.0000000000000D+00  0.0000000000000D+00
347  3.4600000000000D+00  0.0000000000000D+00  0.0000000000000D+00
348  3.4700000000000D+00  0.0000000000000D+00  0.0000000000000D+00
349  3.4800000000000D+00  0.0000000000000D+00  0.0000000000000D+00
350  3.4900000000000D+00  0.0000000000000D+00  0.0000000000000D+00
351  3.5000000000000D+00  0.0000000000000D+00  0.0000000000000D+00
352  3.5100000000000D+00  0.0000000000000D+00  0.0000000000000D+00
353  3.5200000000000D+00  0.0000000000000D+00  0.0000000000000D+00
354  3.5300000000000D+00  0.0000000000000D+00  0.0000000000000D+00
355  3.5400000000000D+00  0.0000000000000D+00  0.0000000000000D+00
356  3.5500000000000D+00  0.0000000000000D+00  0.0000000000000D+00
357  3.5600000000000D+00  0.0000000000000D+00  0.0000000000000D+00
358  3.5700000000000D+00  0.0000000000000D+00  0.0000000000000D+00
359  3.5800000000000D+00  0.0000000000000D+00  0.0000000000000D+00
360  3.5900000000000D+00  0.0000000000000D+00  0.0000000000000D+00
361  3.6000000000000D+00  0.0000000000000D+00  0.0000000000000D+00
362  3.6100000000000D+00  0.0000000000000D+00  0.0000000000000D+00
363  3.6200000000000D+00  0.0000000000000D+00  0.0000000000000D+00
364  3.6300000000000D+00  0.0000000000000D+00  0.0000000000000D+00
365  3.6400000000000D+00  0.0000000000000D+00  0.0000000000000D+00
366  3.6500000000000D+00  0.0000000000000D+00  0.0000000000000D+00
367  3.6600000000000D+00  0.0000000000000D+00  0.0000000000000D+00
368  3.6700000000000D+00  0.0000000000000D+00  0.0000000000000D+00
369  3.6800000000000D+00  0.0000000000000D+00  0.0000000000000D+00
370  3.6900000000000D+00  0.0000000000000D+00  0.0000000000000D+00
371  3.7000000000000D+00  0.0000000000000D+00  0.0000000000000D+00
372  3.7100000000000D+00  0.0000000000000D+00  0.0000000000000D+00
373  3.7200000000000D+00  0.0000000000000D+00  0.0000000000000D+00
374  3.7300000000000D+00  0.0000000000000D+00  0.0000000000000D+00
375  3.7400000000000D+00  0.0000000000000D+00  0.0000000000000D+00
376  3.7500000000000D+00  0.0000000000000D+00  0.0000000000000D+00
377  3.7600000000000D+00  0.0000000000000D+00  0.0000000000000D+00
378  3.7700000000000D+00  0.0000000000000D+00  0.0000000000000D+00
379  3.7800000000000D+00  0.0000000000000D+00  0.0000000000000D+00
380  3.7900000000000D+00  0.0000000000000D+00  0.0000000000000D+00
381  3.8000000000000D+00  0.0000000000000D+00  0.0000000000000D+00
382  3.8100000000000D+00  0.0000000000000D+00  0.0000000000000D+00
383  3.8200000000000D+00  0.0000000000000D+00  0.0000000000000D+00
384  3.8300000000000D+00  0.0000000000000D+00  0.0000000000000D+00
385  3.8400000000000D+00  0.0000000000000D+00  0.0000000000000D+00
386  3.8500000000000D+00  0.0000000000000D+00  0.0000000000000D+00
387  3.8600000000000D+00  0.0000000000000D+00  0.0000000000000D+00
388  3.8700000000000D+00  0.0000000000000D+00  0.0000000000000D+00
389  3.8800000000000D+00  0.0000000000000D+00  0.0000000000000D+00
390  3.8900000000000D+00  0.0000000000000D+00  0.0000000000000D+00
391  3.9000000000000D+00  0.0000000000000D+00  0.0000000000000D+00
392  3.9100000000000D+00  0.0000000000000D+00  0.0000000000000D+00
393  3.9200000000000D+00  0.0000000000000D+00  0.0000000000000D+00
394  3.9300000000000D+00  0.0000000000000D+00  0.0000000000000D+00
395  3.9400000000000D+00  0.0000000000000D+00  0.0000000000000D+00
396  3.9500000000000D+00  0.0000000000000D+00  0.0000000000000D+00
397  3.9600000000000D+00  0.0000000000000D+00  0.0000000000000D+00
398  3.9700000000000D+00  0.0000000000000D+00  0.0000000000000D+00
399  3.9800000000000D+00  0.0000000000000D+00  0.0000000000000D+00
400  3.9900000000000D+00  0.0000000000000D+00  0.0000000000000D+00
401  4.0000000000000D+00  0.0000000000000D+00  0.0000000000000D+00
402  4.0100000000000D+00  0.0000000000000D+00  0.0000000000000D+00
403  4.0200000000000D+00  0.0000000000000D+00  0.0000000000000D+00
404  4.0300000000000D+00  0.0000000000000D+00  0.0000000000000D+00
405  4.0400000000000D+00  0.0000000000000D+00  0.0000000000000D+00
406  4.0500000000000D+00  0.0000000000000D+00  0.0000000000000D+00
407  4.0600000000000D+00  0.0000000000000D+00  0.0000000000000D+00
408  4.0700000000000D+00  0.0000000000000D+00  0.0000000000000D+00
409  4.0800000000000D+00  0.0000000000000D+00  0.0000000000000D+00
410  4.0900000000000D+00  0.0000000000000D+00  0.0000000000000D+00
411  4.1000000000000D+00  0.0000000000000D+00  0.0000000000000D+00
412  4.1100000000000D+00  0.0000000000000D+00  0.0000000000000D+00
413  4.1200000000000D+00  0.0000000000000D+00  0.0000000000000D+00
414  4.1300000000000D+00  0.0000000000000D+00  0.0000000000000D+00
415  4.1400000000000D+00  0.0000000000000D+00  0.0000000000000D+00
416  4.1500000000000D+00  0.0000000000000D+00  0.0000000000000D+00
417  4.1600000000000D+00  0.0000000000000D+00  0.0000000000000D+00
418  4.1700000000000D+00  0.0000000000000D+00  0.0000000000000D+00
419  4.1800000000000D+00  0.0000000000000D+00  0.0000000000000D+00
420  4.1900000000000D+00  0.0000000000000D+00  0.0000000000000D+00
421  4.2000000000000D+00  0.0000000000000D+00  0.0000000000000D+00
422  4.2100000000000D+00  0.0000000000000D+00  0.0000000000000D+00
423  4.2200000000000D+00  0.0000000000000D+00  0.0000000000000D+00
424  4.2300000000000D+00  0.0000000000000D+00  0.0000000000000D+00
425  4.2400000000000D+00  0.0000000000000D+00  0.0000000000000D+00
426  4.2500000000000D+00  0.0000000000000D+00  0.0000000000000D+00
427  4.2600000000000D+00  0.0000000000000D+00  0.0000000000000D+00
428  4.2700000000000D+00  0.0000000000000D+00  0.0000000000000D+00
429  4.2800000000000D+00  0.0000000000000D+00  0.0000000000000D+00
430  4.2900000000000D+00  0.0000000000000D+00  0.0000000000000D+00
431  4.3000000000000D+00  0.0000000000000D+00  0.0000000000000D+00
432  4.3100000000000D+00  0.0000000000000D+00  0.0000000000000D+00
433  4.3200000000000D+00  0.0000000000000D+00  0.0000000000000D+00
434  4.3300000000000D+00  0.0000000000000D+00  0.0000000000000D+00
435  4.3400000000000D+00  0.0000000000000D+00  0.0000000000000D+00
436  4.3500000000000D+00  0.0000000000000D+00  0.0000000000000D+00
437  4.3600000000000D+00  0.0000000000000D+00  0.0000000000000D+00
438  4.3700000000000D+00  0.0000000000000D+00  0.0000000000000D+00
439  4.3800000000000D+00  0.0000000000000D+00  0.0000000000000D+00
440  4.3900000000000D+00  0.0000000000000D+00  0.0000000000000D+00
441  4.4000000000000D+00  0.0000000000000D+00  0.0000000000000D+00
442  4.4100000000000D+00  0.0000000000000D+00  0.0000000000000D+00
443  4.4200000000000D+00  0.0000000000000D+00  0.0000000000000D+00