 vasp.6.2.1 16May21 (build Oct 27 2021 18:14:32) complex                        
  
 executed on             LinuxIFC date 2021.11.23  17:33:47
 running on    4 total cores
 distrk:  each k-point on    4 cores,    1 groups
 distr:  one band on NCORE=   4 cores,    1 groups


--------------------------------------------------------------------------------------------------------


 INCAR:
   ALGO = Normal
   EDIFF = 1e-05
   EDIFFG = -0.02
   ENAUG = 1360.0
   ENCUT = 680.0
   IBRION = -1
   ICHARG = 11
   ISIF = 3
   ISMEAR = -5
   ISPIN = 1
   ISYM = 2
   LAECHG = True
   LASPH = True
   LCHARG = False
   LELF = True
   LMIXTAU = True
   LORBIT = 11
   LREAL = Auto
   LVTOT = True
   LWAVE = False
   NBANDS = 10
   NCORE = 4
   NEDOS = 4362
   NELM = 200
   NSW = 0
   PREC = Accurate
   SIGMA = 0.05

 POTCAR:    PAW_PBE Si 05Jan2001                  
 WARNING: For LVTOT=.TRUE., VASP.5.x writes the TOTAL local potential to the
     file LOCPOT. If you want only the Hartree contributions, use LVHAR=.TRUE.
     instead. 

 POTCAR:    PAW_PBE Si 05Jan2001                  
   VRHFIN =Si: s2p2                                                                                 
   LEXCH  = PE                                                                                      
   EATOM  =   103.0669 eV,    7.5752 Ry                                                             
                                                                                                    
   TITEL  = PAW_PBE Si 05Jan2001                                                                    
   LULTRA =        F    use ultrasoft PP ?                                                          
   IUNSCR =        1    unscreen: 0-lin 1-nonlin 2-no                                               
   RPACOR =    1.500    partial core radius                                                         
   POMASS =   28.085; ZVAL   =    4.000    mass and valenz                                          
   RCORE  =    1.900    outmost cutoff radius                                                       
   RWIGS  =    2.480; RWIGS  =    1.312    wigner-seitz radius (au A)                               
   ENMAX  =  245.345; ENMIN  =  184.009 eV                                                          
   ICORE  =        2    local potential                                                             
   LCOR   =        T    correct aug charges                                                         
   LPAW   =        T    paw PP                                                                      
   EAUG   =  322.069                                                                                
   DEXC   =    0.000                                                                                
   RMAX   =    1.950    core radius for proj-oper                                                   
   RAUG   =    1.300    factor for augmentation sphere                                              
   RDEP   =    1.993    radius for radial grids                                                     
   RDEPT  =    1.837    core radius for aug-charge                                                  
                                                                                                    
   Atomic configuration                                                                             
    6 entries                                                                                       
     n  l   j            E        occ.                                                              
     1  0  0.50     -1785.8828   2.0000                                                             
     2  0  0.50      -139.4969   2.0000                                                             
     2  1  1.50       -95.5546   6.0000                                                             
     3  0  0.50       -10.8127   2.0000                                                             
     3  1  0.50        -4.0811   2.0000                                                             
     3  2  1.50        -4.0817   0.0000                                                             
   Description                                                                                      
     l       E           TYP  RCUT    TYP  RCUT                                                     
     0    -10.8127223     23  1.900                                                                 
     0     -7.6451159     23  1.900                                                                 
     1     -4.0811372     23  1.900                                                                 
     1      2.4879257     23  1.900                                                                 
     2     -4.0817478      7  1.900                                                                 
  local pseudopotential read in
  partial core-charges read in
  partial kinetic energy density read in
  atomic valenz-charges read in
  non local Contribution for L=           0  read in
    real space projection operators read in
  non local Contribution for L=           0  read in
    real space projection operators read in
  non local Contribution for L=           1  read in
    real space projection operators read in
  non local Contribution for L=           1  read in
    real space projection operators read in
    PAW grid and wavefunctions read in
 
   number of l-projection  operators is LMAX  =           4
   number of lm-projection operators is LMMAX =           8
 
 -----------------------------------------------------------------------------
|                                                                             |
|               ----> ADVICE to this user running VASP <----                  |
|                                                                             |
|     You have a (more or less) 'small supercell' and for smaller cells       |
|     it is recommended to use the reciprocal-space projection scheme!        |
|     The real-space optimization is not efficient for small cells and it     |
|     is also less accurate ...                                               |
|     Therefore, set LREAL=.FALSE. in the INCAR file.                         |
|                                                                             |
 -----------------------------------------------------------------------------

 Optimization of the real space projectors (new method)

 maximal supplied QI-value         = 19.84
 optimisation between [QCUT,QGAM] = [ 13.29, 26.59] = [ 49.49,197.96] Ry 
 Optimized for a Real-space Cutoff    1.12 Angstroem

   l    n(q)    QCUT    max X(q) W(low)/X(q) W(high)/X(q)  e(spline) 
   0      9    13.294   159.560    0.23E-03    0.88E-04    0.53E-07
   0      9    13.294   115.863    0.22E-03    0.87E-04    0.52E-07
   1      8    13.294    88.339    0.81E-04    0.17E-03    0.12E-06
   1      8    13.294    48.592    0.79E-04    0.17E-03    0.12E-06
  PAW_PBE Si 05Jan2001                  :
 energy of atom  1       EATOM= -103.0669
 kinetic energy error for atom=    0.0003 (will be added to EATOM!!)
 
 
 POSCAR: Si2
  positions in direct lattice
  No initial velocities read in
 exchange correlation table for  LEXCH =        8
   RHO(1)=    0.500       N(1)  =     2000
   RHO(2)=  100.500       N(2)  =     4000
 


--------------------------------------------------------------------------------------------------------


 ion  position               nearest neighbor table
   1  0.251  0.238  0.252-   2 2.31   2 2.36   2 2.36   2 2.45
   2  0.999  0.012  0.998-   1 2.31   1 2.36   1 2.36   1 2.45
 
  LATTYP: Found a face centered cubic cell.
 ALAT       =     5.4687280757
  
  Lattice vectors:
  
 A1 = (   3.3488980000,   0.0000000000,   1.9334870000)
 A2 = (   1.1162990000,   3.1573720000,   1.9334870000)
 A3 = (   0.0000000000,   0.0000000000,   3.8669750000)


Analysis of symmetry for initial positions (statically):
=====================================================================
 Subroutine PRICEL returns:
 Original cell was already a primitive cell.
 

 Routine SETGRP: Setting up the symmetry group for a 
 face centered cubic supercell.


 Subroutine GETGRP returns: Found  2 space group operations
 (whereof  1 operations were pure point group operations)
 out of a pool of 48 trial point group operations.


The static configuration has the point symmetry C_1 .
 The point group associated with its full space group is S_2 .


Analysis of symmetry for dynamics (positions and initial velocities):
=====================================================================
 Subroutine PRICEL returns:
 Original cell was already a primitive cell.
 

 Routine SETGRP: Setting up the symmetry group for a 
 face centered cubic supercell.


 Subroutine GETGRP returns: Found  2 space group operations
 (whereof  1 operations were pure point group operations)
 out of a pool of 48 trial point group operations.


The dynamic configuration has the point symmetry C_1 .
 The point group associated with its full space group is S_2 .


 Subroutine INISYM returns: Found  2 space group operations
 (whereof  1 operations are pure point group operations),
 and found     1 'primitive' translations


----------------------------------------------------------------------------------------

                                     Primitive cell                                     

  volume of cell :      40.8883

  direct lattice vectors                    reciprocal lattice vectors
     3.348898000  0.000000000  1.933487000     0.298605691 -0.105573000  0.000000000
     1.116299000  3.157372000  1.933487000     0.000000000  0.316719094  0.000000000
     0.000000000  0.000000000  3.866975000    -0.149302807 -0.105573020  0.258600069

  length of vectors
     3.866974243  3.866974707  3.866975000     0.316719145  0.316719094  0.316719096

  position of ions in fractional coordinates (direct lattice)
     0.250848000  0.237805000  0.252132000
     0.999152000  0.012195000  0.997868000

  ion indices of the primitive-cell ions
   primitive index   ion index
                 1           1
                 2           2

----------------------------------------------------------------------------------------

 
 
 KPOINTS: pymatgen with grid density = 607 / numbe

Automatic generation of k-mesh.
 Grid dimensions read from file:
 generate k-points for:    6    6    6

 Generating k-lattice:

  Cartesian coordinates                     Fractional coordinates (reciprocal lattice)
     0.049767615 -0.017595500  0.000000000     0.166666667 -0.000000000  0.000000000
     0.000000000  0.052786516  0.000000000     0.000000000  0.166666667  0.000000000
    -0.024883801 -0.017595503  0.043100011     0.000000000  0.000000000  0.166666667

  Length of vectors
     0.052786524  0.052786516  0.052786516

  Shift w.r.t. Gamma in fractional coordinates (k-lattice)
     0.000000000  0.000000000  0.000000000

 TETIRR: Found    648 inequivalent tetrahedra from     1296
 
 Subroutine IBZKPT returns following result:
 ===========================================
 
 Found    112 irreducible k-points:
 
 Following reciprocal coordinates:
            Coordinates               Weight
  0.000000  0.000000  0.000000      1.000000
  0.166667  0.000000  0.000000      2.000000
 -0.000000  0.166667  0.000000      2.000000
  0.000000  0.000000  0.166667      2.000000
  0.166667  0.166667  0.166667      2.000000
  0.333333  0.000000  0.000000      2.000000
  0.000000  0.333333  0.000000      2.000000
  0.000000  0.000000  0.333333      2.000000
  0.333333  0.333333  0.333333      2.000000
  0.500000  0.000000  0.000000      1.000000
  0.000000  0.500000  0.000000      1.000000
 -0.000000  0.000000  0.500000      1.000000
  0.500000  0.500000  0.500000      1.000000
  0.166667  0.166667  0.000000      2.000000
  0.000000  0.166667  0.166667      2.000000
  0.166667  0.000000  0.166667      2.000000
  0.333333  0.166667  0.000000      2.000000
  0.000000  0.333333  0.166667      2.000000
  0.166667  0.000000  0.333333      2.000000
  0.166667  0.166667 -0.166667      2.000000
  0.333333  0.166667  0.333333      2.000000
  0.166667  0.333333  0.000000      2.000000
  0.166667 -0.166667 -0.166667      2.000000
  0.333333  0.333333  0.166667      2.000000
  0.000000  0.166667  0.333333      2.000000
 -0.166667  0.166667 -0.166667      2.000000
  0.166667  0.333333  0.333333      2.000000
  0.333333  0.000000  0.166667      2.000000
  0.500000  0.166667  0.000000      2.000000
  0.000000  0.500000  0.166667      2.000000
  0.166667  0.000000  0.500000      2.000000
  0.166667  0.166667 -0.333333      2.000000
  0.500000  0.333333  0.500000      2.000000
  0.166667  0.500000  0.000000      2.000000
  0.333333 -0.166667 -0.166667      2.000000
  0.500000  0.500000  0.333333      2.000000
 -0.000000  0.166667  0.500000      2.000000
 -0.166667  0.333333 -0.166667      2.000000
  0.333333  0.500000  0.500000      2.000000
  0.500000  0.000000  0.166667      2.000000
 -0.333333  0.166667  0.000000      2.000000
  0.000000 -0.333333  0.166667      2.000000
  0.166667 -0.000000 -0.333333      2.000000
  0.166667  0.166667  0.500000      2.000000
 -0.333333  0.500000 -0.333333      2.000000
  0.166667 -0.333333  0.000000      2.000000
  0.500000 -0.166667 -0.166667      2.000000
 -0.333333 -0.333333  0.500000      2.000000
 -0.000000  0.166667 -0.333333      2.000000
 -0.166667  0.500000 -0.166667      2.000000
  0.500000 -0.333333 -0.333333      2.000000
 -0.333333 -0.000000  0.166667      2.000000
 -0.166667  0.166667  0.000000      2.000000
  0.000000 -0.166667  0.166667      2.000000
  0.166667  0.000000 -0.166667      2.000000
  0.166667  0.166667  0.333333      2.000000
 -0.166667 -0.333333 -0.166667      2.000000
 -0.333333 -0.166667 -0.166667      2.000000
  0.333333  0.333333  0.000000      2.000000
  0.000000  0.333333  0.333333      2.000000
  0.333333  0.000000  0.333333      2.000000
  0.500000  0.333333  0.000000      2.000000
  0.000000  0.500000  0.333333      2.000000
  0.333333  0.000000  0.500000      2.000000
  0.333333  0.333333 -0.166667      2.000000
  0.500000  0.166667  0.500000      2.000000
  0.333333  0.500000  0.000000      2.000000
  0.166667 -0.333333 -0.333333      2.000000
  0.500000  0.500000  0.166667      2.000000
 -0.000000  0.333333  0.500000      2.000000
 -0.333333  0.166667 -0.333333      2.000000
  0.166667  0.500000  0.500000      2.000000
  0.500000  0.000000  0.333333      2.000000
 -0.333333  0.333333  0.000000      2.000000
  0.000000 -0.333333  0.333333      2.000000
  0.333333 -0.000000 -0.333333      2.000000
  0.333333  0.333333 -0.333333      2.000000
 -0.333333  0.333333 -0.333333      2.000000
  0.333333 -0.333333 -0.333333      2.000000
  0.500000  0.500000  0.000000      1.000000
 -0.000000  0.500000  0.500000      1.000000
  0.500000  0.000000  0.500000      1.000000
  0.500000  0.333333  0.166667      2.000000
  0.166667  0.500000  0.333333      2.000000
  0.333333  0.166667  0.500000      2.000000
  0.333333  0.166667 -0.166667      2.000000
  0.500000  0.166667  0.333333      2.000000
  0.166667 -0.333333 -0.166667      2.000000
  0.166667  0.333333 -0.166667      2.000000
  0.166667 -0.166667 -0.333333      2.000000
  0.333333  0.500000  0.166667      2.000000
 -0.166667  0.166667 -0.333333      2.000000
 -0.333333  0.166667 -0.166667      2.000000
  0.166667  0.333333  0.500000      2.000000
 -0.333333  0.333333  0.166667      2.000000
  0.166667 -0.333333  0.333333      2.000000
  0.333333  0.166667 -0.333333      2.000000
 -0.333333  0.333333  0.500000      2.000000
  0.166667  0.500000 -0.166667      2.000000
  0.333333 -0.166667 -0.333333      2.000000
  0.500000 -0.333333  0.333333      2.000000
 -0.166667  0.166667  0.500000      2.000000
 -0.333333  0.333333 -0.166667      2.000000
  0.333333  0.500000 -0.333333      2.000000
  0.500000 -0.166667  0.166667      2.000000
 -0.166667 -0.333333  0.333333      2.000000
 -0.333333  0.500000  0.166667      2.000000
  0.166667 -0.333333  0.500000      2.000000
  0.500000  0.166667 -0.333333      2.000000
  0.500000  0.333333 -0.166667      2.000000
 -0.333333  0.166667  0.500000      2.000000
  0.166667  0.500000 -0.333333      2.000000
 
 Following cartesian coordinates:
            Coordinates               Weight
  0.000000  0.000000  0.000000      1.000000
  0.049768 -0.017595  0.000000      2.000000
 -0.000000  0.052787  0.000000      2.000000
 -0.024884 -0.017596  0.043100      2.000000
  0.024884  0.017596  0.043100      2.000000
  0.099535 -0.035191  0.000000      2.000000
 -0.000000  0.105573  0.000000      2.000000
 -0.049768 -0.035191  0.086200      2.000000
  0.049768  0.035191  0.086200      2.000000
  0.149303 -0.052786  0.000000      1.000000
 -0.000000  0.158360  0.000000      1.000000
 -0.074651 -0.052787  0.129300      1.000000
  0.074651  0.052787  0.129300      1.000000
  0.049768  0.035191  0.000000      2.000000
 -0.024884  0.035191  0.043100      2.000000
  0.024884 -0.035191  0.043100      2.000000
  0.099535  0.017596  0.000000      2.000000
 -0.024884  0.087978  0.043100      2.000000
  0.000000 -0.052787  0.086200      2.000000
  0.074651  0.052787 -0.043100      2.000000
  0.049768 -0.017595  0.086200      2.000000
  0.049768  0.087978  0.000000      2.000000
  0.074651 -0.052787 -0.043100      2.000000
  0.074651  0.052787  0.043100      2.000000
 -0.049768  0.017596  0.086200      2.000000
 -0.024884  0.087978 -0.043100      2.000000
  0.000000  0.052787  0.086200      2.000000
  0.074651 -0.052787  0.043100      2.000000
  0.149303  0.000000  0.000000      2.000000
 -0.024884  0.140764  0.043100      2.000000
 -0.024884 -0.070382  0.129300      2.000000
  0.099535  0.070382 -0.086200      2.000000
  0.074651  0.000000  0.129300      2.000000
  0.049768  0.140764  0.000000      2.000000
  0.124419 -0.070382 -0.043100      2.000000
  0.099535  0.070382  0.086200      2.000000
 -0.074651  0.000000  0.129300      2.000000
 -0.024884  0.140764 -0.043100      2.000000
  0.024884  0.070382  0.129300      2.000000
  0.124419 -0.070382  0.043100      2.000000
 -0.099535  0.087978  0.000000      2.000000
 -0.024884 -0.123169  0.043100      2.000000
  0.099535  0.017596 -0.086200      2.000000
 -0.024884 -0.017595  0.129300      2.000000
 -0.049768  0.228742 -0.086200      2.000000
  0.049768 -0.123169  0.000000      2.000000
  0.174187 -0.087978 -0.043100      2.000000
 -0.174187 -0.123169  0.129300      2.000000
  0.049768  0.087978 -0.086200      2.000000
 -0.024884  0.193551 -0.043100      2.000000
  0.199070 -0.123169 -0.086200      2.000000
 -0.124419  0.017595  0.043100      2.000000
 -0.049768  0.070382  0.000000      2.000000
 -0.024884 -0.070382  0.043100      2.000000
  0.074651  0.000000 -0.043100      2.000000
  0.000000  0.000000  0.086200      2.000000
 -0.024884 -0.070382 -0.043100      2.000000
 -0.074651 -0.000000 -0.043100      2.000000
  0.099535  0.070382  0.000000      2.000000
 -0.049768  0.070382  0.086200      2.000000
  0.049768 -0.070382  0.086200      2.000000
  0.149303  0.052787  0.000000      2.000000
 -0.049768  0.123169  0.086200      2.000000
  0.024884 -0.087978  0.129300      2.000000
  0.124419  0.087978 -0.043100      2.000000
  0.074651 -0.052786  0.129300      2.000000
  0.099535  0.123169  0.000000      2.000000
  0.099535 -0.087978 -0.086200      2.000000
  0.124419  0.087978  0.043100      2.000000
 -0.074651  0.052787  0.129300      2.000000
 -0.049768  0.123169 -0.086200      2.000000
 -0.024884  0.087978  0.129300      2.000000
  0.099535 -0.087978  0.086200      2.000000
 -0.099535  0.140764  0.000000      2.000000
 -0.049768 -0.140764  0.086200      2.000000
  0.149303  0.000000 -0.086200      2.000000
  0.149303  0.105573 -0.086200      2.000000
 -0.049768  0.175955 -0.086200      2.000000
  0.149303 -0.105573 -0.086200      2.000000
  0.149303  0.105573  0.000000      1.000000
 -0.074651  0.105573  0.129300      1.000000
  0.074651 -0.105573  0.129300      1.000000
  0.124419  0.035191  0.043100      2.000000
  0.000000  0.105573  0.086200      2.000000
  0.024884 -0.035191  0.129300      2.000000
  0.124419  0.035191 -0.043100      2.000000
  0.099535 -0.035191  0.086200      2.000000
  0.074651 -0.105573 -0.043100      2.000000
  0.074651  0.105573 -0.043100      2.000000
  0.099535 -0.035191 -0.086200      2.000000
  0.074651  0.105573  0.043100      2.000000
 -0.000000  0.105573 -0.086200      2.000000
 -0.074651  0.105573 -0.043100      2.000000
 -0.024884  0.035191  0.129300      2.000000
 -0.124419  0.123169  0.043100      2.000000
  0.000000 -0.158360  0.086200      2.000000
  0.149303  0.052787 -0.086200      2.000000
 -0.174187  0.087978  0.129300      2.000000
  0.074651  0.158360 -0.043100      2.000000
  0.149303 -0.052787 -0.086200      2.000000
  0.099535 -0.193551  0.086200      2.000000
 -0.124419  0.017596  0.129300      2.000000
 -0.074651  0.158360 -0.043100      2.000000
  0.149303  0.158360 -0.086200      2.000000
  0.124419 -0.123169  0.043100      2.000000
 -0.099535 -0.123169  0.086200      2.000000
 -0.124419  0.175955  0.043100      2.000000
 -0.024884 -0.175955  0.129300      2.000000
  0.199070  0.035191 -0.086200      2.000000
  0.174187  0.070382 -0.043100      2.000000
 -0.174187  0.035191  0.129300      2.000000
  0.099535  0.175955 -0.086200      2.000000
 


--------------------------------------------------------------------------------------------------------




 Dimension of arrays:
   k-points           NKPTS =    112   k-points in BZ     NKDIM =    112   number of bands    NBANDS=     10
   number of dos      NEDOS =   4362   number of ions     NIONS =      2
   non local maximal  LDIM  =      4   non local SUM 2l+1 LMDIM =      8
   total plane-waves  NPLWV =  46656
   max r-space proj   IRMAX =   6824   max aug-charges    IRDMAX=  38346
   dimension x,y,z NGX =    36 NGY =   36 NGZ =   36
   dimension x,y,z NGXF=    72 NGYF=   72 NGZF=   72
   support grid    NGXF=    72 NGYF=   72 NGZF=   72
   ions per type =               2
   NGX,Y,Z   is equivalent  to a cutoff of  15.48, 15.48, 15.48 a.u.
   NGXF,Y,Z  is equivalent  to a cutoff of  30.95, 30.95, 30.95 a.u.

 SYSTEM =  unknown system                          
 POSCAR =  Si2                                     

 Startparameter for this run:
   NWRITE =      2    write-flag & timer
   PREC   = accura    normal or accurate (medium, high low for compatibility)
   ISTART =      0    job   : 0-new  1-cont  2-samecut
   ICHARG =     11    charge: 1-file 2-atom 10-const
   ISPIN  =      1    spin polarized calculation?
   LNONCOLLINEAR =      F non collinear calculations
   LSORBIT =      F    spin-orbit coupling
   INIWAV =      1    electr: 0-lowe 1-rand  2-diag
   LASPH  =      T    aspherical Exc in radial PAW
 Electronic Relaxation 1
   ENCUT  =  680.0 eV  49.98 Ry    7.07 a.u.   8.22  8.22  8.22*2*pi/ulx,y,z
   ENINI  =  680.0     initial cutoff
   ENAUG  = 1360.0 eV  augmentation charge cutoff
   NELM   =    200;   NELMIN=  2; NELMDL= -5     # of ELM steps 
   EDIFF  = 0.1E-04   stopping-criterion for ELM
   LREAL  =      T    real-space projection
   NLSPLINE    = F    spline interpolate recip. space projectors
   LCOMPAT=      F    compatible to vasp.4.4
   GGA_COMPAT  = T    GGA compatible to vasp.4.4-vasp.4.6
   LMAXPAW     = -100 max onsite density
   LMAXMIX     =    2 max onsite mixed and CHGCAR
   VOSKOWN=      0    Vosko Wilk Nusair interpolation
   ROPT   =   -0.00025
 Ionic relaxation
   EDIFFG = -.2E-01   stopping-criterion for IOM
   NSW    =      0    number of steps for IOM
   NBLOCK =      1;   KBLOCK =      1    inner block; outer block 
   IBRION =     -1    ionic relax: 0-MD 1-quasi-New 2-CG
   NFREE  =      0    steps in history (QN), initial steepest desc. (CG)
   ISIF   =      3    stress and relaxation
   IWAVPR =     10    prediction:  0-non 1-charg 2-wave 3-comb
   ISYM   =      2    0-nonsym 1-usesym 2-fastsym
   LCORR  =      T    Harris-Foulkes like correction to forces

   POTIM  = 0.5000    time-step for ionic-motion
   TEIN   =    0.0    initial temperature
   TEBEG  =    0.0;   TEEND  =   0.0 temperature during run
   SMASS  =  -3.00    Nose mass-parameter (am)
   estimated Nose-frequenzy (Omega)   =  0.10E-29 period in steps = 0.13E+47 mass=  -0.342E-27a.u.
   SCALEE = 1.0000    scale energy and forces
   NPACO  =    256;   APACO  = 16.0  distance and # of slots for P.C.
   PSTRESS=    0.0 pullay stress

  Mass of Ions in am
   POMASS =  28.09
  Ionic Valenz
   ZVAL   =   4.00
  Atomic Wigner-Seitz radii
   RWIGS  =  -1.00
  virtual crystal weights 
   VCA    =   1.00
   NELECT =       8.0000    total number of electrons
   NUPDOWN=      -1.0000    fix difference up-down

 DOS related values:
   EMIN   =  10.00;   EMAX   =-10.00  energy-range for DOS
   EFERMI =   0.00
   ISMEAR =    -5;   SIGMA  =   0.05  broadening in eV -4-tet -1-fermi 0-gaus

 Electronic relaxation 2 (details)
   IALGO  =     38    algorithm
   LDIAG  =      T    sub-space diagonalisation (order eigenvalues)
   LSUBROT=      F    optimize rotation matrix (better conditioning)
   TURBO    =      0    0=normal 1=particle mesh
   IRESTART =      0    0=no restart 2=restart with 2 vectors
   NREBOOT  =      0    no. of reboots
   NMIN     =      0    reboot dimension
   EREF     =   0.00    reference energy to select bands
   IMIX   =      4    mixing-type and parameters
     AMIX     =   0.40;   BMIX     =  1.00
     AMIX_MAG =   1.60;   BMIX_MAG =  1.00
     AMIN     =   0.10
     WC   =   100.;   INIMIX=   1;  MIXPRE=   1;  MAXMIX= -45

 Intra band minimization:
   WEIMIN = 0.0000     energy-eigenvalue tresh-hold
   EBREAK =  0.25E-06  absolut break condition
   DEPER  =   0.30     relativ break condition  

   TIME   =   0.40     timestep for ELM

  volume/ion in A,a.u.               =      20.44       137.96
  Fermi-wavevector in a.u.,A,eV,Ry     =   0.950397  1.795990 12.289528  0.903255
  Thomas-Fermi vector in A             =   2.078770
 
 Write flags
   LWAVE        =      F    write WAVECAR
   LDOWNSAMPLE  =      F    k-point downsampling of WAVECAR
   LCHARG       =      F    write CHGCAR
   LVTOT        =      T    write LOCPOT, total local potential
   LVHAR        =      F    write LOCPOT, Hartree potential only
   LELF         =      T    write electronic localiz. function (ELF)
   LORBIT       =     11    0 simple, 1 ext, 2 COOP (PROOUT), +10 PAW based schemes


 Dipole corrections
   LMONO  =      F    monopole corrections only (constant potential shift)
   LDIPOL =      F    correct potential (dipole corrections)
   IDIPOL =      0    1-x, 2-y, 3-z, 4-all directions 
   EPSILON=  1.0000000 bulk dielectric constant

 Exchange correlation treatment:
   GGA     =    --    GGA type
   LEXCH   =     8    internal setting for exchange type
   VOSKOWN=      0    Vosko Wilk Nusair interpolation
   LHFCALC =     F    Hartree Fock is set to
   LHFONE  =     F    Hartree Fock one center treatment
   AEXX    =    0.0000 exact exchange contribution

 Linear response parameters
   LEPSILON=     F    determine dielectric tensor
   LRPA    =     F    only Hartree local field effects (RPA)
   LNABLA  =     F    use nabla operator in PAW spheres
   LVEL    =     F    velocity operator in full k-point grid
   LINTERFAST=   F  fast interpolation
   KINTER  =     0    interpolate to denser k-point grid
   CSHIFT  =0.1000    complex shift for real part using Kramers Kronig
   OMEGAMAX=  -1.0    maximum frequency
   DEG_THRESHOLD= 0.2000000E-02 threshold for treating states as degnerate
   RTIME   =   -0.100 relaxation time in fs
  (WPLASMAI=    0.000 imaginary part of plasma frequency in eV, 0.658/RTIME)
   DFIELD  = 0.0000000 0.0000000 0.0000000 field for delta impulse in time
 
 Orbital magnetization related:
   ORBITALMAG=     F  switch on orbital magnetization
   LCHIMAG   =     F  perturbation theory with respect to B field
   DQ        =  0.001000  dq finite difference perturbation B field
   LLRAUG    =     F  two centre corrections for induced B field



--------------------------------------------------------------------------------------------------------


 Static calculation
 charge density and potential remain constant during run
 non-spin polarized calculation
 Variant of blocked Davidson
 Davidson routine will perform the subspace rotation
 perform sub-space diagonalisation
    after iterative eigenvector-optimisation
 no mixing
 using additional bands            6
 real space projection scheme for non local part
 use partial core corrections
 calculate Harris-corrections to forces 
   (improved forces if not selfconsistent)
 use gradient corrections 
 WARNING: stress and forces are not correct
  (second derivative of E(xc) not defined)
 use of overlap-Matrix (Vanderbilt PP)
 Fermi weights with tetrahedron method with Bloechl corrections


--------------------------------------------------------------------------------------------------------


  energy-cutoff  :      680.00
  volume of cell :       40.89
      direct lattice vectors                 reciprocal lattice vectors
     3.348898000  0.000000000  1.933487000     0.298605691 -0.105573000  0.000000000
     1.116299000  3.157372000  1.933487000     0.000000000  0.316719094  0.000000000
     0.000000000  0.000000000  3.866975000    -0.149302807 -0.105573020  0.258600069

  length of vectors
     3.866974243  3.866974707  3.866975000     0.316719145  0.316719094  0.316719096


 
 k-points in units of 2pi/SCALE and weight: pymatgen with grid density = 607 / numbe
   0.00000000  0.00000000  0.00000000       0.005
   0.04976762 -0.01759550  0.00000000       0.009
  -0.00000000  0.05278652  0.00000000       0.009
  -0.02488380 -0.01759550  0.04310001       0.009
   0.02488381  0.01759551  0.04310001       0.009
   0.09953523 -0.03519100  0.00000000       0.009
  -0.00000000  0.10557303  0.00000000       0.009
  -0.04976760 -0.03519101  0.08620002       0.009
   0.04976763  0.03519102  0.08620002       0.009
   0.14930285 -0.05278650  0.00000000       0.005
  -0.00000000  0.15835955  0.00000000       0.005
  -0.07465140 -0.05278651  0.12930003       0.005
   0.07465144  0.05278654  0.12930003       0.005
   0.04976762  0.03519102  0.00000000       0.009
  -0.02488380  0.03519101  0.04310001       0.009
   0.02488381 -0.03519100  0.04310001       0.009
   0.09953523  0.01759552  0.00000000       0.009
  -0.02488380  0.08797753  0.04310001       0.009
   0.00000001 -0.05278651  0.08620002       0.009
   0.07465142  0.05278652 -0.04310001       0.009
   0.04976763 -0.01759549  0.08620002       0.009
   0.04976762  0.08797753  0.00000000       0.009
   0.07465142 -0.05278651 -0.04310001       0.009
   0.07465143  0.05278653  0.04310001       0.009
  -0.04976760  0.01759551  0.08620002       0.009
  -0.02488381  0.08797752 -0.04310001       0.009
   0.00000001  0.05278652  0.08620002       0.009
   0.07465143 -0.05278650  0.04310001       0.009
   0.14930285  0.00000002  0.00000000       0.009
  -0.02488380  0.14076404  0.04310001       0.009
  -0.02488379 -0.07038201  0.12930003       0.009
   0.09953522  0.07038202 -0.08620002       0.009
   0.07465144  0.00000002  0.12930003       0.009
   0.04976762  0.14076405  0.00000000       0.009
   0.12441903 -0.07038201 -0.04310001       0.009
   0.09953524  0.07038204  0.08620002       0.009
  -0.07465140  0.00000001  0.12930003       0.009
  -0.02488381  0.14076403 -0.04310001       0.009
   0.02488383  0.07038204  0.12930003       0.009
   0.12441904 -0.07038200  0.04310001       0.009
  -0.09953523  0.08797752  0.00000000       0.009
  -0.02488380 -0.12316853  0.04310001       0.009
   0.09953522  0.01759551 -0.08620002       0.009
  -0.02488379 -0.01759549  0.12930003       0.009
  -0.04976763  0.22874155 -0.08620002       0.009
   0.04976762 -0.12316853  0.00000000       0.009
   0.17418665 -0.08797751 -0.04310001       0.009
  -0.17418663 -0.12316854  0.12930003       0.009
   0.04976760  0.08797752 -0.08620002       0.009
  -0.02488381  0.19355055 -0.04310001       0.009
   0.19907045 -0.12316852 -0.08620002       0.009
  -0.12441903  0.01759550  0.04310001       0.009
  -0.04976762  0.07038202  0.00000000       0.009
  -0.02488380 -0.07038202  0.04310001       0.009
   0.07465142  0.00000000 -0.04310001       0.009
   0.00000001  0.00000001  0.08620002       0.009
  -0.02488381 -0.07038203 -0.04310001       0.009
  -0.07465143 -0.00000001 -0.04310001       0.009
   0.09953523  0.07038203  0.00000000       0.009
  -0.04976760  0.07038202  0.08620002       0.009
   0.04976763 -0.07038201  0.08620002       0.009
   0.14930285  0.05278653  0.00000000       0.009
  -0.04976760  0.12316854  0.08620002       0.009
   0.02488383 -0.08797751  0.12930003       0.009
   0.12441903  0.08797753 -0.04310001       0.009
   0.07465144 -0.05278649  0.12930003       0.009
   0.09953523  0.12316855  0.00000000       0.009
   0.09953522 -0.08797752 -0.08620002       0.009
   0.12441904  0.08797754  0.04310001       0.009
  -0.07465140  0.05278652  0.12930003       0.009
  -0.04976763  0.12316852 -0.08620002       0.009
  -0.02488379  0.08797754  0.12930003       0.009
   0.09953524 -0.08797751  0.08620002       0.009
  -0.09953523  0.14076403  0.00000000       0.009
  -0.04976760 -0.14076404  0.08620002       0.009
   0.14930283  0.00000001 -0.08620002       0.009
   0.14930283  0.10557304 -0.08620002       0.009
  -0.04976763  0.17595504 -0.08620002       0.009
   0.14930283 -0.10557302 -0.08620002       0.009
   0.14930285  0.10557305  0.00000000       0.005
  -0.07465140  0.10557304  0.12930003       0.005
   0.07465144 -0.10557301  0.12930003       0.005
   0.12441904  0.03519103  0.04310001       0.009
   0.00000001  0.10557304  0.08620002       0.009
   0.02488383 -0.03519099  0.12930003       0.009
   0.12441903  0.03519102 -0.04310001       0.009
   0.09953524 -0.03519099  0.08620002       0.009
   0.07465142 -0.10557303 -0.04310001       0.009
   0.07465142  0.10557303 -0.04310001       0.009
   0.09953522 -0.03519101 -0.08620002       0.009
   0.07465143  0.10557304  0.04310001       0.009
  -0.00000001  0.10557302 -0.08620002       0.009
  -0.07465143  0.10557302 -0.04310001       0.009
  -0.02488379  0.03519102  0.12930003       0.009
  -0.12441903  0.12316853  0.04310001       0.009
   0.00000001 -0.15835954  0.08620002       0.009
   0.14930283  0.05278652 -0.08620002       0.009
  -0.17418663  0.08797752  0.12930003       0.009
   0.07465142  0.15835955 -0.04310001       0.009
   0.14930283 -0.05278651 -0.08620002       0.009
   0.09953524 -0.19355054  0.08620002       0.009
  -0.12441902  0.01759551  0.12930003       0.009
  -0.07465143  0.15835953 -0.04310001       0.009
   0.14930283  0.15835955 -0.08620002       0.009
   0.12441904 -0.12316852  0.04310001       0.009
  -0.09953522 -0.12316854  0.08620002       0.009
  -0.12441903  0.17595504  0.04310001       0.009
  -0.02488379 -0.17595504  0.12930003       0.009
   0.19907045  0.03519102 -0.08620002       0.009
   0.17418665  0.07038203 -0.04310001       0.009
  -0.17418663  0.03519101  0.12930003       0.009
   0.09953522  0.17595505 -0.08620002       0.009
 
 k-points in reciprocal lattice and weights: pymatgen with grid density = 607 / numbe
   0.00000000  0.00000000  0.00000000       0.005
   0.16666667  0.00000000  0.00000000       0.009
  -0.00000000  0.16666667  0.00000000       0.009
   0.00000000  0.00000000  0.16666667       0.009
   0.16666667  0.16666667  0.16666667       0.009
   0.33333333  0.00000000  0.00000000       0.009
   0.00000000  0.33333333  0.00000000       0.009
   0.00000000  0.00000000  0.33333333       0.009
   0.33333333  0.33333333  0.33333333       0.009
   0.50000000  0.00000000  0.00000000       0.005
   0.00000000  0.50000000  0.00000000       0.005
  -0.00000000  0.00000000  0.50000000       0.005
   0.50000000  0.50000000  0.50000000       0.005
   0.16666667  0.16666667  0.00000000       0.009
   0.00000000  0.16666667  0.16666667       0.009
   0.16666667  0.00000000  0.16666667       0.009
   0.33333333  0.16666667  0.00000000       0.009
   0.00000000  0.33333333  0.16666667       0.009
   0.16666667  0.00000000  0.33333333       0.009
   0.16666667  0.16666667 -0.16666667       0.009
   0.33333333  0.16666667  0.33333333       0.009
   0.16666667  0.33333333  0.00000000       0.009
   0.16666667 -0.16666667 -0.16666667       0.009
   0.33333333  0.33333333  0.16666667       0.009
   0.00000000  0.16666667  0.33333333       0.009
  -0.16666667  0.16666667 -0.16666667       0.009
   0.16666667  0.33333333  0.33333333       0.009
   0.33333333  0.00000000  0.16666667       0.009
   0.50000000  0.16666667  0.00000000       0.009
   0.00000000  0.50000000  0.16666667       0.009
   0.16666667  0.00000000  0.50000000       0.009
   0.16666667  0.16666667 -0.33333333       0.009
   0.50000000  0.33333333  0.50000000       0.009
   0.16666667  0.50000000  0.00000000       0.009
   0.33333333 -0.16666667 -0.16666667       0.009
   0.50000000  0.50000000  0.33333333       0.009
  -0.00000000  0.16666667  0.50000000       0.009
  -0.16666667  0.33333333 -0.16666667       0.009
   0.33333333  0.50000000  0.50000000       0.009
   0.50000000  0.00000000  0.16666667       0.009
  -0.33333333  0.16666667  0.00000000       0.009
   0.00000000 -0.33333333  0.16666667       0.009
   0.16666667 -0.00000000 -0.33333333       0.009
   0.16666667  0.16666667  0.50000000       0.009
  -0.33333333  0.50000000 -0.33333333       0.009
   0.16666667 -0.33333333  0.00000000       0.009
   0.50000000 -0.16666667 -0.16666667       0.009
  -0.33333333 -0.33333333  0.50000000       0.009
  -0.00000000  0.16666667 -0.33333333       0.009
  -0.16666667  0.50000000 -0.16666667       0.009
   0.50000000 -0.33333333 -0.33333333       0.009
  -0.33333333 -0.00000000  0.16666667       0.009
  -0.16666667  0.16666667  0.00000000       0.009
   0.00000000 -0.16666667  0.16666667       0.009
   0.16666667  0.00000000 -0.16666667       0.009
   0.16666667  0.16666667  0.33333333       0.009
  -0.16666667 -0.33333333 -0.16666667       0.009
  -0.33333333 -0.16666667 -0.16666667       0.009
   0.33333333  0.33333333  0.00000000       0.009
   0.00000000  0.33333333  0.33333333       0.009
   0.33333333  0.00000000  0.33333333       0.009
   0.50000000  0.33333333  0.00000000       0.009
   0.00000000  0.50000000  0.33333333       0.009
   0.33333333  0.00000000  0.50000000       0.009
   0.33333333  0.33333333 -0.16666667       0.009
   0.50000000  0.16666667  0.50000000       0.009
   0.33333333  0.50000000  0.00000000       0.009
   0.16666667 -0.33333333 -0.33333333       0.009
   0.50000000  0.50000000  0.16666667       0.009
  -0.00000000  0.33333333  0.50000000       0.009
  -0.33333333  0.16666667 -0.33333333       0.009
   0.16666667  0.50000000  0.50000000       0.009
   0.50000000  0.00000000  0.33333333       0.009
  -0.33333333  0.33333333  0.00000000       0.009
   0.00000000 -0.33333333  0.33333333       0.009
   0.33333333 -0.00000000 -0.33333333       0.009
   0.33333333  0.33333333 -0.33333333       0.009
  -0.33333333  0.33333333 -0.33333333       0.009
   0.33333333 -0.33333333 -0.33333333       0.009
   0.50000000  0.50000000  0.00000000       0.005
  -0.00000000  0.50000000  0.50000000       0.005
   0.50000000  0.00000000  0.50000000       0.005
   0.50000000  0.33333333  0.16666667       0.009
   0.16666667  0.50000000  0.33333333       0.009
   0.33333333  0.16666667  0.50000000       0.009
   0.33333333  0.16666667 -0.16666667       0.009
   0.50000000  0.16666667  0.33333333       0.009
   0.16666667 -0.33333333 -0.16666667       0.009
   0.16666667  0.33333333 -0.16666667       0.009
   0.16666667 -0.16666667 -0.33333333       0.009
   0.33333333  0.50000000  0.16666667       0.009
  -0.16666667  0.16666667 -0.33333333       0.009
  -0.33333333  0.16666667 -0.16666667       0.009
   0.16666667  0.33333333  0.50000000       0.009
  -0.33333333  0.33333333  0.16666667       0.009
   0.16666667 -0.33333333  0.33333333       0.009
   0.33333333  0.16666667 -0.33333333       0.009
  -0.33333333  0.33333333  0.50000000       0.009
   0.16666667  0.50000000 -0.16666667       0.009
   0.33333333 -0.16666667 -0.33333333       0.009
   0.50000000 -0.33333333  0.33333333       0.009
  -0.16666667  0.16666667  0.50000000       0.009
  -0.33333333  0.33333333 -0.16666667       0.009
   0.33333333  0.50000000 -0.33333333       0.009
   0.50000000 -0.16666667  0.16666667       0.009
  -0.16666667 -0.33333333  0.33333333       0.009
  -0.33333333  0.50000000  0.16666667       0.009
   0.16666667 -0.33333333  0.50000000       0.009
   0.50000000  0.16666667 -0.33333333       0.009
   0.50000000  0.33333333 -0.16666667       0.009
  -0.33333333  0.16666667  0.50000000       0.009
   0.16666667  0.50000000 -0.33333333       0.009
 
 position of ions in fractional coordinates (direct lattice) 
   0.25084800  0.23780500  0.25213200
   0.99915200  0.01219500  0.99786800
 
 position of ions in cartesian coordinates  (Angst):
   1.10552585  0.75083885  1.91979236
   3.35967140  0.03850415  5.81415689
 


--------------------------------------------------------------------------------------------------------


 k-point   1 :   0.0000 0.0000 0.0000  plane waves:    1639
 k-point   2 :   0.1667 0.0000 0.0000  plane waves:    1642
 k-point   3 :  -0.0000 0.1667 0.0000  plane waves:    1642
 k-point   4 :   0.0000 0.0000 0.1667  plane waves:    1642
 k-point   5 :   0.1667 0.1667 0.1667  plane waves:    1642
 k-point   6 :   0.3333 0.0000 0.0000  plane waves:    1634
 k-point   7 :   0.0000 0.3333 0.0000  plane waves:    1634
 k-point   8 :   0.0000 0.0000 0.3333  plane waves:    1634
 k-point   9 :   0.3333 0.3333 0.3333  plane waves:    1634
 k-point  10 :   0.5000 0.0000 0.0000  plane waves:    1676
 k-point  11 :   0.0000 0.5000 0.0000  plane waves:    1676
 k-point  12 :  -0.0000 0.0000 0.5000  plane waves:    1676
 k-point  13 :   0.5000 0.5000 0.5000  plane waves:    1676
 k-point  14 :   0.1667 0.1667 0.0000  plane waves:    1647
 k-point  15 :   0.0000 0.1667 0.1667  plane waves:    1647
 k-point  16 :   0.1667 0.0000 0.1667  plane waves:    1647
 k-point  17 :   0.3333 0.1667 0.0000  plane waves:    1651
 k-point  18 :   0.0000 0.3333 0.1667  plane waves:    1651
 k-point  19 :   0.1667 0.0000 0.3333  plane waves:    1651
 k-point  20 :   0.1667 0.1667-0.1667  plane waves:    1651
 k-point  21 :   0.3333 0.1667 0.3333  plane waves:    1651
 k-point  22 :   0.1667 0.3333 0.0000  plane waves:    1651
 k-point  23 :   0.1667-0.1667-0.1667  plane waves:    1651
 k-point  24 :   0.3333 0.3333 0.1667  plane waves:    1651
 k-point  25 :   0.0000 0.1667 0.3333  plane waves:    1651
 k-point  26 :  -0.1667 0.1667-0.1667  plane waves:    1651
 k-point  27 :   0.1667 0.3333 0.3333  plane waves:    1651
 k-point  28 :   0.3333 0.0000 0.1667  plane waves:    1651
 k-point  29 :   0.5000 0.1667 0.0000  plane waves:    1641
 k-point  30 :   0.0000 0.5000 0.1667  plane waves:    1641
 k-point  31 :   0.1667 0.0000 0.5000  plane waves:    1641
 k-point  32 :   0.1667 0.1667-0.3333  plane waves:    1641
 k-point  33 :   0.5000 0.3333 0.5000  plane waves:    1641
 k-point  34 :   0.1667 0.5000 0.0000  plane waves:    1641
 k-point  35 :   0.3333-0.1667-0.1667  plane waves:    1641
 k-point  36 :   0.5000 0.5000 0.3333  plane waves:    1641
 k-point  37 :  -0.0000 0.1667 0.5000  plane waves:    1641
 k-point  38 :  -0.1667 0.3333-0.1667  plane waves:    1641
 k-point  39 :   0.3333 0.5000 0.5000  plane waves:    1641
 k-point  40 :   0.5000 0.0000 0.1667  plane waves:    1641
 k-point  41 :  -0.3333 0.1667 0.0000  plane waves:    1644
 k-point  42 :   0.0000-0.3333 0.1667  plane waves:    1644
 k-point  43 :   0.1667-0.0000-0.3333  plane waves:    1644
 k-point  44 :   0.1667 0.1667 0.5000  plane waves:    1644
 k-point  45 :  -0.3333 0.5000-0.3333  plane waves:    1644
 k-point  46 :   0.1667-0.3333 0.0000  plane waves:    1644
 k-point  47 :   0.5000-0.1667-0.1667  plane waves:    1644
 k-point  48 :  -0.3333-0.3333 0.5000  plane waves:    1644
 k-point  49 :  -0.0000 0.1667-0.3333  plane waves:    1644
 k-point  50 :  -0.1667 0.5000-0.1667  plane waves:    1644
 k-point  51 :   0.5000-0.3333-0.3333  plane waves:    1644
 k-point  52 :  -0.3333-0.0000 0.1667  plane waves:    1644
 k-point  53 :  -0.1667 0.1667 0.0000  plane waves:    1636
 k-point  54 :   0.0000-0.1667 0.1667  plane waves:    1636
 k-point  55 :   0.1667 0.0000-0.1667  plane waves:    1636
 k-point  56 :   0.1667 0.1667 0.3333  plane waves:    1636
 k-point  57 :  -0.1667-0.3333-0.1667  plane waves:    1636
 k-point  58 :  -0.3333-0.1667-0.1667  plane waves:    1636
 k-point  59 :   0.3333 0.3333 0.0000  plane waves:    1644
 k-point  60 :   0.0000 0.3333 0.3333  plane waves:    1644
 k-point  61 :   0.3333 0.0000 0.3333  plane waves:    1644
 k-point  62 :   0.5000 0.3333 0.0000  plane waves:    1646
 k-point  63 :   0.0000 0.5000 0.3333  plane waves:    1646
 k-point  64 :   0.3333 0.0000 0.5000  plane waves:    1646
 k-point  65 :   0.3333 0.3333-0.1667  plane waves:    1646
 k-point  66 :   0.5000 0.1667 0.5000  plane waves:    1646
 k-point  67 :   0.3333 0.5000 0.0000  plane waves:    1646
 k-point  68 :   0.1667-0.3333-0.3333  plane waves:    1646
 k-point  69 :   0.5000 0.5000 0.1667  plane waves:    1646
 k-point  70 :  -0.0000 0.3333 0.5000  plane waves:    1646
 k-point  71 :  -0.3333 0.1667-0.3333  plane waves:    1646
 k-point  72 :   0.1667 0.5000 0.5000  plane waves:    1646
 k-point  73 :   0.5000 0.0000 0.3333  plane waves:    1646
 k-point  74 :  -0.3333 0.3333 0.0000  plane waves:    1652
 k-point  75 :   0.0000-0.3333 0.3333  plane waves:    1652
 k-point  76 :   0.3333-0.0000-0.3333  plane waves:    1652
 k-point  77 :   0.3333 0.3333-0.3333  plane waves:    1652
 k-point  78 :  -0.3333 0.3333-0.3333  plane waves:    1652
 k-point  79 :   0.3333-0.3333-0.3333  plane waves:    1652
 k-point  80 :   0.5000 0.5000 0.0000  plane waves:    1660
 k-point  81 :  -0.0000 0.5000 0.5000  plane waves:    1660
 k-point  82 :   0.5000 0.0000 0.5000  plane waves:    1660
 k-point  83 :   0.5000 0.3333 0.1667  plane waves:    1646
 k-point  84 :   0.1667 0.5000 0.3333  plane waves:    1646
 k-point  85 :   0.3333 0.1667 0.5000  plane waves:    1646
 k-point  86 :   0.3333 0.1667-0.1667  plane waves:    1646
 k-point  87 :   0.5000 0.1667 0.3333  plane waves:    1646
 k-point  88 :   0.1667-0.3333-0.1667  plane waves:    1646
 k-point  89 :   0.1667 0.3333-0.1667  plane waves:    1646
 k-point  90 :   0.1667-0.1667-0.3333  plane waves:    1646
 k-point  91 :   0.3333 0.5000 0.1667  plane waves:    1646
 k-point  92 :  -0.1667 0.1667-0.3333  plane waves:    1646
 k-point  93 :  -0.3333 0.1667-0.1667  plane waves:    1646
 k-point  94 :   0.1667 0.3333 0.5000  plane waves:    1646
 k-point  95 :  -0.3333 0.3333 0.1667  plane waves:    1652
 k-point  96 :   0.1667-0.3333 0.3333  plane waves:    1652
 k-point  97 :   0.3333 0.1667-0.3333  plane waves:    1652
 k-point  98 :  -0.3333 0.3333 0.5000  plane waves:    1652
 k-point  99 :   0.1667 0.5000-0.1667  plane waves:    1652
 k-point 100 :   0.3333-0.1667-0.3333  plane waves:    1652
 k-point 101 :   0.5000-0.3333 0.3333  plane waves:    1652
 k-point 102 :  -0.1667 0.1667 0.5000  plane waves:    1652
 k-point 103 :  -0.3333 0.3333-0.1667  plane waves:    1652
 k-point 104 :   0.3333 0.5000-0.3333  plane waves:    1652
 k-point 105 :   0.5000-0.1667 0.1667  plane waves:    1652
 k-point 106 :  -0.1667-0.3333 0.3333  plane waves:    1652
 k-point 107 :  -0.3333 0.5000 0.1667  plane waves:    1646
 k-point 108 :   0.1667-0.3333 0.5000  plane waves:    1646
 k-point 109 :   0.5000 0.1667-0.3333  plane waves:    1646
 k-point 110 :   0.5000 0.3333-0.1667  plane waves:    1646
 k-point 111 :  -0.3333 0.1667 0.5000  plane waves:    1646
 k-point 112 :   0.1667 0.5000-0.3333  plane waves:    1646

 maximum and minimum number of plane-waves per node :       433      383

 maximum number of plane-waves:      1676
 maximum index in each direction: 
   IXMAX=    8   IYMAX=    8   IZMAX=    8
   IXMIN=   -8   IYMIN=   -8   IZMIN=   -8


 real space projection operators:
  total allocation   :        820.38 KBytes
  max/ min on nodes  :        205.31        204.88


 parallel 3D FFT for wavefunctions:
    minimum data exchange during FFTs selected (reduces bandwidth)
 parallel 3D FFT for charge:
    minimum data exchange during FFTs selected (reduces bandwidth)


 total amount of memory used by VASP MPI-rank0    46670. kBytes
=======================================================================

   base      :      30000. kBytes
   nonlr-proj:        482. kBytes
   fftplans  :       3554. kBytes
   grid      :       5033. kBytes
   one-center:          3. kBytes
   wavefun   :       7598. kBytes
 
     INWAV:  cpu time    0.0000: real time    0.0000
 initial charge density was supplied:
 number of electron       8.0000000 magnetization 
 keeping initial charge density in first step


--------------------------------------------------------------------------------------------------------


 Maximum index for non-local projection operator         1641
 Maximum index for augmentation-charges         9281 (set IRDMAX)


--------------------------------------------------------------------------------------------------------


 First call to EWALD:  gamma=   0.514
 Maximum number of real-space cells 3x 3x 3
 Maximum number of reciprocal cells 3x 3x 3

    FEWALD:  cpu time    0.0010: real time    0.0010


--------------------------------------- Iteration      1(   1)  ---------------------------------------


    POTLOK:  cpu time    0.0357: real time    0.0371
    SETDIJ:  cpu time    0.0395: real time    0.0396
     EDDAV:  cpu time    1.8282: real time    1.8361
 BZINTS: Fermi energy:   10.270142;    8.000000 electrons
         Band energy: 0.240428E+02;  BLOECHL correction:   -0.205664
       DOS:  cpu time    0.0207: real time    0.0208
    --------------------------------------------
      LOOP:  cpu time    1.9241: real time    1.9337

 eigenvalue-minimisations  :  2240
 total energy-change (2. order) : 0.8289069E+01  (-0.3654044E+03)
 number of electron       8.0000000 magnetization 
 augmentation part        8.0000000 magnetization 

 Free energy of the ion-electron system (eV)
  ---------------------------------------------------
  alpha Z        PSCENC =         3.29317992
  Ewald energy   TEWEN  =      -226.86490019
  -Hartree energ DENC   =       -15.23906741
  -exchange      EXHF   =         0.00000000
  -V(xc)+E(xc)   XCENC  =       -18.05432012
  PAW double counting   =       833.41437137     -798.43624313
  entropy T*S    EENTRO =         0.00000000
  eigenvalues    EBANDS =        24.04282702
  atomic energy  EATOM  =       206.13322186
  Solvation  Ediel_sol  =         0.00000000
  ---------------------------------------------------
  free energy    TOTEN  =         8.28906931 eV

  energy without entropy =        8.28906931  energy(sigma->0) =        8.28906931


--------------------------------------------------------------------------------------------------------




--------------------------------------- Iteration      1(   2)  ---------------------------------------


     EDDAV:  cpu time    2.7381: real time    2.7514
 BZINTS: Fermi energy:    6.408499;    8.000000 electrons
         Band energy: 0.556147E+01;  BLOECHL correction:   -0.000528
       DOS:  cpu time    0.0168: real time    0.0168
    --------------------------------------------
      LOOP:  cpu time    2.7549: real time    2.7682

 eigenvalue-minimisations  :  3040
 total energy-change (2. order) :-0.1848136E+02  (-0.1801121E+02)
 number of electron       8.0000000 magnetization 
 augmentation part        8.0000000 magnetization 

 Free energy of the ion-electron system (eV)
  ---------------------------------------------------
  alpha Z        PSCENC =         3.29317992
  Ewald energy   TEWEN  =      -226.86490019
  -Hartree energ DENC   =       -15.23906741
  -exchange      EXHF   =         0.00000000
  -V(xc)+E(xc)   XCENC  =       -18.05432012
  PAW double counting   =       833.41437137     -798.43624313
  entropy T*S    EENTRO =         0.00000000
  eigenvalues    EBANDS =         5.56146882
  atomic energy  EATOM  =       206.13322186
  Solvation  Ediel_sol  =         0.00000000
  ---------------------------------------------------
  free energy    TOTEN  =       -10.19228889 eV

  energy without entropy =      -10.19228889  energy(sigma->0) =      -10.19228889


--------------------------------------------------------------------------------------------------------




--------------------------------------- Iteration      1(   3)  ---------------------------------------


     EDDAV:  cpu time    2.4320: real time    2.4456
 BZINTS: Fermi energy:    6.217405;    8.000000 electrons
         Band energy: 0.497646E+01;  BLOECHL correction:    0.000000
       DOS:  cpu time    0.0127: real time    0.0127
    --------------------------------------------
      LOOP:  cpu time    2.4447: real time    2.4584

 eigenvalue-minimisations  :  2766
 total energy-change (2. order) :-0.5850092E+00  (-0.5822864E+00)
 number of electron       8.0000000 magnetization 
 augmentation part        8.0000000 magnetization 

 Free energy of the ion-electron system (eV)
  ---------------------------------------------------
  alpha Z        PSCENC =         3.29317992
  Ewald energy   TEWEN  =      -226.86490019
  -Hartree energ DENC   =       -15.23906741
  -exchange      EXHF   =         0.00000000
  -V(xc)+E(xc)   XCENC  =       -18.05432012
  PAW double counting   =       833.41437137     -798.43624313
  entropy T*S    EENTRO =         0.00000000
  eigenvalues    EBANDS =         4.97645964
  atomic energy  EATOM  =       206.13322186
  Solvation  Ediel_sol  =         0.00000000
  ---------------------------------------------------
  free energy    TOTEN  =       -10.77729807 eV

  energy without entropy =      -10.77729807  energy(sigma->0) =      -10.77729807


--------------------------------------------------------------------------------------------------------




--------------------------------------- Iteration      1(   4)  ---------------------------------------


     EDDAV:  cpu time    2.4802: real time    2.4939
 BZINTS: Fermi energy:    6.216993;    8.000000 electrons
         Band energy: 0.497150E+01;  BLOECHL correction:    0.000000
       DOS:  cpu time    0.0111: real time    0.0111
    --------------------------------------------
      LOOP:  cpu time    2.4913: real time    2.5050

 eigenvalue-minimisations  :  2822
 total energy-change (2. order) :-0.4955251E-02  (-0.4954136E-02)
 number of electron       8.0000000 magnetization 
 augmentation part        8.0000000 magnetization 

 Free energy of the ion-electron system (eV)
  ---------------------------------------------------
  alpha Z        PSCENC =         3.29317992
  Ewald energy   TEWEN  =      -226.86490019
  -Hartree energ DENC   =       -15.23906741
  -exchange      EXHF   =         0.00000000
  -V(xc)+E(xc)   XCENC  =       -18.05432012
  PAW double counting   =       833.41437137     -798.43624313
  entropy T*S    EENTRO =         0.00000000
  eigenvalues    EBANDS =         4.97150439
  atomic energy  EATOM  =       206.13322186
  Solvation  Ediel_sol  =         0.00000000
  ---------------------------------------------------
  free energy    TOTEN  =       -10.78225332 eV

  energy without entropy =      -10.78225332  energy(sigma->0) =      -10.78225332


--------------------------------------------------------------------------------------------------------




--------------------------------------- Iteration      1(   5)  ---------------------------------------


     EDDAV:  cpu time    2.4740: real time    2.4870
 BZINTS: Fermi energy:    6.217055;    8.000000 electrons
         Band energy: 0.497147E+01;  BLOECHL correction:   -0.000000
       DOS:  cpu time    0.0117: real time    0.0117
    --------------------------------------------
      LOOP:  cpu time    2.4857: real time    2.4988

 eigenvalue-minimisations  :  2720
 total energy-change (2. order) :-0.3755391E-04  (-0.3755313E-04)
 number of electron       8.0000000 magnetization 
 augmentation part        8.0000000 magnetization 

 Free energy of the ion-electron system (eV)
  ---------------------------------------------------
  alpha Z        PSCENC =         3.29317992
  Ewald energy   TEWEN  =      -226.86490019
  -Hartree energ DENC   =       -15.23906741
  -exchange      EXHF   =         0.00000000
  -V(xc)+E(xc)   XCENC  =       -18.05432012
  PAW double counting   =       833.41437137     -798.43624313
  entropy T*S    EENTRO =         0.00000000
  eigenvalues    EBANDS =         4.97146684
  atomic energy  EATOM  =       206.13322186
  Solvation  Ediel_sol  =         0.00000000
  ---------------------------------------------------
  free energy    TOTEN  =       -10.78229087 eV

  energy without entropy =      -10.78229087  energy(sigma->0) =      -10.78229087


--------------------------------------------------------------------------------------------------------




--------------------------------------- Iteration      1(   6)  ---------------------------------------


     EDDAV:  cpu time    2.6827: real time    2.6955
 BZINTS: Fermi energy:    6.217131;    8.000000 electrons
         Band energy: 0.497147E+01;  BLOECHL correction:   -0.000000
       DOS:  cpu time    0.0117: real time    0.0117
    --------------------------------------------
      LOOP:  cpu time    2.6944: real time    2.7072

 eigenvalue-minimisations  :  2958
 total energy-change (2. order) :-0.4238947E-06  (-0.4231234E-06)
 number of electron       8.0000000 magnetization 
 augmentation part        8.0000000 magnetization 

 Free energy of the ion-electron system (eV)
  ---------------------------------------------------
  alpha Z        PSCENC =         3.29317992
  Ewald energy   TEWEN  =      -226.86490019
  -Hartree energ DENC   =       -15.23906741
  -exchange      EXHF   =         0.00000000
  -V(xc)+E(xc)   XCENC  =       -18.05432012
  PAW double counting   =       833.41437137     -798.43624313
  entropy T*S    EENTRO =         0.00000000
  eigenvalues    EBANDS =         4.97146641
  atomic energy  EATOM  =       206.13322186
  Solvation  Ediel_sol  =         0.00000000
  ---------------------------------------------------
  free energy    TOTEN  =       -10.78229130 eV

  energy without entropy =      -10.78229130  energy(sigma->0) =      -10.78229130


--------------------------------------------------------------------------------------------------------




 average (electrostatic) potential at core
  the test charge radii are     0.9892
  (the norm of the test charge is              1.0000)
       1 -83.4790       2 -83.4790
 
 
 
 E-fermi :   6.2171     XC(G=0):  -9.3235     alpha+bet :-11.7317

 Fermi energy:         6.2171306658

 k-point     1 :       0.0000    0.0000    0.0000
  band No.  band energies     occupation 
      1      -6.2001      2.00000
      2       5.2696      2.00000
      3       5.5545      2.00000
      4       6.0674      2.00000
      5       7.9202      0.00000
      6       8.1959      0.00000
      7       8.3840      0.00000
      8       8.7495      0.00000
      9      13.3292      0.00000
     10      13.3495      0.00000

 k-point     2 :       0.1667    0.0000    0.0000
  band No.  band energies     occupation 
      1      -5.8453      2.00000
      2       3.2254      2.00000
      3       4.9177      2.00000
      4       5.4885      2.00000
      5       7.8919      0.00000
      6       8.6064      0.00000
      7       9.0225      0.00000
      8      10.8903      0.00000
      9      12.6639      0.00000
     10      12.7340      0.00000

 k-point     3 :      -0.0000    0.1667    0.0000
  band No.  band energies     occupation 
      1      -5.8542      2.00000
      2       3.4956      2.00000
      3       4.9224      2.00000
      4       5.1621      2.00000
      5       7.7717      0.00000
      6       8.7012      0.00000
      7       8.9050      0.00000
      8      10.9900      0.00000
      9      12.7918      0.00000
     10      12.8383      0.00000

 k-point     4 :       0.0000    0.0000    0.1667
  band No.  band energies     occupation 
      1      -5.8445      2.00000
      2       3.1992      2.00000
      3       4.9393      2.00000
      4       5.4959      2.00000
      5       7.9070      0.00000
      6       8.6103      0.00000
      7       9.0188      0.00000
      8      10.8810      0.00000
      9      12.6561      0.00000
     10      12.7197      0.00000

 k-point     5 :       0.1667    0.1667    0.1667
  band No.  band energies     occupation 
      1      -5.8396      2.00000
      2       3.0622      2.00000
      3       5.0894      2.00000
      4       5.4912      2.00000
      5       8.0029      0.00000
      6       8.6787      0.00000
      7       8.9476      0.00000
      8      10.8266      0.00000
      9      12.6124      0.00000
     10      12.6407      0.00000

 k-point     6 :       0.3333    0.0000    0.0000
  band No.  band energies     occupation 
      1      -4.8491      2.00000
      2       0.3316      2.00000
      3       4.3902      2.00000
      4       4.9185      2.00000
      5       7.3065      0.00000
      6       8.8326      0.00000
      7       9.4266      0.00000
      8      13.3307      0.00000
      9      13.4689      0.00000
     10      13.7192      0.00000

 k-point     7 :       0.0000    0.3333    0.0000
  band No.  band energies     occupation 
      1      -4.8994      2.00000
      2       0.5820      2.00000
      3       4.4352      2.00000
      4       4.6613      2.00000
      5       7.2112      0.00000
      6       8.8768      0.00000
      7       9.1351      0.00000
      8      13.3357      0.00000
      9      13.7211      0.00000
     10      13.8139      0.00000

 k-point     8 :       0.0000    0.0000    0.3333
  band No.  band energies     occupation 
      1      -4.8439      2.00000
      2       0.3069      2.00000
      3       4.4050      2.00000
      4       4.9218      2.00000
      5       7.3179      0.00000
      6       8.8476      0.00000
      7       9.4366      0.00000
      8      13.3221      0.00000
      9      13.4641      0.00000
     10      13.6964      0.00000

 k-point     9 :       0.3333    0.3333    0.3333
  band No.  band energies     occupation 
      1      -4.8149      2.00000
      2       0.1727      2.00000
      3       4.5229      2.00000
      4       4.8930      2.00000
      5       7.3885      0.00000
      6       9.0009      0.00000
      7       9.4236      0.00000
      8      13.3349      0.00000
      9      13.3666      0.00000
     10      13.5701      0.00000

 k-point    10 :       0.5000    0.0000    0.0000
  band No.  band energies     occupation 
      1      -3.9176      2.00000
      2      -1.2681      2.00000
      3       4.1950      2.00000
      4       4.7212      2.00000
      5       7.0812      0.00000
      6       8.6660      0.00000
      7       9.2783      0.00000
      8      13.3108      0.00000
      9      16.0888      0.00000
     10      16.1080      0.00000

 k-point    11 :       0.0000    0.5000    0.0000
  band No.  band energies     occupation 
      1      -4.0644      2.00000
      2      -0.9343      2.00000
      3       4.2531      2.00000
      4       4.4783      2.00000
      5       6.9941      0.00000
      6       8.7160      0.00000
      7       8.9793      0.00000
      8      13.2017      0.00000
      9      16.4105      0.00000
     10      16.6514      0.00000

 k-point    12 :      -0.0000    0.0000    0.5000
  band No.  band energies     occupation 
      1      -3.9013      2.00000
      2      -1.3027      2.00000
      3       4.2081      2.00000
      4       4.7234      2.00000
      5       7.0915      0.00000
      6       8.6812      0.00000
      7       9.2888      0.00000
      8      13.3232      0.00000
      9      16.0674      0.00000
     10      16.0938      0.00000

 k-point    13 :       0.5000    0.5000    0.5000
  band No.  band energies     occupation 
      1      -3.8040      2.00000
      2      -1.4988      2.00000
      3       4.3178      2.00000
      4       4.6868      2.00000
      5       7.1557      0.00000
      6       8.8383      0.00000
      7       9.2772      0.00000
      8      13.3971      0.00000
      9      15.8940      0.00000
     10      15.9167      0.00000

 k-point    14 :       0.1667    0.1667    0.0000
  band No.  band energies     occupation 
      1      -5.7254      2.00000
      2       3.5295      2.00000
      3       4.2994      2.00000
      4       4.6463      2.00000
      5       7.3128      0.00000
      6       9.8133      0.00000
      7       9.9077      0.00000
      8       9.9708      0.00000
      9      12.1286      0.00000
     10      13.8606      0.00000

 k-point    15 :       0.0000    0.1667    0.1667
  band No.  band energies     occupation 
      1      -5.7253      2.00000
      2       3.5165      2.00000
      3       4.3239      2.00000
      4       4.6372      2.00000
      5       7.3138      0.00000
      6       9.8067      0.00000
      7       9.9117      0.00000
      8       9.9644      0.00000
      9      12.1324      0.00000
     10      13.8647      0.00000

 k-point    16 :       0.1667    0.0000    0.1667
  band No.  band energies     occupation 
      1      -5.7251      2.00000
      2       3.4766      2.00000
      3       4.4152      2.00000
      4       4.5942      2.00000
      5       7.3170      0.00000
      6       9.7926      0.00000
      7       9.9137      0.00000
      8       9.9457      0.00000
      9      12.1456      0.00000
     10      13.8779      0.00000

 k-point    17 :       0.3333    0.1667    0.0000
  band No.  band energies     occupation 
      1      -4.9179      2.00000
      2       1.1227      2.00000
      3       3.7388      2.00000
      4       3.9532      2.00000
      5       7.4637      0.00000
      6       9.5318      0.00000
      7      10.2969      0.00000
      8      10.8399      0.00000
      9      14.4409      0.00000
     10      14.5430      0.00000

 k-point    18 :       0.0000    0.3333    0.1667
  band No.  band energies     occupation 
      1      -4.9501      2.00000
      2       1.4191      2.00000
      3       3.5522      2.00000
      4       3.8216      2.00000
      5       7.4855      0.00000
      6       9.7637      0.00000
      7      10.0184      0.00000
      8      10.5655      0.00000
      9      14.6554      0.00000
     10      14.8528      0.00000

 k-point    19 :       0.1667    0.0000    0.3333
  band No.  band energies     occupation 
      1      -4.9229      2.00000
      2       1.1737      2.00000
      3       3.5791      2.00000
      4       4.0432      2.00000
      5       7.5919      0.00000
      6       9.5948      0.00000
      7      10.0732      0.00000
      8      10.7264      0.00000
      9      14.4381      0.00000
     10      14.7539      0.00000

 k-point    20 :       0.1667    0.1667   -0.1667
  band No.  band energies     occupation 
      1      -4.9290      2.00000
      2       1.2456      2.00000
      3       3.4445      2.00000
      4       4.0841      2.00000
      5       7.6725      0.00000
      6       9.6237      0.00000
      7      10.0374      0.00000
      8      10.5683      0.00000
      9      14.5575      0.00000
     10      14.7762      0.00000

 k-point    21 :       0.3333    0.1667    0.3333
  band No.  band energies     occupation 
      1      -4.9014      2.00000
      2       0.9907      2.00000
      3       3.8490      2.00000
      4       3.9701      2.00000
      5       7.5556      0.00000
      6       9.4440      0.00000
      7      10.3345      0.00000
      8      10.8804      0.00000
      9      14.3830      0.00000
     10      14.4265      0.00000

 k-point    22 :       0.1667    0.3333    0.0000
  band No.  band energies     occupation 
      1      -4.9495      2.00000
      2       1.4115      2.00000
      3       3.5834      2.00000
      4       3.7993      2.00000
      5       7.4728      0.00000
      6       9.7550      0.00000
      7      10.0411      0.00000
      8      10.5812      0.00000
      9      14.6499      0.00000
     10      14.8303      0.00000

 k-point    23 :       0.1667   -0.1667   -0.1667
  band No.  band energies     occupation 
      1      -4.9312      2.00000
      2       1.2643      2.00000
      3       3.4355      2.00000
      4       4.0768      2.00000
      5       7.6608      0.00000
      6       9.6378      0.00000
      7      10.0210      0.00000
      8      10.5663      0.00000
      9      14.5633      0.00000
     10      14.8025      0.00000

 k-point    24 :       0.3333    0.3333    0.1667
  band No.  band energies     occupation 
      1      -4.9113      2.00000
      2       1.0832      2.00000
      3       3.6241      2.00000
      4       4.0712      2.00000
      5       7.6793      0.00000
      6       9.5259      0.00000
      7      10.1452      0.00000
      8      10.7113      0.00000
      9      14.4254      0.00000
     10      14.6100      0.00000

 k-point    25 :       0.0000    0.1667    0.3333
  band No.  band energies     occupation 
      1      -4.9153      2.00000
      2       1.1013      2.00000
      3       3.7499      2.00000
      4       3.9638      2.00000
      5       7.4766      0.00000
      6       9.5179      0.00000
      7      10.2994      0.00000
      8      10.8496      0.00000
      9      14.4204      0.00000
     10      14.5395      0.00000

 k-point    26 :      -0.1667    0.1667   -0.1667
  band No.  band energies     occupation 
      1      -4.9538      2.00000
      2       1.4717      2.00000
      3       3.4090      2.00000
      4       3.9028      2.00000
      5       7.5587      0.00000
      6       9.7918      0.00000
      7       9.9497      0.00000
      8      10.4446      0.00000
      9      14.7385      0.00000
     10      14.9190      0.00000

 k-point    27 :       0.1667    0.3333    0.3333
  band No.  band energies     occupation 
      1      -4.9103      2.00000
      2       1.0727      2.00000
      3       3.6454      2.00000
      4       4.0640      2.00000
      5       7.6678      0.00000
      6       9.5195      0.00000
      7      10.1527      0.00000
      8      10.7338      0.00000
      9      14.4077      0.00000
     10      14.6079      0.00000

 k-point    28 :       0.3333    0.0000    0.1667
  band No.  band energies     occupation 
      1      -4.9260      2.00000
      2       1.2028      2.00000
      3       3.5498      2.00000
      4       4.0422      2.00000
      5       7.5916      0.00000
      6       9.6157      0.00000
      7      10.0489      0.00000
      8      10.7019      0.00000
      9      14.4613      0.00000
     10      14.7827      0.00000

 k-point    29 :       0.5000    0.1667    0.0000
  band No.  band energies     occupation 
      1      -3.7573      2.00000
      2      -0.9456      2.00000
      3       3.0926      2.00000
      4       3.7136      2.00000
      5       7.5016      0.00000
      6       9.6595      0.00000
      7      10.4597      0.00000
      8      12.1058      0.00000
      9      14.8331      0.00000
     10      15.9559      0.00000

 k-point    30 :       0.0000    0.5000    0.1667
  band No.  band energies     occupation 
      1      -3.8806      2.00000
      2      -0.6075      2.00000
      3       2.8107      2.00000
      4       3.7799      2.00000
      5       7.5239      0.00000
      6       9.5824      0.00000
      7      10.1540      0.00000
      8      12.1125      0.00000
      9      14.9329      0.00000
     10      16.1967      0.00000

 k-point    31 :       0.1667    0.0000    0.5000
  band No.  band energies     occupation 
      1      -3.7467      2.00000
      2      -0.9536      2.00000
      3       2.8445      2.00000
      4       3.9699      2.00000
      5       7.6629      0.00000
      6       9.6292      0.00000
      7      10.2967      0.00000
      8      11.9485      0.00000
      9      14.9773      0.00000
     10      16.0016      0.00000

 k-point    32 :       0.1667    0.1667   -0.3333
  band No.  band energies     occupation 
      1      -3.7507      2.00000
      2      -0.9321      2.00000
      3       2.7357      2.00000
      4       4.0557      2.00000
      5       7.7894      0.00000
      6       9.6556      0.00000
      7      10.0958      0.00000
      8      11.8822      0.00000
      9      15.0738      0.00000
     10      16.0356      0.00000

 k-point    33 :       0.5000    0.3333    0.5000
  band No.  band energies     occupation 
      1      -3.6657      2.00000
      2      -1.1552      2.00000
      3       3.1170      2.00000
      4       3.8039      2.00000
      5       7.6205      0.00000
      6       9.7187      0.00000
      7      10.4847      0.00000
      8      11.9871      0.00000
      9      14.8866      0.00000
     10      15.8298      0.00000

 k-point    34 :       0.1667    0.5000    0.0000
  band No.  band energies     occupation 
      1      -3.8805      2.00000
      2      -0.6097      2.00000
      3       2.8348      2.00000
      4       3.7569      2.00000
      5       7.5078      0.00000
      6       9.5868      0.00000
      7      10.1739      0.00000
      8      12.1239      0.00000
      9      14.9185      0.00000
     10      16.1863      0.00000

 k-point    35 :       0.3333   -0.1667   -0.1667
  band No.  band energies     occupation 
      1      -3.7633      2.00000
      2      -0.9013      2.00000
      3       2.7283      2.00000
      4       4.0463      2.00000
      5       7.7708      0.00000
      6       9.6393      0.00000
      7      10.0989      0.00000
      8      11.8999      0.00000
      9      15.0667      0.00000
     10      16.0549      0.00000

 k-point    36 :       0.5000    0.5000    0.3333
  band No.  band energies     occupation 
      1      -3.6723      2.00000
      2      -1.1232      2.00000
      3       2.8703      2.00000
      4       4.0281      2.00000
      5       7.7929      0.00000
      6       9.7228      0.00000
      7      10.2495      0.00000
      8      11.8322      0.00000
      9      15.0346      0.00000
     10      15.8955      0.00000

 k-point    37 :      -0.0000    0.1667    0.5000
  band No.  band energies     occupation 
      1      -3.7439      2.00000
      2      -0.9777      2.00000
      3       3.0930      2.00000
      4       3.7323      2.00000
      5       7.5177      0.00000
      6       9.6651      0.00000
      7      10.4676      0.00000
      8      12.0886      0.00000
      9      14.8405      0.00000
     10      15.9370      0.00000

 k-point    38 :      -0.1667    0.3333   -0.1667
  band No.  band energies     occupation 
      1      -3.8813      2.00000
      2      -0.5932      2.00000
      3       2.6971      2.00000
      4       3.8819      2.00000
      5       7.6235      0.00000
      6       9.5844      0.00000
      7      10.0051      0.00000
      8      12.0578      0.00000
      9      15.0120      0.00000
     10      16.2320      0.00000

 k-point    39 :       0.3333    0.5000    0.5000
  band No.  band energies     occupation 
      1      -3.6715      2.00000
      2      -1.1267      2.00000
      3       2.8877      2.00000
      4       4.0142      2.00000
      5       7.7743      0.00000
      6       9.7178      0.00000
      7      10.2793      0.00000
      8      11.8439      0.00000
      9      15.0199      0.00000
     10      15.8907      0.00000

 k-point    40 :       0.5000    0.0000    0.1667
  band No.  band energies     occupation 
      1      -3.7601      2.00000
      2      -0.9194      2.00000
      3       2.8198      2.00000
      4       3.9743      2.00000
      5       7.6628      0.00000
      6       9.6179      0.00000
      7      10.2700      0.00000
      8      11.9546      0.00000
      9      14.9851      0.00000
     10      16.0284      0.00000

 k-point    41 :      -0.3333    0.1667    0.0000
  band No.  band energies     occupation 
      1      -4.1608      2.00000
      2      -0.2772      2.00000
      3       2.7645      2.00000
      4       4.1518      2.00000
      5       7.8982      0.00000
      6       9.6730      0.00000
      7      10.1103      0.00000
      8      12.7284      0.00000
      9      12.8351      0.00000
     10      14.9766      0.00000

 k-point    42 :       0.0000   -0.3333    0.1667
  band No.  band energies     occupation 
      1      -4.2157      2.00000
      2      -0.0493      2.00000
      3       2.5507      2.00000
      4       4.2179      2.00000
      5       7.9087      0.00000
      6       9.5666      0.00000
      7       9.8317      0.00000
      8      12.8488      0.00000
      9      13.0684      0.00000
     10      15.0774      0.00000

 k-point    43 :       0.1667   -0.0000   -0.3333
  band No.  band energies     occupation 
      1      -4.1250      2.00000
      2      -0.3699      2.00000
      3       2.5976      2.00000
      4       4.4368      2.00000
      5       8.0364      0.00000
      6       9.5829      0.00000
      7       9.9748      0.00000
      8      12.7013      0.00000
      9      13.0205      0.00000
     10      14.9246      0.00000

 k-point    44 :       0.1667    0.1667    0.5000
  band No.  band energies     occupation 
      1      -4.1064      2.00000
      2      -0.4187      2.00000
      3       2.5384      2.00000
      4       4.5517      2.00000
      5       8.1611      0.00000
      6       9.5577      0.00000
      7       9.8123      0.00000
      8      12.7964      0.00000
      9      13.0376      0.00000
     10      14.8856      0.00000

 k-point    45 :      -0.3333    0.5000   -0.3333
  band No.  band energies     occupation 
      1      -4.1028      2.00000
      2      -0.4683      2.00000
      3       2.7937      2.00000
      4       4.2678      2.00000
      5       8.0182      0.00000
      6       9.7593      0.00000
      7      10.0847      0.00000
      8      12.6822      0.00000
      9      12.7351      0.00000
     10      14.9203      0.00000

 k-point    46 :       0.1667   -0.3333    0.0000
  band No.  band energies     occupation 
      1      -4.2182      2.00000
      2      -0.0426      2.00000
      3       2.5668      2.00000
      4       4.1921      2.00000
      5       7.8941      0.00000
      6       9.5737      0.00000
      7       9.8502      0.00000
      8      12.8489      0.00000
      9      13.0524      0.00000
     10      15.0794      0.00000

 k-point    47 :       0.5000   -0.1667   -0.1667
  band No.  band energies     occupation 
      1      -4.1155      2.00000
      2      -0.3886      2.00000
      3       2.5296      2.00000
      4       4.5381      2.00000
      5       8.1420      0.00000
      6       9.5457      0.00000
      7       9.8162      0.00000
      8      12.7976      0.00000
      9      13.0551      0.00000
     10      14.8996      0.00000

 k-point    48 :      -0.3333   -0.3333    0.5000
  band No.  band energies     occupation 
      1      -4.0709      2.00000
      2      -0.5418      2.00000
      3       2.6360      2.00000
      4       4.5247      2.00000
      5       8.1706      0.00000
      6       9.6762      0.00000
      7       9.8967      0.00000
      8      12.7006      0.00000
      9      12.9179      0.00000
     10      14.8565      0.00000

 k-point    49 :      -0.0000    0.1667   -0.3333
[...]
  band No.  band energies     occupation 
      1      -3.9702      2.00000
      2       0.0462      2.00000
      3       2.1400      2.00000
      4       3.3399      2.00000
      5       8.4485      0.00000
      6       9.3353      0.00000
      7       9.7809      0.00000
      8      12.5914      0.00000
      9      14.4754      0.00000
     10      15.5352      0.00000

 k-point    85 :       0.3333    0.1667    0.5000
  band No.  band energies     occupation 
      1      -3.9141      2.00000
      2      -0.1699      2.00000
      3       2.1383      2.00000
      4       3.5460      2.00000
      5       8.3860      0.00000
      6       9.3376      0.00000
      7       9.9598      0.00000
      8      12.5763      0.00000
      9      14.4973      0.00000
     10      15.3142      0.00000

 k-point    86 :       0.3333    0.1667   -0.1667
  band No.  band energies     occupation 
      1      -3.9492      2.00000
      2      -0.0275      2.00000
      3       2.0978      2.00000
      4       3.4552      2.00000
      5       8.3915      0.00000
      6       9.3604      0.00000
      7       9.8531      0.00000
      8      12.5988      0.00000
      9      14.5110      0.00000
     10      15.4140      0.00000

 k-point    87 :       0.5000    0.1667    0.3333
  band No.  band energies     occupation 
      1      -3.9192      2.00000
      2      -0.1510      2.00000
      3       2.1352      2.00000
      4       3.5322      2.00000
      5       8.3891      0.00000
      6       9.3371      0.00000
      7       9.9454      0.00000
      8      12.5740      0.00000
      9      14.5068      0.00000
     10      15.3272      0.00000

 k-point    88 :       0.1667   -0.3333   -0.1667
  band No.  band energies     occupation 
      1      -4.0018      2.00000
      2       0.1903      2.00000
      3       2.1160      2.00000
      4       3.2281      2.00000
      5       8.4889      0.00000
      6       9.2949      0.00000
      7       9.6991      0.00000
      8      12.6304      0.00000
      9      14.5172      0.00000
     10      15.5800      0.00000

 k-point    89 :       0.1667    0.3333   -0.1667
  band No.  band energies     occupation 
      1      -3.9975      2.00000
      2       0.1715      2.00000
      3       2.1144      2.00000
      4       3.2472      2.00000
      5       8.4765      0.00000
      6       9.3118      0.00000
      7       9.7076      0.00000
      8      12.6281      0.00000
      9      14.5031      0.00000
     10      15.5782      0.00000

 k-point    90 :       0.1667   -0.1667   -0.3333
  band No.  band energies     occupation 
      1      -3.9486      2.00000
      2      -0.0305      2.00000
      3       2.1005      2.00000
      4       3.4561      2.00000
      5       8.3944      0.00000
      6       9.3535      0.00000
      7       9.8561      0.00000
      8      12.5937      0.00000
      9      14.5241      0.00000
     10      15.4056      0.00000

 k-point    91 :       0.3333    0.5000    0.1667
  band No.  band energies     occupation 
      1      -3.9707      2.00000
      2       0.0495      2.00000
      3       2.1370      2.00000
      4       3.3392      2.00000
      5       8.4452      0.00000
      6       9.3427      0.00000
      7       9.7779      0.00000
      8      12.5963      0.00000
      9      14.4640      0.00000
     10      15.5421      0.00000

 k-point    92 :      -0.1667    0.1667   -0.3333
  band No.  band energies     occupation 
      1      -3.9953      2.00000
      2       0.1562      2.00000
      3       2.1295      2.00000
      4       3.2494      2.00000
      5       8.4932      0.00000
      6       9.2795      0.00000
      7       9.7176      0.00000
      8      12.6088      0.00000
      9      14.5527      0.00000
     10      15.5474      0.00000

 k-point    93 :      -0.3333    0.1667   -0.1667
  band No.  band energies     occupation 
      1      -4.0001      2.00000
      2       0.1784      2.00000
      3       2.1280      2.00000
      4       3.2296      2.00000
      5       8.5023      0.00000
      6       9.2701      0.00000
      7       9.7061      0.00000
      8      12.6156      0.00000
      9      14.5553      0.00000
     10      15.5563      0.00000

 k-point    94 :       0.1667    0.3333    0.5000
  band No.  band energies     occupation 
      1      -3.9160      2.00000
      2      -0.1603      2.00000
      3       2.1306      2.00000
      4       3.5425      2.00000
      5       8.3774      0.00000
      6       9.3585      0.00000
      7       9.9502      0.00000
      8      12.5955      0.00000
      9      14.4499      0.00000
     10      15.3447      0.00000

 k-point    95 :      -0.3333    0.3333    0.1667
  band No.  band energies     occupation 
      1      -3.0070      2.00000
      2      -1.1589      2.00000
      3       1.7148      2.00000
      4       2.9130      2.00000
      5       8.8448      0.00000
      6       9.2571      0.00000
      7      11.6252      0.00000
      8      12.0568      0.00000
      9      13.2019      0.00000
     10      16.5689      0.00000

 k-point    96 :       0.1667   -0.3333    0.3333
  band No.  band energies     occupation 
      1      -3.1302      2.00000
      2      -0.8883      2.00000
      3       1.5972      2.00000
      4       2.8847      2.00000
      5       8.9036      0.00000
      6       9.0328      0.00000
      7      11.9149      0.00000
      8      11.9992      0.00000
      9      12.9583      0.00000
     10      16.7428      0.00000

 k-point    97 :       0.3333    0.1667   -0.3333
  band No.  band energies     occupation 
      1      -2.9467      2.00000
      2      -1.2443      2.00000
      3       1.5669      2.00000
      4       3.1069      2.00000
      5       8.9758      0.00000
      6       9.2475      0.00000
      7      11.6736      0.00000
      8      11.9312      0.00000
      9      12.9300      0.00000
     10      16.7980      0.00000

 k-point    98 :      -0.3333    0.3333    0.5000
  band No.  band energies     occupation 
      1      -2.8953      2.00000
      2      -1.3719      2.00000
      3       1.8037      2.00000
      4       2.9263      2.00000
      5       8.9203      0.00000
      6       9.3077      0.00000
      7      11.4297      0.00000
      8      12.1430      0.00000
      9      13.2732      0.00000
     10      16.4714      0.00000

 k-point    99 :       0.1667    0.5000   -0.1667
  band No.  band energies     occupation 
      1      -3.1535      2.00000
      2      -0.8532      2.00000
      3       1.6972      2.00000
      4       2.7616      2.00000
      5       8.7753      0.00000
      6       9.0910      0.00000
      7      11.9279      0.00000
      8      12.0535      0.00000
      9      13.0970      0.00000
     10      16.6065      0.00000

 k-point   100 :       0.3333   -0.1667   -0.3333
  band No.  band energies     occupation 
      1      -2.9616      2.00000
      2      -1.2157      2.00000
      3       1.5559      2.00000
      4       3.1049      2.00000
      5       8.9648      0.00000
      6       9.2393      0.00000
      7      11.7064      0.00000
      8      11.9230      0.00000
      9      12.9107      0.00000
     10      16.8263      0.00000

 k-point   101 :       0.5000   -0.3333    0.3333
  band No.  band energies     occupation 
      1      -2.8923      2.00000
      2      -1.3746      2.00000
      3       1.7867      2.00000
      4       2.9437      2.00000
      5       8.9367      0.00000
      6       9.3024      0.00000
      7      11.4337      0.00000
      8      12.1234      0.00000
      9      13.2562      0.00000
     10      16.4980      0.00000

 k-point   102 :      -0.1667    0.1667    0.5000
  band No.  band energies     occupation 
      1      -3.0078      2.00000
      2      -1.1736      2.00000
      3       1.8223      2.00000
      4       2.8164      2.00000
      5       8.7735      0.00000
      6       9.2822      0.00000
      7      11.5780      0.00000
      8      12.1774      0.00000
      9      13.3076      0.00000
     10      16.4195      0.00000

 k-point   103 :      -0.3333    0.3333   -0.1667
  band No.  band energies     occupation 
      1      -3.1341      2.00000
      2      -0.8822      2.00000
      3       1.6115      2.00000
      4       2.8662      2.00000
      5       8.8805      0.00000
      6       9.0459      0.00000
      7      11.9137      0.00000
      8      12.0080      0.00000
      9      12.9815      0.00000
     10      16.7243      0.00000

 k-point   104 :       0.3333    0.5000   -0.3333
  band No.  band energies     occupation 
      1      -2.8525      2.00000
      2      -1.4160      2.00000
      3       1.6326      2.00000
      4       3.1149      2.00000
      5       9.0985      0.00000
      6       9.2350      0.00000
      7      11.4964      0.00000
      8      11.9907      0.00000
      9      13.0101      0.00000
     10      16.7323      0.00000

 k-point   105 :       0.5000   -0.1667    0.1667
  band No.  band energies     occupation 
      1      -3.0234      2.00000
      2      -1.1418      2.00000
      3       1.8084      2.00000
      4       2.8136      2.00000
      5       8.7668      0.00000
      6       9.2707      0.00000
      7      11.6077      0.00000
      8      12.1640      0.00000
      9      13.2951      0.00000
     10      16.4375      0.00000

 k-point   106 :      -0.1667   -0.3333    0.3333
  band No.  band energies     occupation 
      1      -2.9884      2.00000
      2      -1.1933      2.00000
      3       1.7118      2.00000
      4       2.9332      2.00000
      5       8.8660      0.00000
      6       9.2652      0.00000
      7      11.6001      0.00000
      8      12.0498      0.00000
      9      13.1975      0.00000
     10      16.5769      0.00000

 k-point   107 :      -0.3333    0.5000    0.1667
  band No.  band energies     occupation 
      1      -2.2144      2.00000
      2      -1.8189      2.00000
      3       1.9394      2.00000
      4       2.1817      2.00000
      5       8.2141     -0.00000
      6       8.5118      0.00000
      7      12.1939      0.00000
      8      12.4109      0.00000
      9      16.0485      0.00000
     10      16.1192      0.00000

 k-point   108 :       0.1667   -0.3333    0.5000
  band No.  band energies     occupation 
      1      -2.1775      2.00000
      2      -1.8624      2.00000
      3       1.9642      2.00000
      4       2.1653      2.00000
      5       8.2332      0.00000
      6       8.4868      0.00000
      7      12.2753      0.00000
      8      12.3444      0.00000
      9      16.0441      0.00000
     10      16.0747      0.00000

 k-point   109 :       0.5000    0.1667   -0.3333
  band No.  band energies     occupation 
      1      -2.1258      2.00000
      2      -1.9209      2.00000
      3       2.0035      2.00000
      4       2.1344      2.00000
      5       8.3083      0.00000
      6       8.4089      0.00000
      7      12.1886      0.00000
      8      12.4300      0.00000
      9      16.0307      0.00000
     10      16.1047      0.00000

 k-point   110 :       0.5000    0.3333   -0.1667
  band No.  band energies     occupation 
      1      -2.1969      2.00000
      2      -1.8397      2.00000
      3       1.9502      2.00000
      4       2.1752      2.00000
      5       8.2172     -0.00000
      6       8.5051      0.00000
      7      12.2709      0.00000
      8      12.3449      0.00000
      9      16.0466      0.00000
     10      16.0822      0.00000

 k-point   111 :      -0.3333    0.1667    0.5000
  band No.  band energies     occupation 
      1      -2.1153      2.00000
      2      -1.9323      2.00000
      3       2.0088      2.00000
      4       2.1303      2.00000
      5       8.3119      0.00000
      6       8.4042      0.00000
      7      12.2040      0.00000
      8      12.4178      0.00000
      9      16.0295      0.00000
     10      16.0943      0.00000

 k-point   112 :       0.1667    0.5000   -0.3333
  band No.  band energies     occupation 
      1      -2.2026      2.00000
      2      -1.8330      2.00000
      3       1.9492      2.00000
      4       2.1748      2.00000
      5       8.2284      0.00000
      6       8.4962      0.00000
      7      12.1813      0.00000
      8      12.4242      0.00000
      9      16.0462      0.00000
     10      16.1231      0.00000


--------------------------------------------------------------------------------------------------------


 soft charge-density along one line, spin component           1
         0         1         2         3         4         5         6         7         8         9
 total charge-density along one line
 
 pseudopotential strength for first ion, spin component:           1
 18.437  25.724  -0.002  -0.001  -0.001  -0.005  -0.002  -0.001
 25.724  35.894  -0.003  -0.001  -0.001  -0.006  -0.003  -0.002
 -0.002  -0.003   4.180   0.000   0.000   7.790   0.000   0.000
 -0.001  -0.001   0.000   4.181   0.000   0.000   7.792   0.000
 -0.001  -0.001   0.000   0.000   4.181   0.000   0.000   7.791
 -0.005  -0.006   7.790   0.000   0.000  14.527   0.000   0.000
 -0.002  -0.003   0.000   7.792   0.000   0.000  14.530   0.001
 -0.001  -0.002   0.000   0.000   7.791   0.000   0.001  14.529
 total augmentation occupancy for first ion, spin component:           1
  2.000   0.000   0.000   0.000   0.000   0.000   0.000   0.000
  0.000   0.000   0.000   0.000   0.000   0.000   0.000   0.000
  0.000   0.000   0.667   0.000   0.000   0.000   0.000   0.000
  0.000   0.000   0.000   0.667   0.000   0.000   0.000   0.000
  0.000   0.000   0.000   0.000   0.667   0.000   0.000   0.000
  0.000   0.000   0.000   0.000   0.000   0.000   0.000   0.000
  0.000   0.000   0.000   0.000   0.000   0.000   0.000   0.000
  0.000   0.000   0.000   0.000   0.000   0.000   0.000   0.000


------------------------ aborting loop because EDIFF is reached ----------------------------------------





 total charge

# of ion       s       p       d       tot
------------------------------------------
    1        0.749   0.932   0.000   1.681
    2        0.749   0.932   0.000   1.681
--------------------------------------------------
tot          1.497   1.864   0.000   3.361
 
    CHARGE:  cpu time    0.0636: real time    0.0641
    FORLOC:  cpu time    0.0020: real time    0.0020
    FORNL :  cpu time    0.5102: real time    0.5113
    STRESS:  cpu time    1.5816: real time    1.5930
    FORCOR:  cpu time    0.0447: real time    0.0451
    FORHAR:  cpu time    0.0116: real time    0.0121
    OFIELD:  cpu time    0.0002: real time    0.0002

  FORCE on cell =-STRESS in cart. coord.  units (eV):
  Direction    XX          YY          ZZ          XY          YZ          ZX
  --------------------------------------------------------------------------------------
  Alpha Z     3.29318     3.29318     3.29318
  Ewald     -73.68568   -82.38218   -70.79715     0.90703     1.17287     1.83438
  Hartree     5.30592     4.30371     5.62909     0.10755     0.13812     0.20564
  E(xc)     -25.27426   -25.20174   -25.30012    -0.00749    -0.00983    -0.01645
  Local     -31.63129   -22.41171   -34.66779    -0.95399    -1.23217    -1.92639
  n-local    77.80974    76.06404    78.42515     0.18331     0.24010     0.39118
  augment   -11.64228   -11.56651   -11.66977    -0.00792    -0.01041    -0.01749
  Kinetic    56.07535    57.25243    55.71254    -0.11859    -0.15152    -0.22916
  Fock        0.00000     0.00000     0.00000     0.00000     0.00000     0.00000
  -------------------------------------------------------------------------------------
  Total       0.25069    -0.64879     0.62513     0.10988     0.14715     0.24171
  in kB       9.82326   -25.42225    24.49515     4.30566     5.76586     9.47111
  external pressure =        2.97 kB  Pullay stress =        0.00 kB


 VOLUME and BASIS-vectors are now :
 -----------------------------------------------------------------------------
  energy-cutoff  :      680.00
  volume of cell :       40.89
      direct lattice vectors                 reciprocal lattice vectors
     3.348898000  0.000000000  1.933487000     0.298605691 -0.105573000  0.000000000
     1.116299000  3.157372000  1.933487000     0.000000000  0.316719094  0.000000000
     0.000000000  0.000000000  3.866975000    -0.149302807 -0.105573020  0.258600069

  length of vectors
     3.866974243  3.866974707  3.866975000     0.316719145  0.316719094  0.316719096


 FORCES acting on ions
    electron-ion (+dipol)            ewald-force                    non-local-force                 convergence-correction
 -----------------------------------------------------------------------------------------------
   -.605E+00 -.153E+01 -.804E+00   0.592E+00 0.158E+01 0.781E+00   0.333E+00 0.858E+00 0.442E+00   0.903E-04 0.130E-03 0.140E-03
   0.605E+00 0.153E+01 0.804E+00   -.592E+00 -.158E+01 -.781E+00   -.333E+00 -.858E+00 -.442E+00   -.903E-04 -.130E-03 -.140E-03
 -----------------------------------------------------------------------------------------------
   0.275E-11 0.258E-11 0.173E-11   0.000E+00 0.000E+00 0.222E-15   -.555E-16 -.111E-15 0.000E+00   -.790E-13 0.356E-13 0.298E-12
 
 
 POSITION                                       TOTAL-FORCE (eV/Angst)
 -----------------------------------------------------------------------------------
      1.10553      0.75084      1.91979         0.319840      0.910621      0.419454
      3.35967      0.03850      5.81416        -0.319840     -0.910621     -0.419454
 -----------------------------------------------------------------------------------
    total drift:                                0.000000      0.000000      0.000000


--------------------------------------------------------------------------------------------------------



  FREE ENERGIE OF THE ION-ELECTRON SYSTEM (eV)
  ---------------------------------------------------
  free  energy   TOTEN  =       -10.78229130 eV

  energy  without entropy=      -10.78229130  energy(sigma->0) =      -10.78229130
 


--------------------------------------------------------------------------------------------------------


    POTLOK:  cpu time    0.0807: real time    0.0810


--------------------------------------------------------------------------------------------------------


     LOOP+:  cpu time   17.1446: real time   17.2352
    4ORBIT:  cpu time    0.0000: real time    0.0000



 total charge

# of ion       s       p       d       tot
------------------------------------------
    1        0.749   0.932   0.000   1.681
    2        0.749   0.932   0.000   1.681
--------------------------------------------------
tot          1.497   1.864   0.000   3.361
 
 BZINTS: Fermi energy:    6.217131;    8.000000 electrons
         Band energy: 0.497147E+01;  BLOECHL correction:   -0.000000

 total amount of memory used by VASP MPI-rank0    46670. kBytes
=======================================================================

   base      :      30000. kBytes
   nonlr-proj:        482. kBytes
   fftplans  :       3554. kBytes
   grid      :       5033. kBytes
   one-center:          3. kBytes
   wavefun   :       7598. kBytes
 
  
  
 General timing and accounting informations for this job:
 ========================================================
  
                  Total CPU time used (sec):       21.338
                            User time (sec):       20.023
                          System time (sec):        1.314
                         Elapsed time (sec):       21.452
  
                   Maximum memory used (kb):    49668096.
                   Average memory used (kb):          N/A
  
                          Minor page faults:        16433
                          Major page faults:           48
                 Voluntary context switches:           11
