<?xml version="1.0" encoding="ISO-8859-1"?>
<modeling>
 <generator>
  <i name="program" type="string">vasp </i>
  <i name="version" type="string">6.2.1  </i>
  <i name="subversion" type="string">16May21 (build Oct 27 2021 18:14:32) complex                          parallel </i>
  <i name="platform" type="string">LinuxIFC </i>
  <i name="date" type="string">2021 11 23 </i>
  <i name="time" type="string">17:33:47 </i>
 </generator>
 <incar>
  <i type="string" name="PREC">Accurate</i>
  <i type="string" name="ALGO">Normal</i>
  <i type="int" name="ISPIN">     1</i>
  <i type="int" name="ICHARG">    11</i>
  <i type="int" name="NELM">   200</i>
  <i type="int" name="IBRION">    -1</i>
  <i name="EDIFF">      0.00001000</i>
  <i name="EDIFFG">     -0.02000000</i>
  <i type="int" name="NSW">     0</i>
  <i type="int" name="ISIF">     3</i>
  <i type="int" name="ISYM">     2</i>
  <i name="ENCUT">    680.00000000</i>
  <i name="ENAUG">   1360.00000000</i>
  <i type="int" name="NBANDS">    10</i>
  <i type="int" name="NEDOS">  4362</i>
  <i type="string" name="LREAL">Auto</i>
  <i type="int" name="ISMEAR">    -5</i>
  <i name="SIGMA">      0.05000000</i>
  <i type="logical" name="LWAVE"> F  </i>
  <i type="logical" name="LCHARG"> F  </i>
  <i type="logical" name="LVTOT"> T  </i>
  <i type="int" name="LORBIT">    11</i>
  <i type="logical" name="LELF"> T  </i>
  <i type="logical" name="LASPH"> T  </i>
  <i type="logical" name="LAECHG"> T  </i>
  <i type="logical" name="LMIXTAU"> T  </i>
 </incar>
 <primitive_cell>
  <structure name="primitive_cell" >
   <crystal>
    <varray name="basis" >
     <v>       3.34889800       0.00000000       1.93348700 </v>
     <v>       1.11629900       3.15737200       1.93348700 </v>
     <v>       0.00000000       0.00000000       3.86697500 </v>
    </varray>
    <i name="volume">     40.88829843 </i>
    <varray name="rec_basis" >
     <v>       0.29860569      -0.10557300       0.00000000 </v>
     <v>       0.00000000       0.31671909       0.00000000 </v>
     <v>      -0.14930281      -0.10557302       0.25860007 </v>
    </varray>
   </crystal>
   <varray name="positions" >
    <v>       0.25084800       0.23780500       0.25213200 </v>
    <v>       0.99915200       0.01219500       0.99786800 </v>
   </varray>
  </structure>
  <varray name="primitive_index" >
   <v type="int" >        1 </v>
   <v type="int" >        2 </v>
  </varray>
 </primitive_cell>
 <kpoints>
  <generation param="Gamma">
   <v type="int" name="divisions">       6        6        6 </v>
   <v name="usershift">      0.00000000       0.00000000       0.00000000 </v>
   <v name="genvec1">      0.16666667      -0.00000000       0.00000000 </v>
   <v name="genvec2">      0.00000000       0.16666667       0.00000000 </v>
   <v name="genvec3">      0.00000000       0.00000000       0.16666667 </v>
   <v name="shift">      0.00000000       0.00000000       0.00000000 </v>
  </generation>
  <varray name="kpointlist" >
   <v>       0.00000000       0.00000000       0.00000000 </v>
   <v>       0.16666667       0.00000000       0.00000000 </v>
   <v>      -0.00000000       0.16666667       0.00000000 </v>
   <v>       0.00000000       0.00000000       0.16666667 </v>
   <v>       0.16666667       0.16666667       0.16666667 </v>
   <v>       0.33333333       0.00000000       0.00000000 </v>
   <v>       0.00000000       0.33333333       0.00000000 </v>
   <v>       0.00000000       0.00000000       0.33333333 </v>
   <v>       0.33333333       0.33333333       0.33333333 </v>
   <v>       0.50000000       0.00000000       0.00000000 </v>
   <v>       0.00000000       0.50000000       0.00000000 </v>
   <v>      -0.00000000       0.00000000       0.50000000 </v>
   <v>       0.50000000       0.50000000       0.50000000 </v>
   <v>       0.16666667       0.16666667       0.00000000 </v>
   <v>       0.00000000       0.16666667       0.16666667 </v>
   <v>       0.16666667       0.00000000       0.16666667 </v>
   <v>       0.33333333       0.16666667       0.00000000 </v>
   <v>       0.00000000       0.33333333       0.16666667 </v>
   <v>       0.16666667       0.00000000       0.33333333 </v>
   <v>       0.16666667       0.16666667      -0.16666667 </v>
   <v>       0.33333333       0.16666667       0.33333333 </v>
   <v>       0.16666667       0.33333333       0.00000000 </v>
   <v>       0.16666667      -0.16666667      -0.16666667 </v>
   <v>       0.33333333       0.33333333       0.16666667 </v>
   <v>       0.00000000       0.16666667       0.33333333 </v>
   <v>      -0.16666667       0.16666667      -0.16666667 </v>
   <v>       0.16666667       0.33333333       0.33333333 </v>
   <v>       0.33333333       0.00000000       0.16666667 </v>
   <v>       0.50000000       0.16666667       0.00000000 </v>
   <v>       0.00000000       0.50000000       0.16666667 </v>
   <v>       0.16666667       0.00000000       0.50000000 </v>
   <v>       0.16666667       0.16666667      -0.33333333 </v>
   <v>       0.50000000       0.33333333       0.50000000 </v>
   <v>       0.16666667       0.50000000       0.00000000 </v>
   <v>       0.33333333      -0.16666667      -0.16666667 </v>
   <v>       0.50000000       0.50000000       0.33333333 </v>
   <v>      -0.00000000       0.16666667       0.50000000 </v>
   <v>      -0.16666667       0.33333333      -0.16666667 </v>
   <v>       0.33333333       0.50000000       0.50000000 </v>
   <v>       0.50000000       0.00000000       0.16666667 </v>
   <v>      -0.33333333       0.16666667       0.00000000 </v>
   <v>       0.00000000      -0.33333333       0.16666667 </v>
   <v>       0.16666667      -0.00000000      -0.33333333 </v>
   <v>       0.16666667       0.16666667       0.50000000 </v>
   <v>      -0.33333333       0.50000000      -0.33333333 </v>
   <v>       0.16666667      -0.33333333       0.00000000 </v>
   <v>       0.50000000      -0.16666667      -0.16666667 </v>
   <v>      -0.33333333      -0.33333333       0.50000000 </v>
   <v>      -0.00000000       0.16666667      -0.33333333 </v>
   <v>      -0.16666667       0.50000000      -0.16666667 </v>
   <v>       0.50000000      -0.33333333      -0.33333333 </v>
   <v>      -0.33333333      -0.00000000       0.16666667 </v>
   <v>      -0.16666667       0.16666667       0.00000000 </v>
   <v>       0.00000000      -0.16666667       0.16666667 </v>
   <v>       0.16666667       0.00000000      -0.16666667 </v>
   <v>       0.16666667       0.16666667       0.33333333 </v>
   <v>      -0.16666667      -0.33333333      -0.16666667 </v>
   <v>      -0.33333333      -0.16666667      -0.16666667 </v>
   <v>       0.33333333       0.33333333       0.00000000 </v>
   <v>       0.00000000       0.33333333       0.33333333 </v>
   <v>       0.33333333       0.00000000       0.33333333 </v>
   <v>       0.50000000       0.33333333       0.00000000 </v>
   <v>       0.00000000       0.50000000       0.33333333 </v>
   <v>       0.33333333       0.00000000       0.50000000 </v>
   <v>       0.33333333       0.33333333      -0.16666667 </v>
   <v>       0.50000000       0.16666667       0.50000000 </v>
   <v>       0.33333333       0.50000000       0.00000000 </v>
   <v>       0.16666667      -0.33333333      -0.33333333 </v>
   <v>       0.50000000       0.50000000       0.16666667 </v>
   <v>      -0.00000000       0.33333333       0.50000000 </v>
   <v>      -0.33333333       0.16666667      -0.33333333 </v>
   <v>       0.16666667       0.50000000       0.50000000 </v>
   <v>       0.50000000       0.00000000       0.33333333 </v>
   <v>      -0.33333333       0.33333333       0.00000000 </v>
   <v>       0.00000000      -0.33333333       0.33333333 </v>
   <v>       0.33333333      -0.00000000      -0.33333333 </v>
   <v>       0.33333333       0.33333333      -0.33333333 </v>
   <v>      -0.33333333       0.33333333      -0.33333333 </v>
   <v>       0.33333333      -0.33333333      -0.33333333 </v>
   <v>       0.50000000       0.50000000       0.00000000 </v>
   <v>      -0.00000000       0.50000000       0.50000000 </v>
   <v>       0.50000000       0.00000000       0.50000000 </v>
   <v>       0.50000000       0.33333333       0.16666667 </v>
   <v>       0.16666667       0.50000000       0.33333333 </v>
   <v>       0.33333333       0.16666667       0.50000000 </v>
   <v>       0.33333333       0.16666667      -0.16666667 </v>
   <v>       0.50000000       0.16666667       0.33333333 </v>
   <v>       0.16666667      -0.33333333      -0.16666667 </v>
   <v>       0.16666667       0.33333333      -0.16666667 </v>
   <v>       0.16666667      -0.16666667      -0.33333333 </v>
   <v>       0.33333333       0.50000000       0.16666667 </v>
   <v>      -0.16666667       0.16666667      -0.33333333 </v>
   <v>      -0.33333333       0.16666667      -0.16666667 </v>
   <v>       0.16666667       0.33333333       0.50000000 </v>
   <v>      -0.33333333       0.33333333       0.16666667 </v>
   <v>       0.16666667      -0.33333333       0.33333333 </v>
   <v>       0.33333333       0.16666667      -0.33333333 </v>
   <v>      -0.33333333       0.33333333       0.50000000 </v>
   <v>       0.16666667       0.50000000      -0.16666667 </v>
   <v>       0.33333333      -0.16666667      -0.33333333 </v>
   <v>       0.50000000      -0.33333333       0.33333333 </v>
   <v>      -0.16666667       0.16666667       0.50000000 </v>
   <v>      -0.33333333       0.33333333      -0.16666667 </v>
   <v>       0.33333333       0.50000000      -0.33333333 </v>
   <v>       0.50000000      -0.16666667       0.16666667 </v>
   <v>      -0.16666667      -0.33333333       0.33333333 </v>
   <v>      -0.33333333       0.50000000       0.16666667 </v>
   <v>       0.16666667      -0.33333333       0.50000000 </v>
   <v>       0.50000000       0.16666667      -0.33333333 </v>
   <v>       0.50000000       0.33333333      -0.16666667 </v>
   <v>      -0.33333333       0.16666667       0.50000000 </v>
   <v>       0.16666667       0.50000000      -0.33333333 </v>
  </varray>
  <varray name="weights" >
   <v>       0.00462963 </v>
   <v>       0.00925926 </v>
   <v>       0.00925926 </v>
   <v>       0.00925926 </v>
   <v>       0.00925926 </v>
   <v>       0.00925926 </v>
   <v>       0.00925926 </v>
   <v>       0.00925926 </v>
   <v>       0.00925926 </v>
   <v>       0.00462963 </v>
   <v>       0.00462963 </v>
   <v>       0.00462963 </v>
   <v>       0.00462963 </v>
   <v>       0.00925926 </v>
   <v>       0.00925926 </v>
   <v>       0.00925926 </v>
   <v>       0.00925926 </v>
   <v>       0.00925926 </v>
   <v>       0.00925926 </v>
   <v>       0.00925926 </v>
   <v>       0.00925926 </v>
   <v>       0.00925926 </v>
   <v>       0.00925926 </v>
   <v>       0.00925926 </v>
   <v>       0.00925926 </v>
   <v>       0.00925926 </v>
   <v>       0.00925926 </v>
   <v>       0.00925926 </v>
   <v>       0.00925926 </v>
   <v>       0.00925926 </v>
   <v>       0.00925926 </v>
   <v>       0.00925926 </v>
   <v>       0.00925926 </v>
   <v>       0.00925926 </v>
   <v>       0.00925926 </v>
   <v>       0.00925926 </v>
   <v>       0.00925926 </v>
   <v>       0.00925926 </v>
   <v>       0.00925926 </v>
   <v>       0.00925926 </v>
   <v>       0.00925926 </v>
   <v>       0.00925926 </v>
   <v>       0.00925926 </v>
   <v>       0.00925926 </v>
   <v>       0.00925926 </v>
   <v>       0.00925926 </v>
   <v>       0.00925926 </v>
   <v>       0.00925926 </v>
   <v>       0.00925926 </v>
   <v>       0.00925926 </v>
   <v>       0.00925926 </v>
   <v>       0.00925926 </v>
   <v>       0.00925926 </v>
   <v>       0.00925926 </v>
   <v>       0.00925926 </v>
   <v>       0.00925926 </v>
   <v>       0.00925926 </v>
   <v>       0.00925926 </v>
   <v>       0.00925926 </v>
   <v>       0.00925926 </v>
   <v>       0.00925926 </v>
   <v>       0.00925926 </v>
   <v>       0.00925926 </v>
   <v>       0.00925926 </v>
   <v>       0.00925926 </v>
   <v>       0.00925926 </v>
   <v>       0.00925926 </v>
   <v>       0.00925926 </v>
   <v>       0.00925926 </v>
   <v>       0.00925926 </v>
   <v>       0.00925926 </v>
   <v>       0.00925926 </v>
   <v>       0.00925926 </v>
   <v>       0.00925926 </v>
   <v>       0.00925926 </v>
   <v>       0.00925926 </v>
   <v>       0.00925926 </v>
   <v>       0.00925926 </v>
   <v>       0.00925926 </v>
   <v>       0.00462963 </v>
   <v>       0.00462963 </v>
   <v>       0.00462963 </v>
   <v>       0.00925926 </v>
   <v>       0.00925926 </v>
   <v>       0.00925926 </v>
   <v>       0.00925926 </v>
   <v>       0.00925926 </v>
   <v>       0.00925926 </v>
   <v>       0.00925926 </v>
   <v>       0.00925926 </v>
   <v>       0.00925926 </v>
   <v>       0.00925926 </v>
   <v>       0.00925926 </v>
   <v>       0.00925926 </v>
   <v>       0.00925926 </v>
   <v>       0.00925926 </v>
   <v>       0.00925926 </v>
   <v>       0.00925926 </v>
   <v>       0.00925926 </v>
   <v>       0.00925926 </v>
   <v>       0.00925926 </v>
   <v>       0.00925926 </v>
   <v>       0.00925926 </v>
   <v>       0.00925926 </v>
   <v>       0.00925926 </v>
   <v>       0.00925926 </v>
   <v>       0.00925926 </v>
   <v>       0.00925926 </v>
   <v>       0.00925926 </v>
   <v>       0.00925926 </v>
   <v>       0.00925926 </v>
   <v>       0.00925926 </v>
  </varray>
  <varray name="tetrahedronlist"  type="int" >
   <v type="int" >        2        1        3        5       14 </v>
   <v type="int" >        2        1        2        5       14 </v>
   <v type="int" >        2        1        2        5       16 </v>
   <v type="int" >        2        1        3        5       15 </v>
   <v type="int" >        2        1        4        5       15 </v>
   <v type="int" >        2        1        4        5       16 </v>
   <v type="int" >        2        2       14       17       58 </v>
   <v type="int" >        2        2        6       17       58 </v>
   <v type="int" >        2        2        6       28       58 </v>
   <v type="int" >        2        2        5       14       58 </v>
   <v type="int" >        2        2        5       16       58 </v>
   <v type="int" >        2        2       16       28       58 </v>
   <v type="int" >        2        6       17       29       47 </v>
   <v type="int" >        2        6       10       29       47 </v>
   <v type="int" >        2        6       10       40       47 </v>
   <v type="int" >        2        6       17       47       58 </v>
   <v type="int" >        2        6       28       47       58 </v>
   <v type="int" >        2        6       28       40       47 </v>
   <v type="int" >        2       10       29       35       41 </v>
   <v type="int" >        2        6       10       35       41 </v>
   <v type="int" >        2        6       10       35       52 </v>
   <v type="int" >        2       10       29       35       47 </v>
   <v type="int" >        2       10       35       40       47 </v>
   <v type="int" >        2       10       35       40       52 </v>
   <v type="int" >        2        6       23       41       53 </v>
   <v type="int" >        2        2        6       23       53 </v>
   <v type="int" >        2        2        6       23       55 </v>
   <v type="int" >        2        6       23       35       41 </v>
   <v type="int" >        2        6       23       35       52 </v>
   <v type="int" >        2        6       23       52       55 </v>
   <v type="int" >        2        2        3       15       53 </v>
   <v type="int" >        2        1        2        3       15 </v>
   <v type="int" >        2        1        2        4       15 </v>
   <v type="int" >        2        2       15       23       53 </v>
   <v type="int" >        2        2       15       23       55 </v>
   <v type="int" >        2        2        4       15       55 </v>
   <v type="int" >        2        3        7       22       57 </v>
   <v type="int" >        2        3       14       22       57 </v>
   <v type="int" >        2        3        5       14       57 </v>
   <v type="int" >        2        3        7       18       57 </v>
   <v type="int" >        2        3       15       18       57 </v>
   <v type="int" >        2        3        5       15       57 </v>
   <v type="int" >        2       14       22       24       59 </v>
   <v type="int" >        2       14       17       24       59 </v>
   <v type="int" >        2       14       17       24       58 </v>
   <v type="int" >        2       14       22       24       57 </v>
   <v type="int" >        2        5       14       24       57 </v>
   <v type="int" >        2        5       14       24       58 </v>
   <v type="int" >        2       17       59       62       83 </v>
   <v type="int" >        2       17       29       62       83 </v>
   <v type="int" >        2       17       29       47       83 </v>
   <v type="int" >        2       17       24       59       83 </v>
   <v type="int" >        2       17       24       58       83 </v>
   <v type="int" >        2       17       47       58       83 </v>
   <v type="int" >        2       29       62       74       95 </v>
   <v type="int" >        2       29       41       74       95 </v>
   <v type="int" >        2       29       35       41       95 </v>
   <v type="int" >        2       29       62       83       95 </v>
   <v type="int" >        2       29       47       83       95 </v>
   <v type="int" >        2       29       35       47       95 </v>
   <v type="int" >        2       41       46       74       88 </v>
   <v type="int" >        2       41       46       53       88 </v>
   <v type="int" >        2       23       41       53       88 </v>
   <v type="int" >        2       41       74       88       95 </v>
   <v type="int" >        2       35       41       88       95 </v>
   <v type="int" >        2       23       35       41       88 </v>
   <v type="int" >        2        7       18       46       53 </v>
   <v type="int" >        2        3        7       18       53 </v>
   <v type="int" >        2        3       15       18       53 </v>
   <v type="int" >        2       18       46       53       88 </v>
   <v type="int" >        2       18       23       53       88 </v>
   <v type="int" >        2       15       18       23       53 </v>
   <v type="int" >        2        7       11       34       50 </v>
   <v type="int" >        2        7       22       34       50 </v>
   <v type="int" >        2        7       22       50       57 </v>
   <v type="int" >        2        7       11       30       50 </v>
   <v type="int" >        2        7       18       30       50 </v>
   <v type="int" >        2        7       18       50       57 </v>
   <v type="int" >        2       22       34       67       91 </v>
   <v type="int" >        2       22       59       67       91 </v>
   <v type="int" >        2       22       24       59       91 </v>
   <v type="int" >        2       22       34       50       91 </v>
   <v type="int" >        2       22       50       57       91 </v>
   <v type="int" >        2       22       24       57       91 </v>
   <v type="int" >        2       59       67       69       80 </v>
   <v type="int" >        2       59       62       69       80 </v>
   <v type="int" >        2       59       62       69       83 </v>
   <v type="int" >        2       59       67       69       91 </v>
   <v type="int" >        2       24       59       69       91 </v>
   <v type="int" >        2       24       59       69       83 </v>
   <v type="int" >        2       62       67       80      107 </v>
   <v type="int" >        2       62       67       74      107 </v>
   <v type="int" >        2       62       74       95      107 </v>
   <v type="int" >        2       62       69       80      107 </v>
   <v type="int" >        2       62       69       83      107 </v>
   <v type="int" >        2       62       83       95      107 </v>
   <v type="int" >        2       34       67       74       99 </v>
   <v type="int" >        2       34       46       74       99 </v>
   <v type="int" >        2       46       74       88       99 </v>
   <v type="int" >        2       67       74       99      107 </v>
   <v type="int" >        2       74       95       99      107 </v>
   <v type="int" >        2       74       88       95       99 </v>
   <v type="int" >        2       11       30       34       46 </v>
   <v type="int" >        2        7       11       30       46 </v>
   <v type="int" >        2        7       18       30       46 </v>
   <v type="int" >        2       30       34       46       99 </v>
   <v type="int" >        2       30       46       88       99 </v>
   <v type="int" >        2       18       30       46       88 </v>
   <v type="int" >        2        7       11       38       46 </v>
   <v type="int" >        2       11       34       38       46 </v>
   <v type="int" >        2       11       34       38       50 </v>
   <v type="int" >        2        7       11       38       42 </v>
   <v type="int" >        2       11       30       38       42 </v>
   <v type="int" >        2       11       30       38       50 </v>
   <v type="int" >        2       34       46       74      103 </v>
   <v type="int" >        2       34       67       74      103 </v>
   <v type="int" >        2       34       67       91      103 </v>
   <v type="int" >        2       34       38       46      103 </v>
   <v type="int" >        2       34       38       50      103 </v>
   <v type="int" >        2       34       50       91      103 </v>
   <v type="int" >        2       62       67       74      110 </v>
   <v type="int" >        2       62       67       80      110 </v>
   <v type="int" >        2       67       69       80      110 </v>
   <v type="int" >        2       67       74      103      110 </v>
   <v type="int" >        2       67       91      103      110 </v>
   <v type="int" >        2       67       69       91      110 </v>
   <v type="int" >        2       59       62       65       80 </v>
   <v type="int" >        2       59       65       67       80 </v>
   <v type="int" >        2       65       67       80      107 </v>
   <v type="int" >        2       62       65       80      110 </v>
   <v type="int" >        2       65       69       80      110 </v>
   <v type="int" >        2       65       69       80      107 </v>
   <v type="int" >        2       22       59       67       89 </v>
   <v type="int" >        2       22       34       67       89 </v>
   <v type="int" >        2       34       67       89       99 </v>
   <v type="int" >        2       59       65       67       89 </v>
   <v type="int" >        2       65       67       89      107 </v>
   <v type="int" >        2       67       89       99      107 </v>
   <v type="int" >        2        7       22       34       42 </v>
   <v type="int" >        2        7       11       34       42 </v>
   <v type="int" >        2       11       30       34       42 </v>
   <v type="int" >        2       22       34       42       89 </v>
   <v type="int" >        2       34       42       89       99 </v>
   <v type="int" >        2       30       34       42       99 </v>
   <v type="int" >        2        3        7       26       53 </v>
   <v type="int" >        2        7       26       46       53 </v>
   <v type="int" >        2        7       26       38       46 </v>
   <v type="int" >        2        3        7       26       54 </v>
   <v type="int" >        2        7       26       42       54 </v>
   <v type="int" >        2        7       26       38       42 </v>
   <v type="int" >        2       41       46       53       93 </v>
   <v type="int" >        2       41       46       74       93 </v>
   <v type="int" >        2       46       74       93      103 </v>
   <v type="int" >        2       26       46       53       93 </v>
   <v type="int" >        2       26       38       46       93 </v>
   <v type="int" >        2       38       46       93      103 </v>
   <v type="int" >        2       29       41       74      105 </v>
   <v type="int" >        2       29       62       74      105 </v>
   <v type="int" >        2       62       74      105      110 </v>
   <v type="int" >        2       41       74       93      105 </v>
   <v type="int" >        2       74       93      103      105 </v>
   <v type="int" >        2       74      103      105      110 </v>
   <v type="int" >        2       17       29       62       86 </v>
   <v type="int" >        2       17       59       62       86 </v>
   <v type="int" >        2       59       62       65       86 </v>
   <v type="int" >        2       29       62       86      105 </v>
   <v type="int" >        2       62       86      105      110 </v>
   <v type="int" >        2       62       65       86      110 </v>
   <v type="int" >        2       14       17       20       59 </v>
   <v type="int" >        2       14       20       22       59 </v>
   <v type="int" >        2       20       22       59       89 </v>
   <v type="int" >        2       17       20       59       86 </v>
   <v type="int" >        2       20       59       65       86 </v>
   <v type="int" >        2       20       59       65       89 </v>
   <v type="int" >        2        3       14       22       54 </v>
   <v type="int" >        2        3        7       22       54 </v>
   <v type="int" >        2        7       22       42       54 </v>
   <v type="int" >        2       14       20       22       54 </v>
   <v type="int" >        2       20       22       54       89 </v>
   <v type="int" >        2       22       42       54       89 </v>
   <v type="int" >        2        1        2        3       16 </v>
   <v type="int" >        2        2        3       16       53 </v>
   <v type="int" >        2        3       16       26       53 </v>
   <v type="int" >        2        1        3        4       16 </v>
   <v type="int" >        2        3        4       16       54 </v>
   <v type="int" >        2        3       16       26       54 </v>
   <v type="int" >        2        2        6       28       53 </v>
   <v type="int" >        2        6       28       41       53 </v>
   <v type="int" >        2       28       41       53       93 </v>
   <v type="int" >        2        2       16       28       53 </v>
   <v type="int" >        2       16       26       28       53 </v>
   <v type="int" >        2       26       28       53       93 </v>
   <v type="int" >        2        6       10       40       41 </v>
   <v type="int" >        2       10       29       40       41 </v>
   <v type="int" >        2       29       40       41      105 </v>
   <v type="int" >        2        6       28       40       41 </v>
   <v type="int" >        2       28       40       41       93 </v>
   <v type="int" >        2       40       41       93      105 </v>
   <v type="int" >        2        6       10       29       52 </v>
   <v type="int" >        2        6       17       29       52 </v>
   <v type="int" >        2       17       29       52       86 </v>
   <v type="int" >        2       10       29       40       52 </v>
   <v type="int" >        2       29       40       52      105 </v>
   <v type="int" >        2       29       52       86      105 </v>
   <v type="int" >        2        2        6       17       55 </v>
   <v type="int" >        2        2       14       17       55 </v>
   <v type="int" >        2       14       17       20       55 </v>
   <v type="int" >        2        6       17       52       55 </v>
   <v type="int" >        2       17       52       55       86 </v>
   <v type="int" >        2       17       20       55       86 </v>
   <v type="int" >        2        1        2        4       14 </v>
   <v type="int" >        2        1        3        4       14 </v>
   <v type="int" >        2        3        4       14       54 </v>
   <v type="int" >        2        2        4       14       55 </v>
   <v type="int" >        2        4       14       20       55 </v>
   <v type="int" >        2        4       14       20       54 </v>
   <v type="int" >        2        4        5       15       56 </v>
   <v type="int" >        2        4        5       16       56 </v>
   <v type="int" >        2        4       16       19       56 </v>
   <v type="int" >        2        4       15       25       56 </v>
   <v type="int" >        2        4        8       25       56 </v>
   <v type="int" >        2        4        8       19       56 </v>
   <v type="int" >        2        5       16       21       58 </v>
   <v type="int" >        2       16       21       28       58 </v>
   <v type="int" >        2       16       21       28       61 </v>
   <v type="int" >        2        5       16       21       56 </v>
   <v type="int" >        2       16       19       21       56 </v>
   <v type="int" >        2       16       19       21       61 </v>
   <v type="int" >        2       28       47       58       87 </v>
   <v type="int" >        2       28       40       47       87 </v>
   <v type="int" >        2       28       40       73       87 </v>
   <v type="int" >        2       21       28       58       87 </v>
   <v type="int" >        2       21       28       61       87 </v>
   <v type="int" >        2       28       61       73       87 </v>
   <v type="int" >        2       35       40       47      100 </v>
   <v type="int" >        2       35       40       52      100 </v>
   <v type="int" >        2       40       52       76      100 </v>
   <v type="int" >        2       40       47       87      100 </v>
   <v type="int" >        2       40       73       87      100 </v>
   <v type="int" >        2       40       73       76      100 </v>
   <v type="int" >        2       23       35       52       90 </v>
   <v type="int" >        2       23       52       55       90 </v>
   <v type="int" >        2       43       52       55       90 </v>
   <v type="int" >        2       35       52       90      100 </v>
   <v type="int" >        2       52       76       90      100 </v>
   <v type="int" >        2       43       52       76       90 </v>
   <v type="int" >        2       15       23       25       55 </v>
   <v type="int" >        2        4       15       25       55 </v>
   <v type="int" >        2        4        8       25       55 </v>
   <v type="int" >        2       23       25       55       90 </v>
   <v type="int" >        2       25       43       55       90 </v>
   <v type="int" >        2        8       25       43       55 </v>
   <v type="int" >        2       15       18       27       57 </v>
   <v type="int" >        2        5       15       27       57 </v>
   <v type="int" >        2        5       15       27       56 </v>
   <v type="int" >        2       15       18       27       60 </v>
   <v type="int" >        2       15       25       27       60 </v>
   <v type="int" >        2       15       25       27       56 </v>
   <v type="int" >        2        5        9       24       57 </v>
   <v type="int" >        2        5        9       24       58 </v>
   <v type="int" >        2        5        9       21       58 </v>
   <v type="int" >        2        5        9       27       57 </v>
   <v type="int" >        2        5        9       27       56 </v>
   <v type="int" >        2        5        9       21       56 </v>
   <v type="int" >        2       24       51       58       83 </v>
   <v type="int" >        2       47       51       58       83 </v>
   <v type="int" >        2       47       51       58       87 </v>
   <v type="int" >        2        9       24       51       58 </v>
   <v type="int" >        2        9       21       51       58 </v>
   <v type="int" >        2       21       51       58       87 </v>
   <v type="int" >        2       47       79       83       95 </v>
   <v type="int" >        2       35       47       79       95 </v>
   <v type="int" >        2       35       47       79      100 </v>
   <v type="int" >        2       47       51       79       83 </v>
   <v type="int" >        2       47       51       79       87 </v>
   <v type="int" >        2       47       79       87      100 </v>
   <v type="int" >        2       35       68       88       95 </v>
   <v type="int" >        2       23       35       68       88 </v>
   <v type="int" >        2       23       35       68       90 </v>
   <v type="int" >        2       35       68       79       95 </v>
   <v type="int" >        2       35       68       79      100 </v>
   <v type="int" >        2       35       68       90      100 </v>
   <v type="int" >        2       18       23       60       88 </v>
   <v type="int" >        2       15       18       23       60 </v>
   <v type="int" >        2       15       23       25       60 </v>
   <v type="int" >        2       23       60       68       88 </v>
   <v type="int" >        2       23       60       68       90 </v>
   <v type="int" >        2       23       25       60       90 </v>
   <v type="int" >        2       18       30       50       84 </v>
   <v type="int" >        2       18       50       57       84 </v>
   <v type="int" >        2       18       27       57       84 </v>
   <v type="int" >        2       18       30       63       84 </v>
   <v type="int" >        2       18       60       63       84 </v>
   <v type="int" >        2       18       27       60       84 </v>
   <v type="int" >        2       45       50       57       91 </v>
   <v type="int" >        2       24       45       57       91 </v>
   <v type="int" >        2        9       24       45       57 </v>
   <v type="int" >        2       45       50       57       84 </v>
   <v type="int" >        2       27       45       57       84 </v>
   <v type="int" >        2        9       27       45       57 </v>
   <v type="int" >        2       24       36       69       91 </v>
   <v type="int" >        2       24       36       69       83 </v>
   <v type="int" >        2       24       36       51       83 </v>
   <v type="int" >        2       24       36       45       91 </v>
   <v type="int" >        2        9       24       36       45 </v>
   <v type="int" >        2        9       24       36       51 </v>
   <v type="int" >        2       69       83      104      107 </v>
   <v type="int" >        2       83       95      104      107 </v>
   <v type="int" >        2       79       83       95      104 </v>
   <v type="int" >        2       36       69       83      104 </v>
   <v type="int" >        2       36       51       83      104 </v>
   <v type="int" >        2       51       79       83      104 </v>
   <v type="int" >        2       95       99      107      112 </v>
   <v type="int" >        2       88       95       99      112 </v>
   <v type="int" >        2       68       88       95      112 </v>
   <v type="int" >        2       95      104      107      112 </v>
   <v type="int" >        2       79       95      104      112 </v>
   <v type="int" >        2       68       79       95      112 </v>
   <v type="int" >        2       30       63       88       99 </v>
   <v type="int" >        2       18       30       63       88 </v>
   <v type="int" >        2       18       60       63       88 </v>
   <v type="int" >        2       63       88       99      112 </v>
   <v type="int" >        2       63       68       88      112 </v>
   <v type="int" >        2       60       63       68       88 </v>
   <v type="int" >        2       30       38       42       96 </v>
   <v type="int" >        2       30       38       50       96 </v>
   <v type="int" >        2       30       50       84       96 </v>
   <v type="int" >        2       30       42       75       96 </v>
   <v type="int" >        2       30       63       75       96 </v>
   <v type="int" >        2       30       63       84       96 </v>
   <v type="int" >        2       38       50       78      103 </v>
   <v type="int" >        2       50       78       91      103 </v>
   <v type="int" >        2       45       50       78       91 </v>
   <v type="int" >        2       38       50       78       96 </v>
   <v type="int" >        2       50       78       84       96 </v>
   <v type="int" >        2       45       50       78       84 </v>
   <v type="int" >        2       91      101      103      110 </v>
   <v type="int" >        2       69       91      101      110 </v>
   <v type="int" >        2       36       69       91      101 </v>
   <v type="int" >        2       78       91      101      103 </v>
   <v type="int" >        2       45       78       91      101 </v>
   <v type="int" >        2       36       45       91      101 </v>
   <v type="int" >        2       65       69       77      110 </v>
   <v type="int" >        2       65       69       77      107 </v>
   <v type="int" >        2       69       77      104      107 </v>
   <v type="int" >        2       69       77      101      110 </v>
   <v type="int" >        2       36       69       77      101 </v>
   <v type="int" >        2       36       69       77      104 </v>
   <v type="int" >        2       65       89      106      107 </v>
   <v type="int" >        2       89       99      106      107 </v>
   <v type="int" >        2       99      106      107      112 </v>
   <v type="int" >        2       65       77      106      107 </v>
   <v type="int" >        2       77      104      106      107 </v>
   <v type="int" >        2      104      106      107      112 </v>
   <v type="int" >        2       42       75       89       99 </v>
   <v type="int" >        2       30       42       75       99 </v>
   <v type="int" >        2       30       63       75       99 </v>
   <v type="int" >        2       75       89       99      106 </v>
   <v type="int" >        2       75       99      106      112 </v>
   <v type="int" >        2       63       75       99      112 </v>
   <v type="int" >        2       26       42       54       92 </v>
   <v type="int" >        2       26       38       42       92 </v>
   <v type="int" >        2       38       42       92       96 </v>
   <v type="int" >        2       42       49       54       92 </v>
   <v type="int" >        2       42       49       75       92 </v>
   <v type="int" >        2       42       75       92       96 </v>
   <v type="int" >        2       26       38       71       93 </v>
   <v type="int" >        2       38       71       93      103 </v>
   <v type="int" >        2       38       71       78      103 </v>
   <v type="int" >        2       26       38       71       92 </v>
   <v type="int" >        2       38       71       92       96 </v>
   <v type="int" >        2       38       71       78       96 </v>
   <v type="int" >        2       93      103      105      109 </v>
   <v type="int" >        2      103      105      109      110 </v>
   <v type="int" >        2      101      103      109      110 </v>
   <v type="int" >        2       71       93      103      109 </v>
   <v type="int" >        2       71       78      103      109 </v>
   <v type="int" >        2       78      101      103      109 </v>
   <v type="int" >        2       86       97      105      110 </v>
   <v type="int" >        2       65       86       97      110 </v>
   <v type="int" >        2       65       77       97      110 </v>
   <v type="int" >        2       97      105      109      110 </v>
   <v type="int" >        2       97      101      109      110 </v>
   <v type="int" >        2       77       97      101      110 </v>
   <v type="int" >        2       20       32       65       86 </v>
   <v type="int" >        2       20       32       65       89 </v>
   <v type="int" >        2       32       65       89      106 </v>
   <v type="int" >        2       32       65       86       97 </v>
   <v type="int" >        2       32       65       77       97 </v>
   <v type="int" >        2       32       65       77      106 </v>
   <v type="int" >        2       20       49       54       89 </v>
   <v type="int" >        2       42       49       54       89 </v>
   <v type="int" >        2       42       49       75       89 </v>
   <v type="int" >        2       20       32       49       89 </v>
   <v type="int" >        2       32       49       89      106 </v>
   <v type="int" >        2       49       75       89      106 </v>
   <v type="int" >        2        4       16       19       54 </v>
   <v type="int" >        2       16       19       26       54 </v>
   <v type="int" >        2       19       26       54       92 </v>
   <v type="int" >        2        4        8       19       54 </v>
   <v type="int" >        2        8       19       49       54 </v>
   <v type="int" >        2       19       49       54       92 </v>
   <v type="int" >        2       16       26       28       61 </v>
   <v type="int" >        2       26       28       61       93 </v>
   <v type="int" >        2       26       61       71       93 </v>
   <v type="int" >        2       16       19       26       61 </v>
   <v type="int" >        2       19       26       61       92 </v>
   <v type="int" >        2       26       61       71       92 </v>
   <v type="int" >        2       28       40       73       93 </v>
   <v type="int" >        2       40       73       93      105 </v>
   <v type="int" >        2       73       93      105      109 </v>
   <v type="int" >        2       28       61       73       93 </v>
   <v type="int" >        2       61       71       73       93 </v>
   <v type="int" >        2       71       73       93      109 </v>
   <v type="int" >        2       40       52       76      105 </v>
   <v type="int" >        2       52       76       86      105 </v>
   <v type="int" >        2       76       86       97      105 </v>
   <v type="int" >        2       40       73       76      105 </v>
   <v type="int" >        2       73       76      105      109 </v>
   <v type="int" >        2       76       97      105      109 </v>
   <v type="int" >        2       43       52       55       86 </v>
   <v type="int" >        2       20       43       55       86 </v>
   <v type="int" >        2       20       32       43       86 </v>
   <v type="int" >        2       43       52       76       86 </v>
   <v type="int" >        2       43       76       86       97 </v>
   <v type="int" >        2       32       43       86       97 </v>
   <v type="int" >        2        4        8       20       55 </v>
   <v type="int" >        2        4        8       20       54 </v>
   <v type="int" >        2        8       20       49       54 </v>
   <v type="int" >        2        8       20       43       55 </v>
   <v type="int" >        2        8       20       32       43 </v>
   <v type="int" >        2        8       20       32       49 </v>
   <v type="int" >        2        8       25       44       56 </v>
   <v type="int" >        2        8       19       44       56 </v>
   <v type="int" >        2        8       19       31       44 </v>
   <v type="int" >        2        8       25       37       44 </v>
   <v type="int" >        2        8       12       37       44 </v>
   <v type="int" >        2        8       12       31       44 </v>
   <v type="int" >        2       19       21       56       85 </v>
   <v type="int" >        2       19       21       61       85 </v>
   <v type="int" >        2       19       61       64       85 </v>
   <v type="int" >        2       19       44       56       85 </v>
   <v type="int" >        2       19       31       44       85 </v>
   <v type="int" >        2       19       31       64       85 </v>
   <v type="int" >        2       21       61       66       87 </v>
   <v type="int" >        2       61       66       73       87 </v>
   <v type="int" >        2       61       66       73       82 </v>
   <v type="int" >        2       21       61       66       85 </v>
   <v type="int" >        2       61       64       66       85 </v>
   <v type="int" >        2       61       64       66       82 </v>
   <v type="int" >        2       73       87      100      111 </v>
   <v type="int" >        2       73       76      100      111 </v>
   <v type="int" >        2       64       73       76      111 </v>
   <v type="int" >        2       66       73       87      111 </v>
   <v type="int" >        2       66       73       82      111 </v>
   <v type="int" >        2       64       73       82      111 </v>
   <v type="int" >        2       76       90      100      102 </v>
   <v type="int" >        2       43       76       90      102 </v>
   <v type="int" >        2       31       43       76      102 </v>
   <v type="int" >        2       76      100      102      111 </v>
   <v type="int" >        2       64       76      102      111 </v>
   <v type="int" >        2       31       64       76      102 </v>
   <v type="int" >        2       25       37       43       90 </v>
   <v type="int" >        2        8       25       37       43 </v>
   <v type="int" >        2        8       12       37       43 </v>
   <v type="int" >        2       37       43       90      102 </v>
   <v type="int" >        2       31       37       43      102 </v>
   <v type="int" >        2       12       31       37       43 </v>
   <v type="int" >        2       25       27       60       94 </v>
   <v type="int" >        2       25       27       56       94 </v>
   <v type="int" >        2       25       44       56       94 </v>
   <v type="int" >        2       25       60       70       94 </v>
   <v type="int" >        2       25       37       70       94 </v>
   <v type="int" >        2       25       37       44       94 </v>
   <v type="int" >        2        9       27       48       56 </v>
   <v type="int" >        2        9       21       48       56 </v>
   <v type="int" >        2       21       48       56       85 </v>
   <v type="int" >        2       27       48       56       94 </v>
   <v type="int" >        2       44       48       56       94 </v>
   <v type="int" >        2       44       48       56       85 </v>
   <v type="int" >        2        9       21       33       51 </v>
   <v type="int" >        2       21       33       51       87 </v>
   <v type="int" >        2       21       33       66       87 </v>
   <v type="int" >        2        9       21       33       48 </v>
   <v type="int" >        2       21       33       48       85 </v>
   <v type="int" >        2       21       33       66       85 </v>
   <v type="int" >        2       51       79       87       98 </v>
   <v type="int" >        2       79       87       98      100 </v>
   <v type="int" >        2       87       98      100      111 </v>
   <v type="int" >        2       33       51       87       98 </v>
   <v type="int" >        2       33       66       87       98 </v>
   <v type="int" >        2       66       87       98      111 </v>
   <v type="int" >        2       68       79      100      108 </v>
   <v type="int" >        2       68       90      100      108 </v>
   <v type="int" >        2       90      100      102      108 </v>
   <v type="int" >        2       79       98      100      108 </v>
   <v type="int" >        2       98      100      108      111 </v>
   <v type="int" >        2      100      102      108      111 </v>
   <v type="int" >        2       60       68       70       90 </v>
   <v type="int" >        2       25       60       70       90 </v>
   <v type="int" >        2       25       37       70       90 </v>
   <v type="int" >        2       68       70       90      108 </v>
   <v type="int" >        2       70       90      102      108 </v>
   <v type="int" >        2       37       70       90      102 </v>
   <v type="int" >        2       60       63       72       84 </v>
   <v type="int" >        2       27       60       72       84 </v>
   <v type="int" >        2       27       60       72       94 </v>
   <v type="int" >        2       60       63       72       81 </v>
   <v type="int" >        2       60       70       72       81 </v>
   <v type="int" >        2       60       70       72       94 </v>
   <v type="int" >        2       27       39       45       84 </v>
   <v type="int" >        2        9       27       39       45 </v>
   <v type="int" >        2        9       27       39       48 </v>
   <v type="int" >        2       27       39       72       84 </v>
   <v type="int" >        2       27       39       72       94 </v>
   <v type="int" >        2       27       39       48       94 </v>
   <v type="int" >        2        9       13       36       45 </v>
   <v type="int" >        2        9       13       36       51 </v>
   <v type="int" >        2        9       13       33       51 </v>
   <v type="int" >        2        9       13       39       45 </v>
   <v type="int" >        2        9       13       39       48 </v>
   <v type="int" >        2        9       13       33       48 </v>
   <v type="int" >        2       36       39       51      104 </v>
   <v type="int" >        2       39       51       79      104 </v>
   <v type="int" >        2       39       51       79       98 </v>
   <v type="int" >        2       13       36       39       51 </v>
   <v type="int" >        2       13       33       39       51 </v>
   <v type="int" >        2       33       39       51       98 </v>
   <v type="int" >        2       72       79      104      112 </v>
   <v type="int" >        2       68       72       79      112 </v>
   <v type="int" >        2       68       72       79      108 </v>
   <v type="int" >        2       39       72       79      104 </v>
   <v type="int" >        2       39       72       79       98 </v>
   <v type="int" >        2       72       79       98      108 </v>
   <v type="int" >        2       63       68       81      112 </v>
   <v type="int" >        2       60       63       68       81 </v>
   <v type="int" >        2       60       68       70       81 </v>
   <v type="int" >        2       68       72       81      112 </v>
   <v type="int" >        2       68       72       81      108 </v>
   <v type="int" >        2       68       70       81      108 </v>
   <v type="int" >        2       63       75       96      108 </v>
   <v type="int" >        2       63       84       96      108 </v>
   <v type="int" >        2       63       72       84      108 </v>
   <v type="int" >        2       63       70       75      108 </v>
   <v type="int" >        2       63       70       81      108 </v>
   <v type="int" >        2       63       72       81      108 </v>
   <v type="int" >        2       78       84       96       98 </v>
   <v type="int" >        2       45       78       84       98 </v>
   <v type="int" >        2       39       45       84       98 </v>
   <v type="int" >        2       84       96       98      108 </v>
   <v type="int" >        2       72       84       98      108 </v>
   <v type="int" >        2       39       72       84       98 </v>
   <v type="int" >        2       33       45       78      101 </v>
   <v type="int" >        2       33       36       45      101 </v>
   <v type="int" >        2       13       33       36       45 </v>
   <v type="int" >        2       33       45       78       98 </v>
   <v type="int" >        2       33       39       45       98 </v>
   <v type="int" >        2       13       33       39       45 </v>
   <v type="int" >        2       36       48       77      101 </v>
   <v type="int" >        2       36       48       77      104 </v>
   <v type="int" >        2       36       39       48      104 </v>
   <v type="int" >        2       33       36       48      101 </v>
   <v type="int" >        2       13       33       36       48 </v>
   <v type="int" >        2       13       36       39       48 </v>
   <v type="int" >        2       77       94      104      106 </v>
   <v type="int" >        2       94      104      106      112 </v>
   <v type="int" >        2       72       94      104      112 </v>
   <v type="int" >        2       48       77       94      104 </v>
   <v type="int" >        2       39       48       94      104 </v>
   <v type="int" >        2       39       72       94      104 </v>
   <v type="int" >        2       70       75      106      112 </v>
   <v type="int" >        2       63       70       75      112 </v>
   <v type="int" >        2       63       70       81      112 </v>
   <v type="int" >        2       70       94      106      112 </v>
   <v type="int" >        2       70       72       94      112 </v>
   <v type="int" >        2       70       72       81      112 </v>
   <v type="int" >        2       49       75       92      102 </v>
   <v type="int" >        2       75       92       96      102 </v>
   <v type="int" >        2       75       96      102      108 </v>
   <v type="int" >        2       37       49       75      102 </v>
   <v type="int" >        2       37       70       75      102 </v>
   <v type="int" >        2       70       75      102      108 </v>
   <v type="int" >        2       71       92       96      111 </v>
   <v type="int" >        2       71       78       96      111 </v>
   <v type="int" >        2       78       96       98      111 </v>
   <v type="int" >        2       92       96      102      111 </v>
   <v type="int" >        2       96      102      108      111 </v>
   <v type="int" >        2       96       98      108      111 </v>
   <v type="int" >        2       66       71       78      109 </v>
   <v type="int" >        2       66       78      101      109 </v>
   <v type="int" >        2       33       66       78      101 </v>
   <v type="int" >        2       66       71       78      111 </v>
   <v type="int" >        2       66       78       98      111 </v>
   <v type="int" >        2       33       66       78       98 </v>
   <v type="int" >        2       85       97      101      109 </v>
   <v type="int" >        2       77       85       97      101 </v>
   <v type="int" >        2       48       77       85      101 </v>
   <v type="int" >        2       66       85      101      109 </v>
   <v type="int" >        2       33       66       85      101 </v>
   <v type="int" >        2       33       48       85      101 </v>
   <v type="int" >        2       32       44       77       97 </v>
   <v type="int" >        2       32       44       77      106 </v>
   <v type="int" >        2       44       77       94      106 </v>
   <v type="int" >        2       44       77       85       97 </v>
   <v type="int" >        2       44       48       77       85 </v>
   <v type="int" >        2       44       48       77       94 </v>
   <v type="int" >        2       32       37       49      106 </v>
   <v type="int" >        2       37       49       75      106 </v>
   <v type="int" >        2       37       70       75      106 </v>
   <v type="int" >        2       32       37       44      106 </v>
   <v type="int" >        2       37       44       94      106 </v>
   <v type="int" >        2       37       70       94      106 </v>
   <v type="int" >        2        8       19       31       49 </v>
   <v type="int" >        2       19       31       49       92 </v>
   <v type="int" >        2       31       49       92      102 </v>
   <v type="int" >        2        8       12       31       49 </v>
   <v type="int" >        2       12       31       37       49 </v>
   <v type="int" >        2       31       37       49      102 </v>
   <v type="int" >        2       19       61       64       92 </v>
   <v type="int" >        2       61       64       71       92 </v>
   <v type="int" >        2       64       71       92      111 </v>
   <v type="int" >        2       19       31       64       92 </v>
   <v type="int" >        2       31       64       92      102 </v>
   <v type="int" >        2       64       92      102      111 </v>
   <v type="int" >        2       61       71       73       82 </v>
   <v type="int" >        2       71       73       82      109 </v>
   <v type="int" >        2       66       71       82      109 </v>
   <v type="int" >        2       61       64       71       82 </v>
   <v type="int" >        2       64       71       82      111 </v>
   <v type="int" >        2       66       71       82      111 </v>
   <v type="int" >        2       64       73       76      109 </v>
   <v type="int" >        2       64       76       97      109 </v>
   <v type="int" >        2       64       85       97      109 </v>
   <v type="int" >        2       64       73       82      109 </v>
   <v type="int" >        2       64       66       82      109 </v>
   <v type="int" >        2       64       66       85      109 </v>
   <v type="int" >        2       31       43       76       97 </v>
   <v type="int" >        2       31       32       43       97 </v>
   <v type="int" >        2       31       32       44       97 </v>
   <v type="int" >        2       31       64       76       97 </v>
   <v type="int" >        2       31       64       85       97 </v>
   <v type="int" >        2       31       44       85       97 </v>
   <v type="int" >        2        8       12       32       43 </v>
   <v type="int" >        2        8       12       32       49 </v>
   <v type="int" >        2       12       32       37       49 </v>
   <v type="int" >        2       12       31       32       43 </v>
   <v type="int" >        2       12       31       32       44 </v>
   <v type="int" >        2       12       32       37       44 </v>
  </varray>
  <i name="volumeweight">      0.00077160 </i>
 </kpoints>
 <parameters>
  <separator name="general" >
   <i type="string" name="SYSTEM">unknown system</i>
   <i type="logical" name="LCOMPAT"> F  </i>
  </separator>
  <separator name="electronic" >
   <i type="string" name="PREC">accura</i>
   <i name="ENMAX">    680.00000000</i>
   <i name="ENAUG">   1360.00000000</i>
   <i name="EDIFF">      0.00001000</i>
   <i type="int" name="IALGO">    38</i>
   <i type="int" name="IWAVPR">    10</i>
   <i type="int" name="NBANDS">    10</i>
   <i type="int" name="NBANDSLOW">    -1</i>
   <i type="int" name="NBANDSHIGH">    -1</i>
   <i name="NELECT">      8.00000000</i>
   <i type="int" name="TURBO">     0</i>
   <i type="int" name="IRESTART">     0</i>
   <i type="int" name="NREBOOT">     0</i>
   <i type="int" name="NMIN">     0</i>
   <i name="EREF">      0.00000000</i>
   <separator name="electronic smearing" >
    <i type="int" name="ISMEAR">    -5</i>
    <i name="SIGMA">      0.05000000</i>
    <i name="KSPACING">      0.50000000</i>
    <i type="logical" name="KGAMMA"> T  </i>
    <i type="logical" name="KBLOWUP"> T  </i>
   </separator>
   <separator name="electronic projectors" >
    <i type="logical" name="LREAL"> T  </i>
    <v name="ROPT">     -0.00025000</v>
    <i type="int" name="LMAXPAW">  -100</i>
    <i type="int" name="LMAXMIX">     2</i>
    <i type="logical" name="NLSPLINE"> F  </i>
   </separator>
   <separator name="electronic startup" >
    <i type="int" name="ISTART">     0</i>
    <i type="int" name="ICHARG">    11</i>
    <i type="int" name="INIWAV">     1</i>
   </separator>
   <separator name="electronic spin" >
    <i type="int" name="ISPIN">     1</i>
    <i type="logical" name="LNONCOLLINEAR"> F  </i>
    <v name="MAGMOM">      1.00000000      1.00000000</v>
    <i name="NUPDOWN">     -1.00000000</i>
    <i type="logical" name="LSORBIT"> F  </i>
    <v name="SAXIS">      0.00000000      0.00000000      1.00000000</v>
    <i type="logical" name="LSPIRAL"> F  </i>
    <v name="QSPIRAL">      0.00000000      0.00000000      0.00000000</v>
    <i type="logical" name="LZEROZ"> F  </i>
   </separator>
   <separator name="electronic exchange-correlation" >
    <i type="logical" name="LASPH"> T  </i>
    <i type="logical" name="LMETAGGA"> F  </i>
   </separator>
   <separator name="electronic convergence" >
    <i type="int" name="NELM">   200</i>
    <i type="int" name="NELMDL">    -5</i>
    <i type="int" name="NELMIN">     2</i>
    <i name="ENINI">    680.00000000</i>
    <separator name="electronic convergence detail" >
     <i type="logical" name="LDIAG"> T  </i>
     <i type="logical" name="LSUBROT"> F  </i>
     <i name="WEIMIN">      0.00000000</i>
     <i name="EBREAK">      0.00000025</i>
     <i name="DEPER">      0.30000000</i>
     <i type="int" name="NRMM">     4</i>
     <i name="TIME">      0.40000000</i>
    </separator>
   </separator>
   <separator name="electronic mixer" >
    <i name="AMIX">      0.40000000</i>
    <i name="BMIX">      1.00000000</i>
    <i name="AMIN">      0.10000000</i>
    <i name="AMIX_MAG">      1.60000000</i>
    <i name="BMIX_MAG">      1.00000000</i>
    <separator name="electronic mixer details" >
     <i type="int" name="IMIX">     4</i>
     <i type="logical" name="MIXFIRST"> F  </i>
     <i type="int" name="MAXMIX">   -45</i>
     <i name="WC">    100.00000000</i>
     <i type="int" name="INIMIX">     1</i>
     <i type="int" name="MIXPRE">     1</i>
     <i type="int" name="MREMOVE">     5</i>
    </separator>
   </separator>
   <separator name="electronic dipolcorrection" >
    <i type="logical" name="LDIPOL"> F  </i>
    <i type="logical" name="LMONO"> F  </i>
    <i type="int" name="IDIPOL">     0</i>
    <i name="EPSILON">      1.00000000</i>
    <v name="DIPOL">   -100.00000000   -100.00000000   -100.00000000</v>
    <i name="EFIELD">      0.00000000</i>
   </separator>
  </separator>
  <separator name="grids" >
   <i type="int" name="NGX">    36</i>
   <i type="int" name="NGY">    36</i>
   <i type="int" name="NGZ">    36</i>
   <i type="int" name="NGXF">    72</i>
   <i type="int" name="NGYF">    72</i>
   <i type="int" name="NGZF">    72</i>
   <i type="logical" name="ADDGRID"> F  </i>
  </separator>
  <separator name="ionic" >
   <i type="int" name="NSW">     0</i>
   <i type="int" name="IBRION">    -1</i>
   <i type="int" name="MDALGO">     0</i>
   <i type="int" name="ISIF">     3</i>
   <i name="PSTRESS">      0.00000000</i>
   <i name="EDIFFG">     -0.02000000</i>
   <i type="int" name="NFREE">     0</i>
   <i name="POTIM">      0.50000000</i>
   <i name="SMASS">     -3.00000000</i>
   <i name="SCALEE">      1.00000000</i>
  </separator>
  <separator name="ionic md" >
   <i name="TEBEG">      0.00010000</i>
   <i name="TEEND">      0.00010000</i>
   <i type="int" name="NBLOCK">     1</i>
   <i type="int" name="KBLOCK">     1</i>
   <i type="int" name="NPACO">   256</i>
   <i name="APACO">     16.00000000</i>
  </separator>
  <separator name="symmetry" >
   <i type="int" name="ISYM">     2</i>
   <i name="SYMPREC">      0.00001000</i>
  </separator>
  <separator name="dos" >
   <i type="int" name="LORBIT">    11</i>
   <v name="RWIGS">     -1.00000000</v>
   <i type="int" name="NEDOS">  4362</i>
   <i name="EMIN">     10.00000000</i>
   <i name="EMAX">    -10.00000000</i>
   <i name="EFERMI">      0.00000000</i>
  </separator>
  <separator name="writing" >
   <i type="int" name="NWRITE">     2</i>
   <i type="logical" name="LWAVE"> F  </i>
   <i type="logical" name="LDOWNSAMPLE"> F  </i>
   <i type="logical" name="LCHARG"> F  </i>
   <i type="logical" name="LPARD"> F  </i>
   <i type="logical" name="LVTOT"> T  </i>
   <i type="logical" name="LVHAR"> F  </i>
   <i type="logical" name="LELF"> T  </i>
   <i type="logical" name="LOPTICS"> F  </i>
   <v name="STM">      0.00000000      0.00000000      0.00000000      0.00000000      0.00000000      0.00000000      0.00000000</v>
  </separator>
  <separator name="performance" >
   <i type="int" name="NPAR">     1</i>
   <i type="int" name="NSIM">     4</i>
   <i type="int" name="NBLK">    -1</i>
   <i type="logical" name="LPLANE"> T  </i>
   <i type="logical" name="LSCALAPACK"> F  </i>
   <i type="logical" name="LSCAAWARE"> F  </i>
   <i type="logical" name="LSCALU"> F  </i>
   <i type="logical" name="LASYNC"> F  </i>
   <i type="logical" name="LORBITALREAL"> F  </i>
  </separator>
  <separator name="miscellaneous" >
   <i type="int" name="IDIOT">     3</i>
   <i type="int" name="PHON_NSTRUCT">    -1</i>
   <i type="logical" name="LMUSIC"> F  </i>
   <v name="POMASS">     28.08500000</v>
   <v name="DARWINR">      0.00000000</v>
   <v name="DARWINV">      1.00000000</v>
   <i type="logical" name="LCORR"> T  </i>
  </separator>
  <i type="logical" name="GGA_COMPAT"> T  </i>
  <i type="logical" name="LBERRY"> F  </i>
  <i type="int" name="ICORELEVEL">     0</i>
  <i type="logical" name="LDAU"> F  </i>
  <i type="int" name="I_CONSTRAINED_M">     0</i>
  <separator name="electronic exchange-correlation" >
   <i type="string" name="GGA">--</i>
   <i type="int" name="VOSKOWN">     0</i>
   <i type="logical" name="LHFCALC"> F  </i>
   <i type="string" name="PRECFOCK"></i>
   <i type="logical" name="LSYMGRAD"> F  </i>
   <i type="logical" name="LHFONE"> F  </i>
   <i type="logical" name="LRHFCALC"> F  </i>
   <i type="logical" name="LTHOMAS"> F  </i>
   <i type="logical" name="LMODELHF"> F  </i>
   <i type="logical" name="LFOCKACE"> F  </i>
   <i name="ENCUT4O">     -1.00000000</i>
   <i type="int" name="EXXOEP">     0</i>
   <i type="int" name="FOURORBIT">     0</i>
   <i name="AEXX">      0.00000000</i>
   <i name="HFALPHA">      0.00000000</i>
   <i name="MCALPHA">      0.00000000</i>
   <i name="ALDAX">      1.00000000</i>
   <i name="AGGAX">      1.00000000</i>
   <i name="ALDAC">      1.00000000</i>
   <i name="AGGAC">      1.00000000</i>
   <i type="int" name="NKREDX">     1</i>
   <i type="int" name="NKREDY">     1</i>
   <i type="int" name="NKREDZ">     1</i>
   <i type="logical" name="SHIFTRED"> F  </i>
   <i type="logical" name="ODDONLY"> F  </i>
   <i type="logical" name="EVENONLY"> F  </i>
   <i type="int" name="LMAXFOCK">     0</i>
   <i type="int" name="NMAXFOCKAE">     0</i>
   <i type="logical" name="LFOCKAEDFT"> F  </i>
   <i name="HFSCREEN">      0.00000000</i>
   <i name="HFSCREENC">      0.00000000</i>
   <i type="int" name="NBANDSGWLOW">     0</i>
  </separator>
  <separator name="vdW DFT" >
   <i type="logical" name="LUSE_VDW"> F  </i>
   <i name="Zab_VDW">     -0.84910000</i>
   <i name="PARAM1">      0.12340000</i>
   <i name="PARAM2">      1.00000000</i>
   <i name="PARAM3">      0.00000000</i>
  </separator>
  <separator name="model GW" >
   <i type="int" name="MODEL_GW">     0</i>
   <i name="MODEL_EPS0">     12.26648953</i>
   <i name="MODEL_ALPHA">      1.00000000</i>
  </separator>
  <separator name="linear response parameters" >
   <i type="logical" name="LEPSILON"> F  </i>
   <i type="logical" name="LRPA"> F  </i>
   <i type="logical" name="LNABLA"> F  </i>
   <i type="logical" name="LVEL"> F  </i>
   <i type="int" name="KINTER">     0</i>
   <i name="CSHIFT">      0.10000000</i>
   <i name="OMEGAMAX">     -1.00000000</i>
   <i name="DEG_THRESHOLD">      0.00200000</i>
   <i name="RTIME">     -0.10000000</i>
   <i name="WPLASMAI">      0.00000000</i>
   <v name="DFIELD">      0.00000000      0.00000000      0.00000000</v>
   <v name="WPLASMA">      0.00000000      0.00000000      0.00000000      0.00000000      0.00000000      0.00000000      0.00000000      0.00000000      0.00000000</v>
  </separator>
  <separator name="orbital magnetization" >
   <i type="logical" name="NUCIND"> F  </i>
   <v name="MAGPOS">      0.00000000      0.00000000      0.00000000</v>
   <i type="logical" name="LNICSALL"> T  </i>
   <i type="logical" name="ORBITALMAG"> F  </i>
   <i type="logical" name="LMAGBLOCH"> F  </i>
   <i type="logical" name="LCHIMAG"> F  </i>
   <i type="logical" name="LGAUGE"> T  </i>
   <i type="int" name="MAGATOM">     0</i>
   <v name="MAGDIPOL">      0.00000000      0.00000000      0.00000000</v>
   <v name="AVECCONST">      0.00000000      0.00000000      0.00000000</v>
  </separator>
  <separator name="response functions" >
   <i type="logical" name="LFINITE_TEMPERATURE"> F  </i>
   <i type="logical" name="LADDER"> F  </i>
   <i type="logical" name="LRPAFORCE"> F  </i>
   <i type="logical" name="LFXC"> F  </i>
   <i type="logical" name="LHARTREE"> T  </i>
   <i type="int" name="IBSE">     0</i>
   <v type="int" name="KPOINT">    -1     0     0     0</v>
   <i type="logical" name="LTCTC"> F  </i>
   <i type="logical" name="LTCTE"> F  </i>
   <i type="logical" name="LTETE"> F  </i>
   <i type="logical" name="LTRIPLET"> F  </i>
   <i type="logical" name="LFXCEPS"> F  </i>
   <i type="logical" name="LFXHEG"> F  </i>
   <i type="int" name="NATURALO">     2</i>
   <i type="logical" name="LHOLEGF"> F  </i>
   <i type="logical" name="L2ORDER"> F  </i>
   <i type="logical" name="LDMP1"> F  </i>
   <i type="logical" name="LMP2LT"> F  </i>
   <i type="logical" name="LSMP2LT"> F  </i>
   <i type="logical" name="LGWLF"> F  </i>
   <i name="ENCUTGW">     -2.00000000</i>
   <i name="ENCUTGWSOFT">     -2.00000000</i>
   <i name="ENCUTLF">     -1.00000000</i>
   <i type="logical" name="LESF_SPLINES"> F  </i>
   <i type="int" name="LMAXMP2">    -1</i>
   <i name="SCISSOR">      0.00000000</i>
   <i type="int" name="NOMEGA">     0</i>
   <i type="int" name="NOMEGAR">     0</i>
   <i type="int" name="NBANDSGW">    -1</i>
   <i type="int" name="NBANDSO">    -1</i>
   <i type="int" name="NBANDSV">    -1</i>
   <i type="int" name="NELM">   200</i>
   <i type="int" name="NELMHF">     1</i>
   <i type="int" name="DIM">     3</i>
   <i type="int" name="IESPILON">     4</i>
   <i type="int" name="ANTIRES">     0</i>
   <i name="OMEGAMAX">    -30.00000000</i>
   <i name="OMEGAMIN">    -30.00000000</i>
   <i name="OMEGATL">   -200.00000000</i>
   <i type="int" name="OMEGAGRID">     0</i>
   <i name="CSHIFT">     -0.10000000</i>
   <i type="logical" name="LSELFENERGY"> F  </i>
   <i type="logical" name="LSPECTRAL"> F  </i>
   <i type="logical" name="LSPECTRALGW"> F  </i>
   <i type="logical" name="LSINGLES"> F  </i>
   <i type="logical" name="LFERMIGW"> F  </i>
   <i type="logical" name="ODDONLYGW"> F  </i>
   <i type="logical" name="EVENONLYGW"> F  </i>
   <i type="int" name="NKREDLFX">     1</i>
   <i type="int" name="NKREDLFY">     1</i>
   <i type="int" name="NKREDLFZ">     1</i>
   <i type="int" name="MAXMEM">  2800</i>
   <i type="int" name="TELESCOPE">     0</i>
   <i type="int" name="NTAUPAR">    -1</i>
   <i type="int" name="NOMEGAPAR">    -1</i>
   <i name="DAMP_NEWTON">      0.80000001</i>
   <i name="LAMBDA">      1.00000000</i>
  </separator>
  <separator name="External order field" >
   <i name="OFIELD_KAPPA">      0.00000000</i>
   <v name="OFIELD_K">      0.00000000      0.00000000      0.00000000</v>
   <i name="OFIELD_Q6_NEAR">      0.00000000</i>
   <i name="OFIELD_Q6_FAR">      0.00000000</i>
   <i name="OFIELD_A">      0.00000000</i>
  </separator>
 </parameters>
 <atominfo>
  <atoms>       2 </atoms>
  <types>       1 </types>
  <array name="atoms" >
   <dimension dim="1">ion</dimension>
   <field type="string">element</field>
   <field type="int">atomtype</field>
   <set>
    <rc><c>Si</c><c>   1</c></rc>
    <rc><c>Si</c><c>   1</c></rc>
   </set>
  </array>
  <array name="atomtypes" >
   <dimension dim="1">type</dimension>
   <field type="int">atomspertype</field>
   <field type="string">element</field>
   <field>mass</field>
   <field>valence</field>
   <field type="string">pseudopotential</field>
   <set>
    <rc><c>   2</c><c>Si</c><c>     28.08500000</c><c>      4.00000000</c><c>  PAW_PBE Si 05Jan2001                  </c></rc>
   </set>
  </array>
 </atominfo>
 <structure name="initialpos" >
  <crystal>
   <varray name="basis" >
    <v>       3.34889800       0.00000000       1.93348700 </v>
    <v>       1.11629900       3.15737200       1.93348700 </v>
    <v>       0.00000000       0.00000000       3.86697500 </v>
   </varray>
   <i name="volume">     40.88829843 </i>
   <varray name="rec_basis" >
    <v>       0.29860569      -0.10557300       0.00000000 </v>
    <v>       0.00000000       0.31671909       0.00000000 </v>
    <v>      -0.14930281      -0.10557302       0.25860007 </v>
   </varray>
  </crystal>
  <varray name="positions" >
   <v>       0.25084800       0.23780500       0.25213200 </v>
   <v>       0.99915200       0.01219500       0.99786800 </v>
  </varray>
 </structure>
 <calculation>
  <scstep>
   <time name="dav">    1.83    1.84</time>
   <time name="total">    1.92    1.93</time>
   <energy>
    <i name="alphaZ">      3.29317992 </i>
    <i name="ewald">   -226.86490019 </i>
    <i name="hartreedc">    -15.23906741 </i>
    <i name="XCdc">    -18.05432012 </i>
    <i name="pawpsdc">    833.41437137 </i>
    <i name="pawaedc">   -798.43624313 </i>
    <i name="eentropy">      0.00000000 </i>
    <i name="bandstr">     24.04282702 </i>
    <i name="atom">    206.13322186 </i>
    <i name="e_fr_energy">      8.28906931 </i>
    <i name="e_wo_entrp">      8.28906931 </i>
    <i name="e_0_energy">      8.28906931 </i>
   </energy>
  </scstep>
  <scstep>
   <time name="dav">    2.74    2.75</time>
   <time name="total">    2.75    2.77</time>
   <energy>
    <i name="e_fr_energy">    -10.19228889 </i>
    <i name="e_wo_entrp">    -10.19228889 </i>
    <i name="e_0_energy">    -10.19228889 </i>
   </energy>
  </scstep>
  <scstep>
   <time name="dav">    2.43    2.45</time>
   <time name="total">    2.44    2.46</time>
   <energy>
    <i name="e_fr_energy">    -10.77729807 </i>
    <i name="e_wo_entrp">    -10.77729807 </i>
    <i name="e_0_energy">    -10.77729807 </i>
   </energy>
  </scstep>
  <scstep>
   <time name="dav">    2.48    2.49</time>
   <time name="total">    2.49    2.50</time>
   <energy>
    <i name="e_fr_energy">    -10.78225332 </i>
    <i name="e_wo_entrp">    -10.78225332 </i>
    <i name="e_0_energy">    -10.78225332 </i>
   </energy>
  </scstep>
  <scstep>
   <time name="dav">    2.47    2.49</time>
   <time name="total">    2.49    2.50</time>
   <energy>
    <i name="e_fr_energy">    -10.78229087 </i>
    <i name="e_wo_entrp">    -10.78229087 </i>
    <i name="e_0_energy">    -10.78229087 </i>
   </energy>
  </scstep>
  <scstep>
   <time name="dav">    2.68    2.70</time>
   <time name="total">    2.69    2.71</time>
   <energy>
    <i name="alphaZ">      3.29317992 </i>
    <i name="ewald">   -226.86490019 </i>
    <i name="hartreedc">    -15.23906741 </i>
    <i name="XCdc">    -18.05432012 </i>
    <i name="pawpsdc">    833.41437137 </i>
    <i name="pawaedc">   -798.43624313 </i>
    <i name="eentropy">      0.00000000 </i>
    <i name="bandstr">      4.97146641 </i>
    <i name="atom">    206.13322186 </i>
    <i name="e_fr_energy">    -10.78229130 </i>
    <i name="e_wo_entrp">    -10.78229130 </i>
    <i name="e_0_energy">    -10.78229130 </i>
   </energy>
  </scstep>
  <structure>
   <crystal>
    <varray name="basis" >
     <v>       3.34889800       0.00000000       1.93348700 </v>
     <v>       1.11629900       3.15737200       1.93348700 </v>
     <v>       0.00000000       0.00000000       3.86697500 </v>
    </varray>
    <i name="volume">     40.88829843 </i>
    <varray name="rec_basis" >
     <v>       0.29860569      -0.10557300       0.00000000 </v>
     <v>       0.00000000       0.31671909       0.00000000 </v>
     <v>      -0.14930281      -0.10557302       0.25860007 </v>
    </varray>
   </crystal>
   <varray name="positions" >
    <v>       0.25084800       0.23780500       0.25213200 </v>
    <v>       0.99915200       0.01219500       0.99786800 </v>
   </varray>
  </structure>
  <varray name="forces" >
   <v>       0.31983996       0.91062099       0.41945360 </v>
   <v>      -0.31983996      -0.91062099      -0.41945360 </v>
  </varray>
  <varray name="stress" >
   <v>       9.82325830       4.30565684       9.47111183 </v>
   <v>       4.30565681     -25.42224652       5.76585927 </v>
   <v>       9.47111194       5.76585915      24.49515323 </v>
  </varray>
  <energy>
   <i name="e_fr_energy">    -10.78229130 </i>
   <i name="e_wo_entrp">    -10.78229130 </i>
   <i name="e_0_energy">    -10.78229130 </i>
  </energy>
  <time name="totalsc">   17.14   17.24</time>
  <eigenvalues>
   <array>
    <dimension dim="1">band</dimension>
    <dimension dim="2">kpoint</dimension>
    <dimension dim="3">spin</dimension>
    <field>eigene</field>
    <field>occ</field>
    <set>
     <set comment="spin 1">
      <set comment="kpoint 1">
       <r>   -6.2001    1.0000 </r>
       <r>    5.2696    1.0000 </r>
       <r>    5.5545    1.0000 </r>
       <r>    6.0674    1.0000 </r>
       <r>    7.9202    0.0000 </r>
       <r>    8.1959    0.0000 </r>
       <r>    8.3840    0.0000 </r>
       <r>    8.7495    0.0000 </r>
       <r>   13.3292    0.0000 </r>
       <r>   13.3495    0.0000 </r>
      </set>
      <set comment="kpoint 2">
       <r>   -5.8453    1.0000 </r>
       <r>    3.2254    1.0000 </r>
       <r>    4.9177    1.0000 </r>
       <r>    5.4885    1.0000 </r>
       <r>    7.8919    0.0000 </r>
       <r>    8.6064    0.0000 </r>
       <r>    9.0225    0.0000 </r>
       <r>   10.8903    0.0000 </r>
       <r>   12.6639    0.0000 </r>
       <r>   12.7340    0.0000 </r>
      </set>
      <set comment="kpoint 3">
       <r>   -5.8542    1.0000 </r>
       <r>    3.4956    1.0000 </r>
       <r>    4.9224    1.0000 </r>
       <r>    5.1621    1.0000 </r>
       <r>    7.7717    0.0000 </r>
       <r>    8.7012    0.0000 </r>
       <r>    8.9050    0.0000 </r>
       <r>   10.9900    0.0000 </r>
       <r>   12.7918    0.0000 </r>
       <r>   12.8383    0.0000 </r>
      </set>
      <set comment="kpoint 4">
       <r>   -5.8445    1.0000 </r>
       <r>    3.1992    1.0000 </r>
       <r>    4.9393    1.0000 </r>
       <r>    5.4959    1.0000 </r>
       <r>    7.9070    0.0000 </r>
       <r>    8.6103    0.0000 </r>
       <r>    9.0188    0.0000 </r>
       <r>   10.8810    0.0000 </r>
       <r>   12.6561    0.0000 </r>
       <r>   12.7197    0.0000 </r>
      </set>
      <set comment="kpoint 5">
       <r>   -5.8396    1.0000 </r>
       <r>    3.0622    1.0000 </r>
       <r>    5.0894    1.0000 </r>
       <r>    5.4912    1.0000 </r>
       <r>    8.0029    0.0000 </r>
       <r>    8.6787    0.0000 </r>
       <r>    8.9476    0.0000 </r>
       <r>   10.8266    0.0000 </r>
       <r>   12.6124    0.0000 </r>
       <r>   12.6407    0.0000 </r>
      </set>
      <set comment="kpoint 6">
       <r>   -4.8491    1.0000 </r>
       <r>    0.3316    1.0000 </r>
       <r>    4.3902    1.0000 </r>
       <r>    4.9185    1.0000 </r>
       <r>    7.3065    0.0000 </r>
       <r>    8.8326    0.0000 </r>
       <r>    9.4266    0.0000 </r>
       <r>   13.3307    0.0000 </r>
       <r>   13.4689    0.0000 </r>
       <r>   13.7192    0.0000 </r>
      </set>
      <set comment="kpoint 7">
       <r>   -4.8994    1.0000 </r>
       <r>    0.5820    1.0000 </r>
       <r>    4.4352    1.0000 </r>
       <r>    4.6613    1.0000 </r>
       <r>    7.2112    0.0000 </r>
       <r>    8.8768    0.0000 </r>
       <r>    9.1351    0.0000 </r>
       <r>   13.3357    0.0000 </r>
       <r>   13.7211    0.0000 </r>
       <r>   13.8139    0.0000 </r>
      </set>
      <set comment="kpoint 8">
       <r>   -4.8439    1.0000 </r>
       <r>    0.3069    1.0000 </r>
       <r>    4.4050    1.0000 </r>
       <r>    4.9218    1.0000 </r>
       <r>    7.3179    0.0000 </r>
       <r>    8.8476    0.0000 </r>
       <r>    9.4366    0.0000 </r>
       <r>   13.3221    0.0000 </r>
       <r>   13.4641    0.0000 </r>
       <r>   13.6964    0.0000 </r>
[...]
        <r>  0.0079  0.0356  0.0208  0.0195  0.0000  0.0000  0.0000  0.0000  0.0000 </r>
       </set>
       <set comment="band 7">
        <r>  0.0231  0.0003  0.0648  0.0257  0.0000  0.0000  0.0000  0.0000  0.0000 </r>
        <r>  0.0231  0.0003  0.0648  0.0257  0.0000  0.0000  0.0000  0.0000  0.0000 </r>
       </set>
       <set comment="band 8">
        <r>  0.0359  0.0107  0.0480  0.0630  0.0000  0.0000  0.0000  0.0000  0.0000 </r>
        <r>  0.0359  0.0106  0.0480  0.0630  0.0000  0.0000  0.0000  0.0000  0.0000 </r>
       </set>
       <set comment="band 9">
        <r>  0.0193  0.0348  0.0258  0.0631  0.0000  0.0000  0.0000  0.0000  0.0000 </r>
        <r>  0.0193  0.0348  0.0258  0.0631  0.0000  0.0000  0.0000  0.0000  0.0000 </r>
       </set>
       <set comment="band 10">
        <r>  0.0091  0.0073  0.0423  0.0141  0.0000  0.0000  0.0000  0.0000  0.0000 </r>
        <r>  0.0059  0.0190  0.0486  0.0162  0.0000  0.0000  0.0000  0.0000  0.0000 </r>
       </set>
      </set>
      <set comment="kpoint 105">
       <set comment="band 1">
        <r>  0.2165  0.0070  0.0043  0.0151  0.0000  0.0000  0.0000  0.0000  0.0000 </r>
        <r>  0.2165  0.0070  0.0043  0.0151  0.0000  0.0000  0.0000  0.0000  0.0000 </r>
       </set>
       <set comment="band 2">
        <r>  0.1633  0.0074  0.0039  0.0549  0.0000  0.0000  0.0000  0.0000  0.0000 </r>
        <r>  0.1633  0.0074  0.0039  0.0549  0.0000  0.0000  0.0000  0.0000  0.0000 </r>
       </set>
       <set comment="band 3">
        <r>  0.0202  0.0592  0.0421  0.0448  0.0000  0.0000  0.0000  0.0000  0.0000 </r>
        <r>  0.0202  0.0592  0.0421  0.0448  0.0000  0.0000  0.0000  0.0000  0.0000 </r>
       </set>
       <set comment="band 4">
        <r>  0.0011  0.0630  0.1065  0.0098  0.0000  0.0000  0.0000  0.0000  0.0000 </r>
        <r>  0.0011  0.0630  0.1065  0.0098  0.0000  0.0000  0.0000  0.0000  0.0000 </r>
       </set>
       <set comment="band 5">
        <r>  0.0121  0.0342  0.0529  0.0064  0.0000  0.0000  0.0000  0.0000  0.0000 </r>
        <r>  0.0121  0.0342  0.0529  0.0064  0.0000  0.0000  0.0000  0.0000  0.0000 </r>
       </set>
       <set comment="band 6">
        <r>  0.0655  0.0347  0.0346  0.0113  0.0000  0.0000  0.0000  0.0000  0.0000 </r>
        <r>  0.0655  0.0347  0.0346  0.0113  0.0000  0.0000  0.0000  0.0000  0.0000 </r>
       </set>
       <set comment="band 7">
        <r>  0.0163  0.0233  0.0247  0.0471  0.0000  0.0000  0.0000  0.0000  0.0000 </r>
        <r>  0.0163  0.0233  0.0247  0.0471  0.0000  0.0000  0.0000  0.0000  0.0000 </r>
       </set>
       <set comment="band 8">
        <r>  0.0298  0.0557  0.0067  0.0549  0.0000  0.0000  0.0000  0.0000  0.0000 </r>
        <r>  0.0298  0.0557  0.0067  0.0549  0.0000  0.0000  0.0000  0.0000  0.0000 </r>
       </set>
       <set comment="band 9">
        <r>  0.0107  0.0559  0.0576  0.0030  0.0000  0.0000  0.0000  0.0000  0.0000 </r>
        <r>  0.0107  0.0559  0.0576  0.0030  0.0000  0.0000  0.0000  0.0000  0.0000 </r>
       </set>
       <set comment="band 10">
        <r>  0.0057  0.0083  0.0011  0.0856  0.0000  0.0000  0.0000  0.0000  0.0000 </r>
        <r>  0.0054  0.0080  0.0013  0.0878  0.0000  0.0000  0.0000  0.0000  0.0000 </r>
       </set>
      </set>
      <set comment="kpoint 106">
       <set comment="band 1">
        <r>  0.2149  0.0075  0.0124  0.0070  0.0000  0.0000  0.0000  0.0000  0.0000 </r>
        <r>  0.2149  0.0075  0.0124  0.0070  0.0000  0.0000  0.0000  0.0000  0.0000 </r>
       </set>
       <set comment="band 2">
        <r>  0.1664  0.0074  0.0366  0.0211  0.0000  0.0000  0.0000  0.0000  0.0000 </r>
        <r>  0.1664  0.0074  0.0366  0.0211  0.0000  0.0000  0.0000  0.0000  0.0000 </r>
       </set>
       <set comment="band 3">
        <r>  0.0186  0.0593  0.0716  0.0192  0.0000  0.0000  0.0000  0.0000  0.0000 </r>
        <r>  0.0186  0.0593  0.0716  0.0192  0.0000  0.0000  0.0000  0.0000  0.0000 </r>
       </set>
       <set comment="band 4">
        <r>  0.0013  0.0626  0.0099  0.1032  0.0000  0.0000  0.0000  0.0000  0.0000 </r>
        <r>  0.0013  0.0626  0.0099  0.1032  0.0000  0.0000  0.0000  0.0000  0.0000 </r>
       </set>
       <set comment="band 5">
        <r>  0.0228  0.0244  0.0287  0.0347  0.0000  0.0000  0.0000  0.0000  0.0000 </r>
        <r>  0.0228  0.0244  0.0287  0.0347  0.0000  0.0000  0.0000  0.0000  0.0000 </r>
       </set>
       <set comment="band 6">
        <r>  0.0485  0.0401  0.0022  0.0428  0.0000  0.0000  0.0000  0.0000  0.0000 </r>
        <r>  0.0485  0.0401  0.0022  0.0428  0.0000  0.0000  0.0000  0.0000  0.0000 </r>
       </set>
       <set comment="band 7">
        <r>  0.0203  0.0154  0.0711  0.0039  0.0000  0.0000  0.0000  0.0000  0.0000 </r>
        <r>  0.0203  0.0154  0.0711  0.0039  0.0000  0.0000  0.0000  0.0000  0.0000 </r>
       </set>
       <set comment="band 8">
        <r>  0.0300  0.0661  0.0466  0.0113  0.0000  0.0000  0.0000  0.0000  0.0000 </r>
        <r>  0.0300  0.0661  0.0466  0.0113  0.0000  0.0000  0.0000  0.0000  0.0000 </r>
       </set>
       <set comment="band 9">
        <r>  0.0160  0.0583  0.0152  0.0442  0.0000  0.0000  0.0000  0.0000  0.0000 </r>
        <r>  0.0160  0.0583  0.0152  0.0442  0.0000  0.0000  0.0000  0.0000  0.0000 </r>
       </set>
       <set comment="band 10">
        <r>  0.0057  0.0075  0.0523  0.0270  0.0000  0.0000  0.0000  0.0000  0.0000 </r>
        <r>  0.0058  0.0076  0.0522  0.0269  0.0000  0.0000  0.0000  0.0000  0.0000 </r>
       </set>
      </set>
      <set comment="kpoint 107">
       <set comment="band 1">
        <r>  0.2083  0.0120  0.0054  0.0225  0.0000  0.0000  0.0000  0.0000  0.0000 </r>
        <r>  0.2083  0.0120  0.0054  0.0225  0.0000  0.0000  0.0000  0.0000  0.0000 </r>
       </set>
       <set comment="band 2">
        <r>  0.1937  0.0110  0.0048  0.0285  0.0000  0.0000  0.0000  0.0000  0.0000 </r>
        <r>  0.1937  0.0110  0.0048  0.0285  0.0000  0.0000  0.0000  0.0000  0.0000 </r>
       </set>
       <set comment="band 3">
        <r>  0.0020  0.0010  0.1346  0.0326  0.0000  0.0000  0.0000  0.0000  0.0000 </r>
        <r>  0.0020  0.0010  0.1346  0.0326  0.0000  0.0000  0.0000  0.0000  0.0000 </r>
       </set>
       <set comment="band 4">
        <r>  0.0014  0.1111  0.0048  0.0442  0.0000  0.0000  0.0000  0.0000  0.0000 </r>
        <r>  0.0014  0.1111  0.0048  0.0442  0.0000  0.0000  0.0000  0.0000  0.0000 </r>
       </set>
       <set comment="band 5">
        <r>  0.0356  0.0134  0.0544  0.0113  0.0000  0.0000  0.0000  0.0000  0.0000 </r>
        <r>  0.0356  0.0134  0.0544  0.0113  0.0000  0.0000  0.0000  0.0000  0.0000 </r>
       </set>
       <set comment="band 6">
        <r>  0.0315  0.0397  0.0022  0.0333  0.0000  0.0000  0.0000  0.0000  0.0000 </r>
        <r>  0.0315  0.0397  0.0022  0.0333  0.0000  0.0000  0.0000  0.0000  0.0000 </r>
       </set>
       <set comment="band 7">
        <r>  0.0312  0.0163  0.0289  0.0682  0.0000  0.0000  0.0000  0.0000  0.0000 </r>
        <r>  0.0312  0.0163  0.0289  0.0682  0.0000  0.0000  0.0000  0.0000  0.0000 </r>
       </set>
       <set comment="band 8">
        <r>  0.0238  0.0632  0.0475  0.0038  0.0000  0.0000  0.0000  0.0000  0.0000 </r>
        <r>  0.0238  0.0632  0.0475  0.0038  0.0000  0.0000  0.0000  0.0000  0.0000 </r>
       </set>
       <set comment="band 9">
        <r>  0.0004  0.0773  0.0325  0.0276  0.0000  0.0000  0.0000  0.0000  0.0000 </r>
        <r>  0.0004  0.0772  0.0326  0.0277  0.0000  0.0000  0.0000  0.0000  0.0000 </r>
       </set>
       <set comment="band 10">
        <r>  0.0004  0.0070  0.0689  0.0469  0.0000  0.0000  0.0000  0.0000  0.0000 </r>
        <r>  0.0004  0.0069  0.0689  0.0470  0.0000  0.0000  0.0000  0.0000  0.0000 </r>
       </set>
      </set>
      <set comment="kpoint 108">
       <set comment="band 1">
        <r>  0.2068  0.0116  0.0232  0.0057  0.0000  0.0000  0.0000  0.0000  0.0000 </r>
        <r>  0.2068  0.0116  0.0232  0.0057  0.0000  0.0000  0.0000  0.0000  0.0000 </r>
       </set>
       <set comment="band 2">
        <r>  0.1952  0.0104  0.0259  0.0078  0.0000  0.0000  0.0000  0.0000  0.0000 </r>
        <r>  0.1952  0.0104  0.0259  0.0078  0.0000  0.0000  0.0000  0.0000  0.0000 </r>
       </set>
       <set comment="band 3">
        <r>  0.0018  0.0053  0.0452  0.1166  0.0000  0.0000  0.0000  0.0000  0.0000 </r>
        <r>  0.0018  0.0053  0.0452  0.1166  0.0000  0.0000  0.0000  0.0000  0.0000 </r>
       </set>
       <set comment="band 4">
        <r>  0.0016  0.1078  0.0403  0.0126  0.0000  0.0000  0.0000  0.0000  0.0000 </r>
        <r>  0.0016  0.1078  0.0403  0.0126  0.0000  0.0000  0.0000  0.0000  0.0000 </r>
       </set>
       <set comment="band 5">
        <r>  0.0358  0.0105  0.0198  0.0491  0.0000  0.0000  0.0000  0.0000  0.0000 </r>
        <r>  0.0358  0.0105  0.0198  0.0491  0.0000  0.0000  0.0000  0.0000  0.0000 </r>
       </set>
       <set comment="band 6">
        <r>  0.0314  0.0437  0.0178  0.0143  0.0000  0.0000  0.0000  0.0000  0.0000 </r>
        <r>  0.0314  0.0437  0.0178  0.0143  0.0000  0.0000  0.0000  0.0000  0.0000 </r>
       </set>
       <set comment="band 7">
        <r>  0.0285  0.0331  0.0299  0.0495  0.0000  0.0000  0.0000  0.0000  0.0000 </r>
        <r>  0.0285  0.0331  0.0299  0.0495  0.0000  0.0000  0.0000  0.0000  0.0000 </r>
       </set>
       <set comment="band 8">
        <r>  0.0260  0.0498  0.0259  0.0374  0.0000  0.0000  0.0000  0.0000  0.0000 </r>
        <r>  0.0260  0.0498  0.0259  0.0374  0.0000  0.0000  0.0000  0.0000  0.0000 </r>
       </set>
       <set comment="band 9">
        <r>  0.0013  0.0595  0.0639  0.0099  0.0000  0.0000  0.0000  0.0000  0.0000 </r>
        <r>  0.0013  0.0595  0.0639  0.0099  0.0000  0.0000  0.0000  0.0000  0.0000 </r>
       </set>
       <set comment="band 10">
        <r>  0.0008  0.0101  0.0592  0.0606  0.0000  0.0000  0.0000  0.0000  0.0000 </r>
        <r>  0.0008  0.0101  0.0593  0.0606  0.0000  0.0000  0.0000  0.0000  0.0000 </r>
       </set>
      </set>
      <set comment="kpoint 109">
       <set comment="band 1">
        <r>  0.2050  0.0117  0.0168  0.0127  0.0000  0.0000  0.0000  0.0000  0.0000 </r>
        <r>  0.2050  0.0117  0.0168  0.0127  0.0000  0.0000  0.0000  0.0000  0.0000 </r>
       </set>
       <set comment="band 2">
        <r>  0.1969  0.0090  0.0221  0.0124  0.0000  0.0000  0.0000  0.0000  0.0000 </r>
        <r>  0.1969  0.0090  0.0221  0.0124  0.0000  0.0000  0.0000  0.0000  0.0000 </r>
       </set>
       <set comment="band 3">
        <r>  0.0021  0.0055  0.0827  0.0784  0.0000  0.0000  0.0000  0.0000  0.0000 </r>
        <r>  0.0021  0.0055  0.0827  0.0784  0.0000  0.0000  0.0000  0.0000  0.0000 </r>
       </set>
       <set comment="band 4">
        <r>  0.0015  0.1087  0.0118  0.0402  0.0000  0.0000  0.0000  0.0000  0.0000 </r>
        <r>  0.0015  0.1087  0.0118  0.0402  0.0000  0.0000  0.0000  0.0000  0.0000 </r>
       </set>
       <set comment="band 5">
        <r>  0.0325  0.0351  0.0059  0.0362  0.0000  0.0000  0.0000  0.0000  0.0000 </r>
        <r>  0.0325  0.0351  0.0059  0.0362  0.0000  0.0000  0.0000  0.0000  0.0000 </r>
       </set>
       <set comment="band 6">
        <r>  0.0342  0.0219  0.0494  0.0074  0.0000  0.0000  0.0000  0.0000  0.0000 </r>
        <r>  0.0342  0.0219  0.0494  0.0074  0.0000  0.0000  0.0000  0.0000  0.0000 </r>
       </set>
       <set comment="band 7">
        <r>  0.0315  0.0089  0.0816  0.0217  0.0000  0.0000  0.0000  0.0000  0.0000 </r>
        <r>  0.0315  0.0089  0.0816  0.0217  0.0000  0.0000  0.0000  0.0000  0.0000 </r>
       </set>
       <set comment="band 8">
        <r>  0.0233  0.0701  0.0018  0.0411  0.0000  0.0000  0.0000  0.0000  0.0000 </r>
        <r>  0.0233  0.0701  0.0018  0.0411  0.0000  0.0000  0.0000  0.0000  0.0000 </r>
       </set>
       <set comment="band 9">
        <r>  0.0005  0.0484  0.0004  0.0899  0.0000  0.0000  0.0000  0.0000  0.0000 </r>
        <r>  0.0005  0.0486  0.0003  0.0903  0.0000  0.0000  0.0000  0.0000  0.0000 </r>
       </set>
       <set comment="band 10">
        <r>  0.0014  0.0246  0.0600  0.0379  0.0000  0.0000  0.0000  0.0000  0.0000 </r>
        <r>  0.0013  0.0244  0.0608  0.0377  0.0000  0.0000  0.0000  0.0000  0.0000 </r>
       </set>
      </set>
      <set comment="kpoint 110">
       <set comment="band 1">
        <r>  0.2075  0.0116  0.0053  0.0233  0.0000  0.0000  0.0000  0.0000  0.0000 </r>
        <r>  0.2075  0.0116  0.0053  0.0233  0.0000  0.0000  0.0000  0.0000  0.0000 </r>
       </set>
       <set comment="band 2">
        <r>  0.1945  0.0108  0.0050  0.0284  0.0000  0.0000  0.0000  0.0000  0.0000 </r>
        <r>  0.1945  0.0108  0.0050  0.0284  0.0000  0.0000  0.0000  0.0000  0.0000 </r>
       </set>
       <set comment="band 3">
        <r>  0.0018  0.0057  0.1387  0.0231  0.0000  0.0000  0.0000  0.0000  0.0000 </r>
        <r>  0.0018  0.0057  0.1387  0.0231  0.0000  0.0000  0.0000  0.0000  0.0000 </r>
       </set>
       <set comment="band 4">
        <r>  0.0016  0.1070  0.0005  0.0530  0.0000  0.0000  0.0000  0.0000  0.0000 </r>
        <r>  0.0016  0.1070  0.0005  0.0530  0.0000  0.0000  0.0000  0.0000  0.0000 </r>
       </set>
       <set comment="band 5">
        <r>  0.0361  0.0102  0.0552  0.0140  0.0000  0.0000  0.0000  0.0000  0.0000 </r>
        <r>  0.0361  0.0102  0.0552  0.0140  0.0000  0.0000  0.0000  0.0000  0.0000 </r>
       </set>
       <set comment="band 6">
        <r>  0.0312  0.0433  0.0014  0.0305  0.0000  0.0000  0.0000  0.0000  0.0000 </r>
        <r>  0.0312  0.0433  0.0014  0.0305  0.0000  0.0000  0.0000  0.0000  0.0000 </r>
       </set>
       <set comment="band 7">
        <r>  0.0285  0.0363  0.0153  0.0612  0.0000  0.0000  0.0000  0.0000  0.0000 </r>
        <r>  0.0285  0.0363  0.0153  0.0612  0.0000  0.0000  0.0000  0.0000  0.0000 </r>
       </set>
       <set comment="band 8">
        <r>  0.0260  0.0466  0.0607  0.0063  0.0000  0.0000  0.0000  0.0000  0.0000 </r>
        <r>  0.0260  0.0466  0.0607  0.0063  0.0000  0.0000  0.0000  0.0000  0.0000 </r>
       </set>
       <set comment="band 9">
        <r>  0.0011  0.0612  0.0031  0.0690  0.0000  0.0000  0.0000  0.0000  0.0000 </r>
        <r>  0.0011  0.0615  0.0031  0.0687  0.0000  0.0000  0.0000  0.0000  0.0000 </r>
       </set>
       <set comment="band 10">
        <r>  0.0006  0.0100  0.0986  0.0208  0.0000  0.0000  0.0000  0.0000  0.0000 </r>
        <r>  0.0006  0.0099  0.0990  0.0205  0.0000  0.0000  0.0000  0.0000  0.0000 </r>
       </set>
      </set>
      <set comment="kpoint 111">
       <set comment="band 1">
        <r>  0.2046  0.0117  0.0235  0.0060  0.0000  0.0000  0.0000  0.0000  0.0000 </r>
        <r>  0.2046  0.0117  0.0235  0.0060  0.0000  0.0000  0.0000  0.0000  0.0000 </r>
       </set>
       <set comment="band 2">
        <r>  0.1973  0.0089  0.0256  0.0091  0.0000  0.0000  0.0000  0.0000  0.0000 </r>
        <r>  0.1973  0.0089  0.0256  0.0091  0.0000  0.0000  0.0000  0.0000  0.0000 </r>
       </set>
       <set comment="band 3">
        <r>  0.0020  0.0042  0.0462  0.1158  0.0000  0.0000  0.0000  0.0000  0.0000 </r>
        <r>  0.0020  0.0042  0.0462  0.1158  0.0000  0.0000  0.0000  0.0000  0.0000 </r>
       </set>
       <set comment="band 4">
        <r>  0.0015  0.1101  0.0392  0.0116  0.0000  0.0000  0.0000  0.0000  0.0000 </r>
        <r>  0.0015  0.1101  0.0392  0.0116  0.0000  0.0000  0.0000  0.0000  0.0000 </r>
       </set>
       <set comment="band 5">
        <r>  0.0327  0.0338  0.0177  0.0258  0.0000  0.0000  0.0000  0.0000  0.0000 </r>
        <r>  0.0327  0.0338  0.0177  0.0258  0.0000  0.0000  0.0000  0.0000  0.0000 </r>
       </set>
       <set comment="band 6">
        <r>  0.0339  0.0232  0.0202  0.0353  0.0000  0.0000  0.0000  0.0000  0.0000 </r>
        <r>  0.0339  0.0232  0.0202  0.0353  0.0000  0.0000  0.0000  0.0000  0.0000 </r>
       </set>
       <set comment="band 7">
        <r>  0.0309  0.0088  0.0297  0.0736  0.0000  0.0000  0.0000  0.0000  0.0000 </r>
        <r>  0.0309  0.0088  0.0297  0.0735  0.0000  0.0000  0.0000  0.0000  0.0000 </r>
       </set>
       <set comment="band 8">
        <r>  0.0237  0.0708  0.0258  0.0161  0.0000  0.0000  0.0000  0.0000  0.0000 </r>
        <r>  0.0237  0.0708  0.0258  0.0161  0.0000  0.0000  0.0000  0.0000  0.0000 </r>
       </set>
       <set comment="band 9">
        <r>  0.0007  0.0461  0.0640  0.0284  0.0000  0.0000  0.0000  0.0000  0.0000 </r>
        <r>  0.0007  0.0456  0.0647  0.0283  0.0000  0.0000  0.0000  0.0000  0.0000 </r>
       </set>
       <set comment="band 10">
        <r>  0.0014  0.0254  0.0585  0.0403  0.0000  0.0000  0.0000  0.0000  0.0000 </r>
        <r>  0.0014  0.0254  0.0585  0.0403  0.0000  0.0000  0.0000  0.0000  0.0000 </r>
       </set>
      </set>
      <set comment="kpoint 112">
       <set comment="band 1">
        <r>  0.2078  0.0121  0.0174  0.0106  0.0000  0.0000  0.0000  0.0000  0.0000 </r>
        <r>  0.2078  0.0121  0.0174  0.0106  0.0000  0.0000  0.0000  0.0000  0.0000 </r>
       </set>
       <set comment="band 2">
        <r>  0.1941  0.0107  0.0214  0.0122  0.0000  0.0000  0.0000  0.0000  0.0000 </r>
        <r>  0.1941  0.0107  0.0214  0.0122  0.0000  0.0000  0.0000  0.0000  0.0000 </r>
       </set>
       <set comment="band 3">
        <r>  0.0020  0.0004  0.0690  0.0986  0.0000  0.0000  0.0000  0.0000  0.0000 </r>
        <r>  0.0020  0.0004  0.0690  0.0986  0.0000  0.0000  0.0000  0.0000  0.0000 </r>
       </set>
       <set comment="band 4">
        <r>  0.0014  0.1119  0.0258  0.0224  0.0000  0.0000  0.0000  0.0000  0.0000 </r>
        <r>  0.0014  0.1119  0.0258  0.0224  0.0000  0.0000  0.0000  0.0000  0.0000 </r>
       </set>
       <set comment="band 5">
        <r>  0.0351  0.0149  0.0203  0.0435  0.0000  0.0000  0.0000  0.0000  0.0000 </r>
        <r>  0.0351  0.0149  0.0203  0.0435  0.0000  0.0000  0.0000  0.0000  0.0000 </r>
       </set>
       <set comment="band 6">
        <r>  0.0319  0.0387  0.0345  0.0026  0.0000  0.0000  0.0000  0.0000  0.0000 </r>
        <r>  0.0319  0.0387  0.0345  0.0026  0.0000  0.0000  0.0000  0.0000  0.0000 </r>
       </set>
       <set comment="band 7">
        <r>  0.0317  0.0145  0.0814  0.0173  0.0000  0.0000  0.0000  0.0000  0.0000 </r>
        <r>  0.0317  0.0145  0.0814  0.0173  0.0000  0.0000  0.0000  0.0000  0.0000 </r>
       </set>
       <set comment="band 8">
        <r>  0.0234  0.0643  0.0027  0.0473  0.0000  0.0000  0.0000  0.0000  0.0000 </r>
        <r>  0.0234  0.0643  0.0027  0.0473  0.0000  0.0000  0.0000  0.0000  0.0000 </r>
       </set>
       <set comment="band 9">
        <r>  0.0003  0.0751  0.0026  0.0608  0.0000  0.0000  0.0000  0.0000  0.0000 </r>
        <r>  0.0003  0.0750  0.0026  0.0609  0.0000  0.0000  0.0000  0.0000  0.0000 </r>
       </set>
       <set comment="band 10">
        <r>  0.0005  0.0091  0.0580  0.0549  0.0000  0.0000  0.0000  0.0000  0.0000 </r>
        <r>  0.0005  0.0091  0.0579  0.0548  0.0000  0.0000  0.0000  0.0000  0.0000 </r>
       </set>
      </set>
     </set>
    </set>
   </array>
  </projected>
 </calculation>
 <structure name="finalpos" >
  <crystal>
   <varray name="basis" >
    <v>       3.34889800       0.00000000       1.93348700 </v>
    <v>       1.11629900       3.15737200       1.93348700 </v>
    <v>       0.00000000       0.00000000       3.86697500 </v>
   </varray>
   <i name="volume">     40.88829843 </i>
   <varray name="rec_basis" >
    <v>       0.29860569      -0.10557300       0.00000000 </v>
    <v>       0.00000000       0.31671909       0.00000000 </v>
    <v>      -0.14930281      -0.10557302       0.25860007 </v>
   </varray>
  </crystal>
  <varray name="positions" >
   <v>       0.25084800       0.23780500       0.25213200 </v>
   <v>       0.99915200       0.01219500       0.99786800 </v>
  </varray>
 </structure>
</modeling>
