 vasp.6.1.2 22Jul20 (build Dec 10 2020 10:33:42) complex

 executed on             LinuxIFC date 2022.09.02  12:53:11
 running on   96 total cores
 distrk:  each k-point on   96 cores,    1 groups
 distr:  one band on NCORE=  24 cores,    4 groups


--------------------------------------------------------------------------------------------------------


 INCAR:
 POTCAR:    PAW_PBE Na_pv 19Sep2006
 POTCAR:    PAW_PBE Cl 06Sep2000
 WARNING: For LVTOT=.TRUE., VASP.5.x writes the TOTAL local potential to the
     file LOCPOT. If you want only the Hartree contributions, use LVHAR=.TRUE.
     instead.

 -----------------------------------------------------------------------------
|                                                                             |
|           W    W    AA    RRRRR   N    N  II  N    N   GGGG   !!!           |
|           W    W   A  A   R    R  NN   N  II  NN   N  G    G  !!!           |
|           W    W  A    A  R    R  N N  N  II  N N  N  G       !!!           |
|           W WW W  AAAAAA  RRRRR   N  N N  II  N  N N  G  GGG   !            |
|           WW  WW  A    A  R   R   N   NN  II  N   NN  G    G                |
|           W    W  A    A  R    R  N    N  II  N    N   GGGG   !!!           |
|                                                                             |
|     For optimal performance we recommend to set                             |
|       NCORE = 4 - approx SQRT(number of cores).                             |
|     NCORE specifies how many cores store one orbital (NPAR=cpu/NCORE).      |
|     This setting can greatly improve the performance of VASP for DFT.       |
|     The default, NCORE=1 might be grossly inefficient on modern             |
|     multi-core architectures or massively parallel machines. Do your        |
|     own testing!!!!                                                         |
|     Unfortunately you need to use the default for GW and RPA                |
|     calculations (for HF NCORE is supported but not extensively tested      |
|     yet).                                                                   |
|                                                                             |
 -----------------------------------------------------------------------------

 POTCAR:    PAW_PBE Na_pv 19Sep2006
   VRHFIN =Na: p6s1
   LEXCH  = PE
   EATOM  =   766.0439 eV,   56.3026 Ry

   TITEL  = PAW_PBE Na_pv 19Sep2006
   LULTRA =        F    use ultrasoft PP ?
   IUNSCR =        1    unscreen: 0-lin 1-nonlin 2-no
   RPACOR =    1.800    partial core radius
   POMASS =   22.990; ZVAL   =    7.000    mass and valenz
   RCORE  =    2.200    outmost cutoff radius
   RWIGS  =    2.200; RWIGS  =    1.164    wigner-seitz radius (au A)
   ENMAX  =  259.561; ENMIN  =  194.671 eV
   ICORE  =        2    local potential
   LCOR   =        T    correct aug charges
   LPAW   =        T    paw PP
   EAUG   =  368.056
   DEXC   =    0.000
   RMAX   =    2.245    core radius for proj-oper
   RAUG   =    1.300    factor for augmentation sphere
   RDEP   =    2.259    radius for radial grids
   RDEPT  =    1.738    core radius for aug-charge

   Atomic configuration
    5 entries
     n  l   j            E        occ.
     1  0  0.50     -1033.6933   2.0000
     2  0  0.50       -56.7526   2.0000
     2  1  1.50       -28.6721   6.0000
     3  0  0.50        -2.7440   1.0000
     3  2  1.50        -1.3606   0.0000
   Description
     l       E           TYP  RCUT    TYP  RCUT
     1    -28.6720912     23  2.000
     1      6.8029130     23  2.000
     0     -2.7439560     23  2.200
     0     34.0145650     23  2.200
     2     -1.3605826     23  2.200
  local pseudopotential read in
  partial core-charges read in
  partial kinetic energy density read in
  atomic valenz-charges read in
  non local Contribution for L=           1  read in
    real space projection operators read in
  non local Contribution for L=           1  read in
    real space projection operators read in
  non local Contribution for L=           0  read in
    real space projection operators read in
  non local Contribution for L=           0  read in
    real space projection operators read in
    PAW grid and wavefunctions read in

   number of l-projection  operators is LMAX  =           4
   number of lm-projection operators is LMMAX =           8

 POTCAR:    PAW_PBE Cl 06Sep2000
   VRHFIN =Cl: s2p5
   LEXCH  = PE
   EATOM  =   409.7259 eV,   30.1140 Ry

   TITEL  = PAW_PBE Cl 06Sep2000
   LULTRA =        F    use ultrasoft PP ?
   IUNSCR =        1    unscreen: 0-lin 1-nonlin 2-no
   RPACOR =    1.500    partial core radius
   POMASS =   35.453; ZVAL   =    7.000    mass and valenz
   RCORE  =    1.900    outmost cutoff radius
   RWIGS  =    2.100; RWIGS  =    1.111    wigner-seitz radius (au A)
   ENMAX  =  262.472; ENMIN  =  196.854 eV
   ICORE  =        2    local potential
   LCOR   =        T    correct aug charges
   LPAW   =        T    paw PP
   EAUG   =  356.192
   DEXC   =    0.000
   RMAX   =    1.945    core radius for proj-oper
   RAUG   =    1.300    factor for augmentation sphere
   RDEP   =    2.020    radius for radial grids
   RDEPT  =    1.678    core radius for aug-charge

   Atomic configuration
    6 entries
     n  l   j            E        occ.
     1  0  0.50     -2751.1850   2.0000
     2  0  0.50      -252.6861   2.0000
     2  1  1.50      -191.6157   6.0000
     3  0  0.50       -20.6916   2.0000
     3  1  0.50        -8.5949   5.0000
     3  2  1.50        -8.1635   0.0000
   Description
     l       E           TYP  RCUT    TYP  RCUT
     0    -20.6915656     23  1.900
     0    -22.0521482     23  1.900
     1     -8.5948577     23  1.900
     1     -5.3847331     23  1.900
     2     -8.1634956     23  1.900
  local pseudopotential read in
  partial core-charges read in
  partial kinetic energy density read in
  atomic valenz-charges read in
  non local Contribution for L=           0  read in
    real space projection operators read in
  non local Contribution for L=           0  read in
    real space projection operators read in
  non local Contribution for L=           1  read in
    real space projection operators read in
  non local Contribution for L=           1  read in
    real space projection operators read in
    PAW grid and wavefunctions read in

   number of l-projection  operators is LMAX  =           4
   number of lm-projection operators is LMMAX =           8

 -----------------------------------------------------------------------------
|                                                                             |
|               ----> ADVICE to this user running VASP <----                  |
|                                                                             |
|     You enforced a specific xc type in the INCAR file but a different       |
|     type was found in the POTCAR file.                                      |
|     I HOPE YOU KNOW WHAT YOU ARE DOING!                                     |
|                                                                             |
 -----------------------------------------------------------------------------

  PAW_PBE Na_pv 19Sep2006               :
 energy of atom  1       EATOM= -766.0439
 kinetic energy error for atom=    0.0010 (will be added to EATOM!!)
  PAW_PBE Cl 06Sep2000                  :
 energy of atom  2       EATOM= -409.7259
 kinetic energy error for atom=    0.0012 (will be added to EATOM!!)


 POSCAR: Na4 Cl4
  positions in direct lattice
  No initial velocities read in
 exchange correlation table for  LEXCH =       14
   RHO(1)=    0.500       N(1)  =     2000
   RHO(2)=  100.500       N(2)  =     4000

 VTST: version 3.2, (02/03/18)

 CHAIN: initializing optimizer

 OPT: Using VASP Dynamics algorithm
 CHAIN: Read ICHAIN            0

 POSCAR: Na4 Cl4
  positions in direct lattice
  No initial velocities read in



--------------------------------------------------------------------------------------------------------


 ion  position               nearest neighbor table
   1  0.000  0.000  0.000-
   2  0.000  0.500  0.500-
   3  0.500  0.000  0.500-
   4  0.500  0.500  0.000-
   5  0.500  0.000  0.000-
   6  0.500  0.500  0.500-
   7  0.000  0.000  0.500-
   8  0.000  0.500  0.000-

  LATTYP: Found a simple cubic cell.
 ALAT       =     5.6916940000

  Lattice vectors:

 A1 = (   5.6916940000,   0.0000000000,   0.0000000000)
 A2 = (   0.0000000000,   5.6916940000,   0.0000000000)
 A3 = (   0.0000000000,   0.0000000000,   5.6916940000)


Analysis of symmetry for initial positions (statically):
=====================================================================
 Subroutine PRICEL returns following result:

  LATTYP: Found a face centered cubic cell.
 ALAT       =     5.6916940000

  Lattice vectors:

 A1 = (   2.8458470000,   2.8458470000,  -0.0000000000)
 A2 = (   2.8458470000,   0.0000000000,  -2.8458470000)
 A3 = (   0.0000000000,   2.8458470000,  -2.8458470000)

   4 primitive cells build up your supercell.


 Routine SETGRP: Setting up the symmetry group for a
 simple cubic supercell.


 Subroutine GETGRP returns: Found 48 space group operations
 (whereof 48 operations were pure point group operations)
 out of a pool of 48 trial point group operations.


The static configuration has the point symmetry O_h .


Analysis of symmetry for dynamics (positions and initial velocities):
=====================================================================
 Subroutine PRICEL returns following result:

  LATTYP: Found a face centered cubic cell.
 ALAT       =     5.6916940000

  Lattice vectors:

 A1 = (   2.8458470000,   2.8458470000,  -0.0000000000)
 A2 = (   2.8458470000,   0.0000000000,  -2.8458470000)
 A3 = (   0.0000000000,   2.8458470000,  -2.8458470000)

   4 primitive cells build up your supercell.


 Routine SETGRP: Setting up the symmetry group for a
 simple cubic supercell.


 Subroutine GETGRP returns: Found 48 space group operations
 (whereof 48 operations were pure point group operations)
 out of a pool of 48 trial point group operations.


The dynamic configuration has the point symmetry O_h .


Analysis of structural, dynamic, and magnetic symmetry:
=====================================================================
 Subroutine PRICEL returns following result:

  LATTYP: Found a face centered cubic cell.
 ALAT       =     5.6916940000

  Lattice vectors:

 A1 = (   2.8458470000,   2.8458470000,  -0.0000000000)
 A2 = (   2.8458470000,   0.0000000000,  -2.8458470000)
 A3 = (   0.0000000000,   2.8458470000,  -2.8458470000)

   4 primitive cells build up your supercell.


 Routine SETGRP: Setting up the symmetry group for a
 simple cubic supercell.


 Subroutine GETGRP returns: Found 48 space group operations
 (whereof 48 operations were pure point group operations)
 out of a pool of 48 trial point group operations.


The magnetic configuration has the point symmetry O_h .


 Subroutine INISYM returns: Found 48 space group operations
 (whereof 48 operations are pure point group operations),
 and found     4 'primitive' translations


----------------------------------------------------------------------------------------

                                     Primitive cell

  volume of cell :      46.0961

  direct lattice vectors                    reciprocal lattice vectors
     2.845847000  2.845847000 -0.000000000     0.175694617  0.175694617  0.175694617
     2.845847000  0.000000000 -2.845847000     0.175694617 -0.175694617 -0.175694617
     0.000000000  2.845847000 -2.845847000    -0.175694617  0.175694617 -0.175694617

  length of vectors
     4.024635424  4.024635424  4.024635424     0.304312004  0.304312004  0.304312004

  position of ions in fractional coordinates (direct lattice)
     0.000000000  0.000000000  0.000000000
     0.500000000  0.500000000  0.500000000

  ion indices of the primitive-cell ions
   primitive index   ion index
                 1           1
                 2           5

----------------------------------------------------------------------------------------




Automatic generation of k-mesh.
 generate k-points for:    6    6    6
Space group operators:
 irot       det(A)        alpha          n_x          n_y          n_z        tau_x        tau_y        tau_z
    1     1.000000     0.000000     1.000000     0.000000     0.000000     0.000000     0.000000     0.000000
    2    -1.000000     0.000000     1.000000     0.000000     0.000000     0.000000     0.000000     0.000000
    3     1.000000   120.000000    -0.577350    -0.577350    -0.577350     0.000000     0.000000     0.000000
    4    -1.000000   120.000000    -0.577350    -0.577350    -0.577350     0.000000     0.000000     0.000000
    5     1.000000   120.000000     0.577350     0.577350     0.577350     0.000000     0.000000     0.000000
    6    -1.000000   120.000000     0.577350     0.577350     0.577350     0.000000     0.000000     0.000000
    7     1.000000    90.000000     0.000000     0.000000    -1.000000     0.000000     0.000000     0.000000
    8    -1.000000    90.000000     0.000000     0.000000    -1.000000     0.000000     0.000000     0.000000
    9     1.000000   180.000000     0.000000     0.707107     0.707107     0.000000     0.000000     0.000000
   10    -1.000000   180.000000     0.000000     0.707107     0.707107     0.000000     0.000000     0.000000
   11     1.000000    90.000000     0.000000     1.000000     0.000000     0.000000     0.000000     0.000000
   12    -1.000000    90.000000     0.000000     1.000000     0.000000     0.000000     0.000000     0.000000
   13     1.000000   180.000000     0.000000     0.000000     1.000000     0.000000     0.000000     0.000000
   14    -1.000000   180.000000     0.000000     0.000000     1.000000     0.000000     0.000000     0.000000
   15     1.000000   120.000000    -0.577350     0.577350     0.577350     0.000000     0.000000     0.000000
   16    -1.000000   120.000000    -0.577350     0.577350     0.577350     0.000000     0.000000     0.000000
   17     1.000000   120.000000    -0.577350     0.577350    -0.577350     0.000000     0.000000     0.000000
   18    -1.000000   120.000000    -0.577350     0.577350    -0.577350     0.000000     0.000000     0.000000
   19     1.000000    90.000000     0.000000     0.000000     1.000000     0.000000     0.000000     0.000000
   20    -1.000000    90.000000     0.000000     0.000000     1.000000     0.000000     0.000000     0.000000
   21     1.000000    90.000000    -1.000000     0.000000     0.000000     0.000000     0.000000     0.000000
   22    -1.000000    90.000000    -1.000000     0.000000     0.000000     0.000000     0.000000     0.000000
   23     1.000000   180.000000     0.707107     0.000000     0.707107     0.000000     0.000000     0.000000
   24    -1.000000   180.000000     0.707107     0.000000     0.707107     0.000000     0.000000     0.000000
   25     1.000000   120.000000     0.577350    -0.577350     0.577350     0.000000     0.000000     0.000000
   26    -1.000000   120.000000     0.577350    -0.577350     0.577350     0.000000     0.000000     0.000000
   27     1.000000   120.000000    -0.577350    -0.577350     0.577350     0.000000     0.000000     0.000000
   28    -1.000000   120.000000    -0.577350    -0.577350     0.577350     0.000000     0.000000     0.000000
   29     1.000000   180.000000     1.000000     0.000000     0.000000     0.000000     0.000000     0.000000
   30    -1.000000   180.000000     1.000000     0.000000     0.000000     0.000000     0.000000     0.000000
   31     1.000000    90.000000     0.000000    -1.000000     0.000000     0.000000     0.000000     0.000000
   32    -1.000000    90.000000     0.000000    -1.000000     0.000000     0.000000     0.000000     0.000000
   33     1.000000   180.000000     0.707107     0.707107     0.000000     0.000000     0.000000     0.000000
   34    -1.000000   180.000000     0.707107     0.707107     0.000000     0.000000     0.000000     0.000000
   35     1.000000    90.000000     1.000000     0.000000     0.000000     0.000000     0.000000     0.000000
   36    -1.000000    90.000000     1.000000     0.000000     0.000000     0.000000     0.000000     0.000000
   37     1.000000   120.000000     0.577350    -0.577350    -0.577350     0.000000     0.000000     0.000000
   38    -1.000000   120.000000     0.577350    -0.577350    -0.577350     0.000000     0.000000     0.000000
   39     1.000000   180.000000     0.000000     1.000000     0.000000     0.000000     0.000000     0.000000
   40    -1.000000   180.000000     0.000000     1.000000     0.000000     0.000000     0.000000     0.000000
   41     1.000000   120.000000     0.577350     0.577350    -0.577350     0.000000     0.000000     0.000000
   42    -1.000000   120.000000     0.577350     0.577350    -0.577350     0.000000     0.000000     0.000000
   43     1.000000   180.000000     0.000000    -0.707107     0.707107     0.000000     0.000000     0.000000
   44    -1.000000   180.000000     0.000000    -0.707107     0.707107     0.000000     0.000000     0.000000
   45     1.000000   180.000000     0.707107    -0.707107     0.000000     0.000000     0.000000     0.000000
   46    -1.000000   180.000000     0.707107    -0.707107     0.000000     0.000000     0.000000     0.000000
   47     1.000000   180.000000     0.707107     0.000000    -0.707107     0.000000     0.000000     0.000000
   48    -1.000000   180.000000     0.707107     0.000000    -0.707107     0.000000     0.000000     0.000000
 TETIRR: Found    104 inequivalent tetrahedra from     1296

 Subroutine IBZKPT returns following result:
 ===========================================

 Found     20 irreducible k-points:

 Following reciprocal coordinates:
            Coordinates               Weight
  0.000000  0.000000  0.000000      1.000000
  0.166667  0.000000  0.000000      6.000000
  0.333333  0.000000  0.000000      6.000000
  0.500000  0.000000  0.000000      3.000000
  0.166667  0.166667  0.000000     12.000000
  0.333333  0.166667  0.000000     24.000000
  0.500000  0.166667  0.000000     12.000000
  0.333333  0.333333  0.000000     12.000000
  0.500000  0.333333  0.000000     12.000000
  0.500000  0.500000  0.000000      3.000000
  0.166667  0.166667  0.166667      8.000000
  0.333333  0.166667  0.166667     24.000000
  0.500000  0.166667  0.166667     12.000000
  0.333333  0.333333  0.166667     24.000000
  0.500000  0.333333  0.166667     24.000000
  0.500000  0.500000  0.166667      6.000000
  0.333333  0.333333  0.333333      8.000000
  0.500000  0.333333  0.333333     12.000000
  0.500000  0.500000  0.333333      6.000000
  0.500000  0.500000  0.500000      1.000000

 Following cartesian coordinates:
            Coordinates               Weight
  0.000000  0.000000  0.000000      1.000000
  0.029282  0.000000  0.000000      6.000000
  0.058565  0.000000  0.000000      6.000000
  0.087847  0.000000  0.000000      3.000000
  0.029282  0.029282  0.000000     12.000000
  0.058565  0.029282  0.000000     24.000000
  0.087847  0.029282  0.000000     12.000000
  0.058565  0.058565  0.000000     12.000000
  0.087847  0.058565  0.000000     12.000000
  0.087847  0.087847  0.000000      3.000000
  0.029282  0.029282  0.029282      8.000000
  0.058565  0.029282  0.029282     24.000000
  0.087847  0.029282  0.029282     12.000000
  0.058565  0.058565  0.029282     24.000000
  0.087847  0.058565  0.029282     24.000000
  0.087847  0.087847  0.029282      6.000000
  0.058565  0.058565  0.058565      8.000000
  0.087847  0.058565  0.058565     12.000000
  0.087847  0.087847  0.058565      6.000000
  0.087847  0.087847  0.087847      1.000000



--------------------------------------------------------------------------------------------------------




 Dimension of arrays:
   k-points           NKPTS =     20   k-points in BZ     NKDIM =     20   number of bands    NBANDS=     36
   number of dos      NEDOS =    301   number of ions     NIONS =      8
   non local maximal  LDIM  =      4   non local SUM 2l+1 LMDIM =      8
   total plane-waves  NPLWV = 110592
   max r-space proj   IRMAX =      1   max aug-charges    IRDMAX=  17440
   dimension x,y,z NGX =    48 NGY =   48 NGZ =   48
   dimension x,y,z NGXF=    96 NGYF=   96 NGZF=   96
   support grid    NGXF=    96 NGYF=   96 NGZF=   96
   ions per type =               4   4
   NGX,Y,Z   is equivalent  to a cutoff of  14.02, 14.02, 14.02 a.u.
   NGXF,Y,Z  is equivalent  to a cutoff of  28.04, 28.04, 28.04 a.u.

 SYSTEM =  unknown system
 POSCAR =  Na4 Cl4

 Startparameter for this run:
   NWRITE =      2    write-flag & timer
   PREC   = accura    normal or accurate (medium, high low for compatibility)
   ISTART =      0    job   : 0-new  1-cont  2-samecut
   ICHARG =      2    charge: 1-file 2-atom 10-const
   ISPIN  =      2    spin polarized calculation?
   LNONCOLLINEAR =      F non collinear calculations
   LSORBIT =      F    spin-orbit coupling
   INIWAV =      1    electr: 0-lowe 1-rand  2-diag
   LASPH  =      T    aspherical Exc in radial PAW
   METAGGA=      F    non-selfconsistent MetaGGA calc.

 Electronic Relaxation 1
   ENCUT  =  680.0 eV  49.98 Ry    7.07 a.u.  12.10 12.10 12.10*2*pi/ulx,y,z
   ENINI  =  680.0     initial cutoff
   ENAUG  = 1360.0 eV  augmentation charge cutoff
   NELM   =    200;   NELMIN=  2; NELMDL= -5     # of ELM steps
   EDIFF  = 0.1E-04   stopping-criterion for ELM
   LREAL  =      F    real-space projection
   NLSPLINE    = F    spline interpolate recip. space projectors
   LCOMPAT=      F    compatible to vasp.4.4
   GGA_COMPAT  = T    GGA compatible to vasp.4.4-vasp.4.6
   LMAXPAW     = -100 max onsite density
   LMAXMIX     =    2 max onsite mixed and CHGCAR
   VOSKOWN=      0    Vosko Wilk Nusair interpolation
   ROPT   =    0.00000   0.00000
 Ionic relaxation
   EDIFFG = 0.1E-03   stopping-criterion for IOM
   NSW    =      0    number of steps for IOM
   NBLOCK =      1;   KBLOCK =      1    inner block; outer block
   IBRION =     -1    ionic relax: 0-MD 1-quasi-New 2-CG
   NFREE  =      0    steps in history (QN), initial steepest desc. (CG)
   ISIF   =      2    stress and relaxation
   IWAVPR =     10    prediction:  0-non 1-charg 2-wave 3-comb
   ISYM   =      2    0-nonsym 1-usesym 2-fastsym
   LCORR  =      T    Harris-Foulkes like correction to forces

   POTIM  = 0.5000    time-step for ionic-motion
   TEIN   =    0.0    initial temperature
   TEBEG  =    0.0;   TEEND  =   0.0 temperature during run
   SMASS  =  -3.00    Nose mass-parameter (am)
   estimated Nose-frequenzy (Omega)   =  0.10E-29 period in steps = 0.13E+47 mass=  -0.740E-27a.u.
   SCALEE = 1.0000    scale energy and forces
   NPACO  =    256;   APACO  = 16.0  distance and # of slots for P.C.
   PSTRESS=    0.0 pullay stress

  Mass of Ions in am
   POMASS =  22.99 35.45
  Ionic Valenz
   ZVAL   =   7.00  7.00
  Atomic Wigner-Seitz radii
   RWIGS  =  -1.00 -1.00
  virtual crystal weights
   VCA    =   1.00  1.00
   NELECT =      56.0000    total number of electrons
   NUPDOWN=      -1.0000    fix difference up-down

 DOS related values:
   EMIN   =  10.00;   EMAX   =-10.00  energy-range for DOS
   EFERMI =   0.00
   ISMEAR =    -5;   SIGMA  =   0.20  broadening in eV -4-tet -1-fermi 0-gaus

 Electronic relaxation 2 (details)
   IALGO  =     68    algorithm
   LDIAG  =      T    sub-space diagonalisation (order eigenvalues)
   LSUBROT=      F    optimize rotation matrix (better conditioning)
   TURBO    =      0    0=normal 1=particle mesh
   IRESTART =      0    0=no restart 2=restart with 2 vectors
   NREBOOT  =      0    no. of reboots
   NMIN     =      0    reboot dimension
   EREF     =   0.00    reference energy to select bands
   IMIX   =      4    mixing-type and parameters
     AMIX     =   0.40;   BMIX     =  1.00
     AMIX_MAG =   1.60;   BMIX_MAG =  1.00
     AMIN     =   0.10
     WC   =   100.;   INIMIX=   1;  MIXPRE=   1;  MAXMIX= -45

 Intra band minimization:
   WEIMIN = 0.0000     energy-eigenvalue tresh-hold
   EBREAK =  0.69E-07  absolut break condition
   DEPER  =   0.30     relativ break condition

   TIME   =   0.40     timestep for ELM

  volume/ion in A,a.u.               =      23.05       155.54
  Fermi-wavevector in a.u.,A,eV,Ry     =   1.100431  2.079512 16.475939  1.210947
  Thomas-Fermi vector in A             =   2.236841

 Write flags
   LWAVE        =      F    write WAVECAR
   LDOWNSAMPLE  =      F    k-point downsampling of WAVECAR
   LCHARG       =      T    write CHGCAR
   LVTOT        =      T    write LOCPOT, total local potential
   LVHAR        =      F    write LOCPOT, Hartree potential only
   LELF         =      F    write electronic localiz. function (ELF)
   LORBIT       =     11    0 simple, 1 ext, 2 COOP (PROOUT), +10 PAW based schemes


 Dipole corrections
   LMONO  =      F    monopole corrections only (constant potential shift)
   LDIPOL =      F    correct potential (dipole corrections)
   IDIPOL =      0    1-x, 2-y, 3-z, 4-all directions
   EPSILON=  1.0000000 bulk dielectric constant

 Exchange correlation treatment:
   GGA     =    PS    GGA type
   LEXCH   =    14    internal setting for exchange type
   VOSKOWN=      0    Vosko Wilk Nusair interpolation
   LHFCALC =     F    Hartree Fock is set to
   LHFONE  =     F    Hartree Fock one center treatment
   AEXX    =    0.0000 exact exchange contribution

 Linear response parameters
   LEPSILON=     F    determine dielectric tensor
   LRPA    =     F    only Hartree local field effects (RPA)
   LNABLA  =     F    use nabla operator in PAW spheres
   LVEL    =     F    velocity operator in full k-point grid
   LINTERFAST=   F  fast interpolation
   KINTER  =     0    interpolate to denser k-point grid
   CSHIFT  =0.1000    complex shift for real part using Kramers Kronig
   OMEGAMAX=  -1.0    maximum frequency
   DEG_THRESHOLD= 0.2000000E-02 threshold for treating states as degnerate
   RTIME   =   -0.100 relaxation time in fs
  (WPLASMAI=    0.000 imaginary part of plasma frequency in eV, 0.658/RTIME)
   DFIELD  = 0.0000000 0.0000000 0.0000000 field for delta impulse in time

 Orbital magnetization related:
   ORBITALMAG=     F  switch on orbital magnetization
   LCHIMAG   =     F  perturbation theory with respect to B field
   DQ        =  0.001000  dq finite difference perturbation B field
   LLRAUG    =     F  two centre corrections for induced B field



--------------------------------------------------------------------------------------------------------


 Static calculation
 charge density and potential will be updated during run
 spin polarized calculation
 RMM-DIIS sequential band-by-band and
  variant of blocked Davidson during initial phase
 perform sub-space diagonalisation
    before iterative eigenvector-optimisation
 modified Broyden-mixing scheme, WC =      100.0
 initial mixing is a Kerker type mixing with AMIX =  0.4000 and BMIX =      1.0000
 Hartree-type preconditioning will be used
 using additional bands            8
 reciprocal scheme for non local part
 use partial core corrections
 calculate Harris-corrections to forces
   (improved forces if not selfconsistent)
 use gradient corrections
 use of overlap-Matrix (Vanderbilt PP)
 Fermi weights with tetrahedron method with Bloechl corrections


--------------------------------------------------------------------------------------------------------


  energy-cutoff  :      680.00
  volume of cell :      184.38
      direct lattice vectors                 reciprocal lattice vectors
     5.691694000  0.000000000  0.000000000     0.175694617  0.000000000  0.000000000
     0.000000000  5.691694000  0.000000000     0.000000000  0.175694617  0.000000000
     0.000000000  0.000000000  5.691694000     0.000000000  0.000000000  0.175694617

  length of vectors
     5.691694000  5.691694000  5.691694000     0.175694617  0.175694617  0.175694617



 k-points in units of 2pi/SCALE and weight: read from INCAR
   0.00000000  0.00000000  0.00000000       0.005
   0.02928244  0.00000000  0.00000000       0.028
   0.05856487  0.00000000  0.00000000       0.028
   0.08784731  0.00000000  0.00000000       0.014
   0.02928244  0.02928244  0.00000000       0.056
   0.05856487  0.02928244  0.00000000       0.111
   0.08784731  0.02928244  0.00000000       0.056
   0.05856487  0.05856487  0.00000000       0.056
   0.08784731  0.05856487  0.00000000       0.056
   0.08784731  0.08784731  0.00000000       0.014
   0.02928244  0.02928244  0.02928244       0.037
   0.05856487  0.02928244  0.02928244       0.111
   0.08784731  0.02928244  0.02928244       0.056
   0.05856487  0.05856487  0.02928244       0.111
   0.08784731  0.05856487  0.02928244       0.111
   0.08784731  0.08784731  0.02928244       0.028
   0.05856487  0.05856487  0.05856487       0.037
   0.08784731  0.05856487  0.05856487       0.056
   0.08784731  0.08784731  0.05856487       0.028
   0.08784731  0.08784731  0.08784731       0.005

 k-points in reciprocal lattice and weights: read from INCAR
   0.00000000  0.00000000  0.00000000       0.005
   0.16666667  0.00000000  0.00000000       0.028
   0.33333333  0.00000000  0.00000000       0.028
   0.50000000  0.00000000  0.00000000       0.014
   0.16666667  0.16666667  0.00000000       0.056
   0.33333333  0.16666667  0.00000000       0.111
   0.50000000  0.16666667  0.00000000       0.056
   0.33333333  0.33333333  0.00000000       0.056
   0.50000000  0.33333333  0.00000000       0.056
   0.50000000  0.50000000  0.00000000       0.014
   0.16666667  0.16666667  0.16666667       0.037
   0.33333333  0.16666667  0.16666667       0.111
   0.50000000  0.16666667  0.16666667       0.056
   0.33333333  0.33333333  0.16666667       0.111
   0.50000000  0.33333333  0.16666667       0.111
   0.50000000  0.50000000  0.16666667       0.028
   0.33333333  0.33333333  0.33333333       0.037
   0.50000000  0.33333333  0.33333333       0.056
   0.50000000  0.50000000  0.33333333       0.028
   0.50000000  0.50000000  0.50000000       0.005

 position of ions in fractional coordinates (direct lattice)
   0.00000000  0.00000000  0.00000000
   0.00000000  0.50000000  0.50000000
   0.50000000  0.00000000  0.50000000
   0.50000000  0.50000000  0.00000000
   0.50000000  0.00000000  0.00000000
   0.50000000  0.50000000  0.50000000
   0.00000000  0.00000000  0.50000000
   0.00000000  0.50000000  0.00000000

 position of ions in cartesian coordinates  (Angst):
   0.00000000  0.00000000  0.00000000
   0.00000000  2.84584700  2.84584700
   2.84584700  0.00000000  2.84584700
   2.84584700  2.84584700  0.00000000
   2.84584700  0.00000000  0.00000000
   2.84584700  2.84584700  2.84584700
   0.00000000  0.00000000  2.84584700
   0.00000000  2.84584700  0.00000000



--------------------------------------------------------------------------------------------------------


 k-point   1 :   0.0000 0.0000 0.0000  plane waves:    7441
 k-point   2 :   0.1667 0.0000 0.0000  plane waves:    7396
 k-point   3 :   0.3333 0.0000 0.0000  plane waves:    7420
 k-point   4 :   0.5000 0.0000 0.0000  plane waves:    7464
 k-point   5 :   0.1667 0.1667 0.0000  plane waves:    7405
 k-point   6 :   0.3333 0.1667 0.0000  plane waves:    7416
 k-point   7 :   0.5000 0.1667 0.0000  plane waves:    7440
 k-point   8 :   0.3333 0.3333 0.0000  plane waves:    7437
 k-point   9 :   0.5000 0.3333 0.0000  plane waves:    7440
 k-point  10 :   0.5000 0.5000 0.0000  plane waves:    7380
 k-point  11 :   0.1667 0.1667 0.1667  plane waves:    7421
 k-point  12 :   0.3333 0.1667 0.1667  plane waves:    7414
 k-point  13 :   0.5000 0.1667 0.1667  plane waves:    7424
 k-point  14 :   0.3333 0.3333 0.1667  plane waves:    7422
 k-point  15 :   0.5000 0.3333 0.1667  plane waves:    7432
 k-point  16 :   0.5000 0.5000 0.1667  plane waves:    7404
 k-point  17 :   0.3333 0.3333 0.3333  plane waves:    7424
 k-point  18 :   0.5000 0.3333 0.3333  plane waves:    7442
 k-point  19 :   0.5000 0.5000 0.3333  plane waves:    7448
 k-point  20 :   0.5000 0.5000 0.5000  plane waves:    7400

 maximum and minimum number of plane-waves per node :       332      290

 maximum number of plane-waves:      7464
 maximum index in each direction:
   IXMAX=   12   IYMAX=   12   IZMAX=   12
   IXMIN=  -12   IYMIN=  -12   IZMIN=  -12


 parallel 3D FFT for wavefunctions:
    minimum data exchange during FFTs selected (reduces bandwidth)
 parallel 3D FFT for charge:
    minimum data exchange during FFTs selected (reduces bandwidth)


 total amount of memory used by VASP MPI-rank0    34462. kBytes
=======================================================================

   base      :      30000. kBytes
   nonl-proj :        892. kBytes
   fftplans  :        485. kBytes
   grid      :       1121. kBytes
   one-center:          6. kBytes
   wavefun   :       1958. kBytes

     INWAV:  cpu time    0.0001: real time    0.0000
 Broyden mixing: mesh for mixing (old mesh)
   NGX = 25   NGY = 25   NGZ = 25
  (NGX  = 96   NGY  = 96   NGZ  = 96)
  gives a total of  15625 points

 initial charge density was supplied:
 charge density of overlapping atoms calculated
 number of electron      56.0000000 magnetization       4.8000000
 keeping initial charge density in first step


--------------------------------------------------------------------------------------------------------


 Maximum index for augmentation-charges          793 (set IRDMAX)


--------------------------------------------------------------------------------------------------------


 First call to EWALD:  gamma=   0.311
 Maximum number of real-space cells 3x 3x 3
 Maximum number of reciprocal cells 3x 3x 3

    FEWALD:  cpu time    0.0023: real time    0.0023


--------------------------------------- Iteration      1(   1)  ---------------------------------------


    POTLOK:  cpu time    0.0257: real time    0.0276
    SETDIJ:  cpu time    0.2034: real time    0.2036
     EDDAV:  cpu time    0.5905: real time    0.5982
 BZINTS: Fermi energy:   18.526437;   56.000000 electrons
         Band energy: 0.176811E+02;  BLOECHL correction:   -0.292872
       DOS:  cpu time    0.0164: real time    0.0165
    --------------------------------------------
      LOOP:  cpu time    0.8361: real time    0.8459

 eigenvalue-minimisations  :  2896
 total energy-change (2. order) : 0.6660635E+03  (-0.3033834E+04)
 number of electron      56.0000000 magnetization       4.8000000
 augmentation part       56.0000000 magnetization       4.8000000

 Free energy of the ion-electron system (eV)
  ---------------------------------------------------
  alpha Z        PSCENC =        89.56934524
  Ewald energy   TEWEN  =     -2813.87945180
  -Hartree energ DENC   =     -1148.58314808
  -exchange      EXHF   =         0.00000000
  -V(xc)+E(xc)   XCENC  =       182.03413374
  PAW double counting   =      3307.95688671    -3660.34697251
  entropy T*S    EENTRO =         0.00000000
  eigenvalues    EBANDS =        17.68105194
  atomic energy  EATOM  =      4691.63160629
  Solvation  Ediel_sol  =         0.00000000
  ---------------------------------------------------
  free energy    TOTEN  =       666.06345152 eV

  energy without entropy =      666.06345152  energy(sigma->0) =      666.06345152


--------------------------------------------------------------------------------------------------------




--------------------------------------- Iteration      1(   2)  ---------------------------------------


     EDDAV:  cpu time    0.5878: real time    0.5884
 BZINTS: Fermi energy:    6.751571;   56.000000 electrons
         Band energy:-0.578531E+03;  BLOECHL correction:   -0.147641
       DOS:  cpu time    0.0141: real time    0.0141
    --------------------------------------------
      LOOP:  cpu time    0.6019: real time    0.6025

 eigenvalue-minimisations  :  3120
 total energy-change (2. order) :-0.5962118E+03  (-0.5774033E+03)
 number of electron      56.0000000 magnetization       4.8000000
 augmentation part       56.0000000 magnetization       4.8000000

 Free energy of the ion-electron system (eV)
  ---------------------------------------------------
  alpha Z        PSCENC =        89.56934524
  Ewald energy   TEWEN  =     -2813.87945180
  -Hartree energ DENC   =     -1148.58314808
  -exchange      EXHF   =         0.00000000
  -V(xc)+E(xc)   XCENC  =       182.03413374
  PAW double counting   =      3307.95688671    -3660.34697251
  entropy T*S    EENTRO =         0.00000000
  eigenvalues    EBANDS =      -578.53072548
  atomic energy  EATOM  =      4691.63160629
  Solvation  Ediel_sol  =         0.00000000
  ---------------------------------------------------
  free energy    TOTEN  =        69.85167410 eV

  energy without entropy =       69.85167410  energy(sigma->0) =       69.85167410


--------------------------------------------------------------------------------------------------------




--------------------------------------- Iteration      1(   3)  ---------------------------------------


     EDDAV:  cpu time    0.6065: real time    0.6072
 BZINTS: Fermi energy:   -0.694086;   56.000000 electrons
         Band energy:-0.670948E+03;  BLOECHL correction:    0.000000
       DOS:  cpu time    0.0076: real time    0.0076
    --------------------------------------------
      LOOP:  cpu time    0.6141: real time    0.6148

 eigenvalue-minimisations  :  3284
 total energy-change (2. order) :-0.9241698E+02  (-0.9137174E+02)
 number of electron      56.0000000 magnetization       4.8000000
 augmentation part       56.0000000 magnetization       4.8000000

 Free energy of the ion-electron system (eV)
  ---------------------------------------------------
  alpha Z        PSCENC =        89.56934524
  Ewald energy   TEWEN  =     -2813.87945180
  -Hartree energ DENC   =     -1148.58314808
  -exchange      EXHF   =         0.00000000
  -V(xc)+E(xc)   XCENC  =       182.03413374
  PAW double counting   =      3307.95688671    -3660.34697251
  entropy T*S    EENTRO =         0.00000000
  eigenvalues    EBANDS =      -670.94770700
  atomic energy  EATOM  =      4691.63160629
  Solvation  Ediel_sol  =         0.00000000
  ---------------------------------------------------
  free energy    TOTEN  =       -22.56530742 eV

  energy without entropy =      -22.56530742  energy(sigma->0) =      -22.56530742


--------------------------------------------------------------------------------------------------------




--------------------------------------- Iteration      1(   4)  ---------------------------------------


     EDDAV:  cpu time    0.6314: real time    0.6327
 BZINTS: Fermi energy:   -1.572325;   56.000000 electrons
         Band energy:-0.676018E+03;  BLOECHL correction:    0.000000
       DOS:  cpu time    0.0069: real time    0.0069
    --------------------------------------------
      LOOP:  cpu time    0.6383: real time    0.6396

 eigenvalue-minimisations  :  3484
 total energy-change (2. order) :-0.5070473E+01  (-0.5047595E+01)
 number of electron      56.0000000 magnetization       4.8000000
 augmentation part       56.0000000 magnetization       4.8000000

 Free energy of the ion-electron system (eV)
  ---------------------------------------------------
  alpha Z        PSCENC =        89.56934524
  Ewald energy   TEWEN  =     -2813.87945180
  -Hartree energ DENC   =     -1148.58314808
  -exchange      EXHF   =         0.00000000
  -V(xc)+E(xc)   XCENC  =       182.03413374
  PAW double counting   =      3307.95688671    -3660.34697251
  entropy T*S    EENTRO =         0.00000000
  eigenvalues    EBANDS =      -676.01817994
  atomic energy  EATOM  =      4691.63160629
  Solvation  Ediel_sol  =         0.00000000
  ---------------------------------------------------
  free energy    TOTEN  =       -27.63578036 eV

  energy without entropy =      -27.63578036  energy(sigma->0) =      -27.63578036


--------------------------------------------------------------------------------------------------------




--------------------------------------- Iteration      1(   5)  ---------------------------------------


     EDDAV:  cpu time    0.6666: real time    0.6685
 BZINTS: Fermi energy:   -1.591401;   56.000000 electrons
         Band energy:-0.676161E+03;  BLOECHL correction:    0.000000
       DOS:  cpu time    0.0068: real time    0.0068
    CHARGE:  cpu time    0.0644: real time    0.0654
    MIXING:  cpu time    0.0014: real time    0.0024
    --------------------------------------------
      LOOP:  cpu time    0.7392: real time    0.7431

 eigenvalue-minimisations  :  3836
 total energy-change (2. order) :-0.1424077E+00  (-0.1421721E+00)
 number of electron      55.9999988 magnetization       0.5815747
 augmentation part       13.9496137 magnetization       0.6326644

 Broyden mixing:
  rms(total) = 0.10440E+01    rms(broyden)= 0.10440E+01
  rms(prec ) = 0.12872E+01
  weight for this iteration     100.00

 Free energy of the ion-electron system (eV)
  ---------------------------------------------------
  alpha Z        PSCENC =        89.56934524
  Ewald energy   TEWEN  =     -2813.87945180
  -Hartree energ DENC   =     -1148.58314808
  -exchange      EXHF   =         0.00000000
  -V(xc)+E(xc)   XCENC  =       182.03413374
  PAW double counting   =      3307.95688671    -3660.34697251
  entropy T*S    EENTRO =         0.00000000
  eigenvalues    EBANDS =      -676.16058767
  atomic energy  EATOM  =      4691.63160629
  Solvation  Ediel_sol  =         0.00000000
  ---------------------------------------------------
  free energy    TOTEN  =       -27.77818809 eV

  energy without entropy =      -27.77818809  energy(sigma->0) =      -27.77818809


--------------------------------------------------------------------------------------------------------




--------------------------------------- Iteration      1(   6)  ---------------------------------------


    POTLOK:  cpu time    0.0171: real time    0.0181
    SETDIJ:  cpu time    0.2029: real time    0.2029
    EDDIAG:  cpu time    0.2281: real time    0.2292
  RMM-DIIS:  cpu time    0.2619: real time    0.2624
    ORTHCH:  cpu time    0.0204: real time    0.0204
 BZINTS: Fermi energy:   -1.277515;   56.000000 electrons
         Band energy:-0.669069E+03;  BLOECHL correction:   -0.000000
       DOS:  cpu time    0.0068: real time    0.0068
    CHARGE:  cpu time    0.0612: real time    0.0612
    MIXING:  cpu time    0.0010: real time    0.0012
    --------------------------------------------
      LOOP:  cpu time    0.7996: real time    0.8022

 eigenvalue-minimisations  :  3377
 total energy-change (2. order) : 0.6596412E-02  (-0.1849084E+00)
 number of electron      55.9999988 magnetization       0.1427871
 augmentation part       14.0468651 magnetization       0.1111774

 Broyden mixing:
  rms(total) = 0.43130E+00    rms(broyden)= 0.43130E+00
  rms(prec ) = 0.55514E+00
  weight for this iteration     100.00

 eigenvalues of (default mixing * dielectric matrix)
  average eigenvalue GAMMA=   0.7401
  0.7401

 Free energy of the ion-electron system (eV)
  ---------------------------------------------------
  alpha Z        PSCENC =        89.56934524
  Ewald energy   TEWEN  =     -2813.87945180
  -Hartree energ DENC   =     -1157.70026864
  -exchange      EXHF   =         0.00000000
  -V(xc)+E(xc)   XCENC  =       182.96876912
  PAW double counting   =      3407.37534175    -3758.66833479
  entropy T*S    EENTRO =         0.00000000
  eigenvalues    EBANDS =      -669.06859885
  atomic energy  EATOM  =      4691.63160629
  Solvation  Ediel_sol  =         0.00000000
  ---------------------------------------------------
  free energy    TOTEN  =       -27.77159168 eV

  energy without entropy =      -27.77159168  energy(sigma->0) =      -27.77159168


--------------------------------------------------------------------------------------------------------




--------------------------------------- Iteration      1(   7)  ---------------------------------------


    POTLOK:  cpu time    0.0161: real time    0.0166
    SETDIJ:  cpu time    0.2085: real time    0.2085
    EDDIAG:  cpu time    0.2507: real time    0.2506
  RMM-DIIS:  cpu time    0.2689: real time    0.2685
    ORTHCH:  cpu time    0.0205: real time    0.0205
 BZINTS: Fermi energy:   -1.082329;   56.000000 electrons
         Band energy:-0.666685E+03;  BLOECHL correction:    0.000000
       DOS:  cpu time    0.0072: real time    0.0072
    CHARGE:  cpu time    0.0609: real time    0.0609
    MIXING:  cpu time    0.0006: real time    0.0006
    --------------------------------------------
      LOOP:  cpu time    0.8333: real time    0.8333

 eigenvalue-minimisations  :  3361
 total energy-change (2. order) :-0.1618264E+00  (-0.6164404E-01)
 number of electron      55.9999988 magnetization      -0.0574333
 augmentation part       14.0856336 magnetization      -0.0443590

 Broyden mixing:
  rms(total) = 0.23102E+00    rms(broyden)= 0.23102E+00
  rms(prec ) = 0.30015E+00
  weight for this iteration     100.00

 eigenvalues of (default mixing * dielectric matrix)
  average eigenvalue GAMMA=   0.8641
  1.0048  0.7233

 Free energy of the ion-electron system (eV)
  ---------------------------------------------------
  alpha Z        PSCENC =        89.56934524
  Ewald energy   TEWEN  =     -2813.87945180
  -Hartree energ DENC   =     -1160.53056562
  -exchange      EXHF   =         0.00000000
  -V(xc)+E(xc)   XCENC  =       183.29806007
  PAW double counting   =      3474.37577279    -3825.71359755
  entropy T*S    EENTRO =         0.00000000
  eigenvalues    EBANDS =      -666.68458746
  atomic energy  EATOM  =      4691.63160629
  Solvation  Ediel_sol  =         0.00000000
  ---------------------------------------------------
  free energy    TOTEN  =       -27.93341806 eV

  energy without entropy =      -27.93341806  energy(sigma->0) =      -27.93341806


--------------------------------------------------------------------------------------------------------




--------------------------------------- Iteration      1(   8)  ---------------------------------------


    POTLOK:  cpu time    0.0169: real time    0.0186
    SETDIJ:  cpu time    0.2009: real time    0.2009
    EDDIAG:  cpu time    0.2259: real time    0.2259
  RMM-DIIS:  cpu time    0.2929: real time    0.2925
    ORTHCH:  cpu time    0.0204: real time    0.0204
 BZINTS: Fermi energy:   -0.952440;   56.000000 electrons
         Band energy:-0.665737E+03;  BLOECHL correction:    0.000000
       DOS:  cpu time    0.0075: real time    0.0075
    CHARGE:  cpu time    0.0609: real time    0.0609
    MIXING:  cpu time    0.0005: real time    0.0005
    --------------------------------------------
      LOOP:  cpu time    0.8258: real time    0.8272

 eigenvalue-minimisations  :  3741
 total energy-change (2. order) :-0.1969593E-01  (-0.1855886E-01)
 number of electron      55.9999988 magnetization       0.0236655
 augmentation part       14.1082999 magnetization       0.0208031

 Broyden mixing:
  rms(total) = 0.13711E+00    rms(broyden)= 0.13711E+00
  rms(prec ) = 0.16498E+00
  weight for this iteration     100.00

 eigenvalues of (default mixing * dielectric matrix)
  average eigenvalue GAMMA=   1.2417
  2.0292  0.9780  0.7178

 Free energy of the ion-electron system (eV)
  ---------------------------------------------------
  alpha Z        PSCENC =        89.56934524
  Ewald energy   TEWEN  =     -2813.87945180
  -Hartree energ DENC   =     -1161.60693555
  -exchange      EXHF   =         0.00000000
  -V(xc)+E(xc)   XCENC  =       183.64223371
  PAW double counting   =      3571.89662030    -3923.46941144
  entropy T*S    EENTRO =         0.00000000
  eigenvalues    EBANDS =      -665.73712073
  atomic energy  EATOM  =      4691.63160629
  Solvation  Ediel_sol  =         0.00000000
  ---------------------------------------------------
  free energy    TOTEN  =       -27.95311399 eV

  energy without entropy =      -27.95311399  energy(sigma->0) =      -27.95311399


--------------------------------------------------------------------------------------------------------




--------------------------------------- Iteration      1(   9)  ---------------------------------------


    POTLOK:  cpu time    0.0173: real time    0.0179
    SETDIJ:  cpu time    0.2030: real time    0.2029
    EDDIAG:  cpu time    0.2261: real time    0.2261
  RMM-DIIS:  cpu time    0.2758: real time    0.2753
    ORTHCH:  cpu time    0.0204: real time    0.0204
 BZINTS: Fermi energy:   -0.933878;   56.000000 electrons
         Band energy:-0.666495E+03;  BLOECHL correction:    0.000000
       DOS:  cpu time    0.0069: real time    0.0069
    CHARGE:  cpu time    0.0608: real time    0.0608
    MIXING:  cpu time    0.0006: real time    0.0006
    --------------------------------------------
      LOOP:  cpu time    0.8109: real time    0.8109

 eigenvalue-minimisations  :  3564
 total energy-change (2. order) :-0.8149727E-02  (-0.3472681E-02)
 number of electron      55.9999988 magnetization       0.0184709
 augmentation part       14.1100986 magnetization       0.0196625

 Broyden mixing:
  rms(total) = 0.47190E-01    rms(broyden)= 0.47190E-01
  rms(prec ) = 0.54371E-01
  weight for this iteration     100.00

 eigenvalues of (default mixing * dielectric matrix)
  average eigenvalue GAMMA=   1.3202
  2.7186  1.1097  0.7672  0.6854

 Free energy of the ion-electron system (eV)
  ---------------------------------------------------
  alpha Z        PSCENC =        89.56934524
  Ewald energy   TEWEN  =     -2813.87945180
  -Hartree energ DENC   =     -1160.53894443
  -exchange      EXHF   =         0.00000000
  -V(xc)+E(xc)   XCENC  =       183.75872452
  PAW double counting   =      3656.90247758    -4008.90961604
  entropy T*S    EENTRO =         0.00000000
  eigenvalues    EBANDS =      -666.49540508
  atomic energy  EATOM  =      4691.63160629
  Solvation  Ediel_sol  =         0.00000000
  ---------------------------------------------------
  free energy    TOTEN  =       -27.96126372 eV

  energy without entropy =      -27.96126372  energy(sigma->0) =      -27.96126372


--------------------------------------------------------------------------------------------------------




--------------------------------------- Iteration      1(  10)  ---------------------------------------


    POTLOK:  cpu time    0.0158: real time    0.0173
    SETDIJ:  cpu time    0.2028: real time    0.2028
    EDDIAG:  cpu time    0.2259: real time    0.2259
  RMM-DIIS:  cpu time    0.2945: real time    0.2942
    ORTHCH:  cpu time    0.0204: real time    0.0204
 BZINTS: Fermi energy:   -0.935998;   56.000000 electrons
         Band energy:-0.666810E+03;  BLOECHL correction:    0.000000
       DOS:  cpu time    0.0069: real time    0.0069
    CHARGE:  cpu time    0.0614: real time    0.0614
    MIXING:  cpu time    0.0006: real time    0.0006
    --------------------------------------------
      LOOP:  cpu time    0.8283: real time    0.8295

 eigenvalue-minimisations  :  3766
 total energy-change (2. order) :-0.6403402E-02  (-0.9340847E-03)
 number of electron      55.9999988 magnetization       0.0040525
 augmentation part       14.1077425 magnetization       0.0063204

 Broyden mixing:
  rms(total) = 0.12115E-01    rms(broyden)= 0.12115E-01
  rms(prec ) = 0.14359E-01
  weight for this iteration     100.00

 eigenvalues of (default mixing * dielectric matrix)
  average eigenvalue GAMMA=   1.2327
  2.5056  1.3450  0.9225  0.7438  0.6464

 Free energy of the ion-electron system (eV)
  ---------------------------------------------------
  alpha Z        PSCENC =        89.56934524
  Ewald energy   TEWEN  =     -2813.87945180
  -Hartree energ DENC   =     -1160.11786025
  -exchange      EXHF   =         0.00000000
  -V(xc)+E(xc)   XCENC  =       183.78220801
  PAW double counting   =      3677.12196888    -4029.26554475
  entropy T*S    EENTRO =         0.00000000
  eigenvalues    EBANDS =      -666.80993874
  atomic energy  EATOM  =      4691.63160629
  Solvation  Ediel_sol  =         0.00000000
  ---------------------------------------------------
  free energy    TOTEN  =       -27.96766712 eV

  energy without entropy =      -27.96766712  energy(sigma->0) =      -27.96766712


--------------------------------------------------------------------------------------------------------




--------------------------------------- Iteration      1(  11)  ---------------------------------------


    POTLOK:  cpu time    0.0169: real time    0.0177
    SETDIJ:  cpu time    0.2034: real time    0.2034
    EDDIAG:  cpu time    0.2273: real time    0.2273
  RMM-DIIS:  cpu time    0.3082: real time    0.3079
    ORTHCH:  cpu time    0.0203: real time    0.0203
 BZINTS: Fermi energy:   -0.938265;   56.000000 electrons
         Band energy:-0.666930E+03;  BLOECHL correction:   -0.000000
       DOS:  cpu time    0.0069: real time    0.0069
    CHARGE:  cpu time    0.0609: real time    0.0609
    MIXING:  cpu time    0.0006: real time    0.0006
    --------------------------------------------
      LOOP:  cpu time    0.8446: real time    0.8451

 eigenvalue-minimisations  :  4038
 total energy-change (2. order) :-0.6784354E-03  (-0.2970062E-03)
 number of electron      55.9999988 magnetization      -0.0023962
 augmentation part       14.1080760 magnetization      -0.0026772

 Broyden mixing:
  rms(total) = 0.74603E-02    rms(broyden)= 0.74603E-02
  rms(prec ) = 0.92172E-02
  weight for this iteration     100.00

 eigenvalues of (default mixing * dielectric matrix)
  average eigenvalue GAMMA=   1.2238
  2.2306  1.7822  0.9738  0.9738  0.7477  0.6345

 Free energy of the ion-electron system (eV)
  ---------------------------------------------------
  alpha Z        PSCENC =        89.56934524
  Ewald energy   TEWEN  =     -2813.87945180
  -Hartree energ DENC   =     -1160.00300834
  -exchange      EXHF   =         0.00000000
  -V(xc)+E(xc)   XCENC  =       183.77829268
  PAW double counting   =      3675.26273184    -4027.39745045
  entropy T*S    EENTRO =         0.00000000
  eigenvalues    EBANDS =      -666.93041100
  atomic energy  EATOM  =      4691.63160629
  Solvation  Ediel_sol  =         0.00000000
  ---------------------------------------------------
  free energy    TOTEN  =       -27.96834555 eV

  energy without entropy =      -27.96834555  energy(sigma->0) =      -27.96834555


--------------------------------------------------------------------------------------------------------




--------------------------------------- Iteration      1(  12)  ---------------------------------------


    POTLOK:  cpu time    0.0169: real time    0.0182
    SETDIJ:  cpu time    0.2033: real time    0.2033
    EDDIAG:  cpu time    0.2264: real time    0.2264
  RMM-DIIS:  cpu time    0.3167: real time    0.3163
    ORTHCH:  cpu time    0.0203: real time    0.0203
 BZINTS: Fermi energy:   -0.942402;   56.000000 electrons
         Band energy:-0.667074E+03;  BLOECHL correction:    0.000000
       DOS:  cpu time    0.0069: real time    0.0069
    CHARGE:  cpu time    0.0612: real time    0.0612
    MIXING:  cpu time    0.0006: real time    0.0006
    --------------------------------------------
      LOOP:  cpu time    0.8524: real time    0.8533

 eigenvalue-minimisations  :  4061
 total energy-change (2. order) :-0.1882095E-03  (-0.6522090E-04)
 number of electron      55.9999988 magnetization      -0.0021117
 augmentation part       14.1069895 magnetization      -0.0017433

 Broyden mixing:
  rms(total) = 0.30793E-02    rms(broyden)= 0.30793E-02
  rms(prec ) = 0.42126E-02
  weight for this iteration     100.00

 eigenvalues of (default mixing * dielectric matrix)
  average eigenvalue GAMMA=   1.3632
  2.5887  2.5887  1.2643  0.9329  0.7726  0.7726  0.6224

 Free energy of the ion-electron system (eV)
  ---------------------------------------------------
  alpha Z        PSCENC =        89.56934524
  Ewald energy   TEWEN  =     -2813.87945180
  -Hartree energ DENC   =     -1159.84692063
  -exchange      EXHF   =         0.00000000
  -V(xc)+E(xc)   XCENC  =       183.76709585
  PAW double counting   =      3670.30013199    -4022.43670455
  entropy T*S    EENTRO =         0.00000000
  eigenvalues    EBANDS =      -667.07363614
  atomic energy  EATOM  =      4691.63160629
  Solvation  Ediel_sol  =         0.00000000
  ---------------------------------------------------
  free energy    TOTEN  =       -27.96853376 eV

  energy without entropy =      -27.96853376  energy(sigma->0) =      -27.96853376


--------------------------------------------------------------------------------------------------------




--------------------------------------- Iteration      1(  13)  ---------------------------------------


    POTLOK:  cpu time    0.0154: real time    0.0171
    SETDIJ:  cpu time    0.2035: real time    0.2035
    EDDIAG:  cpu time    0.2262: real time    0.2262
  RMM-DIIS:  cpu time    0.2585: real time    0.2580
    ORTHCH:  cpu time    0.0203: real time    0.0203
 BZINTS: Fermi energy:   -0.940915;   56.000000 electrons
         Band energy:-0.667077E+03;  BLOECHL correction:    0.000000
       DOS:  cpu time    0.0069: real time    0.0069
    CHARGE:  cpu time    0.0609: real time    0.0609
    MIXING:  cpu time    0.0006: real time    0.0006
    --------------------------------------------
      LOOP:  cpu time    0.7922: real time    0.7933

 eigenvalue-minimisations  :  3416
 total energy-change (2. order) :-0.5623000E-04  (-0.1620608E-04)
 number of electron      55.9999988 magnetization      -0.0002131
 augmentation part       14.1069642 magnetization      -0.0003229

 Broyden mixing:
  rms(total) = 0.16319E-02    rms(broyden)= 0.16319E-02
  rms(prec ) = 0.22947E-02
  weight for this iteration     100.00

 eigenvalues of (default mixing * dielectric matrix)
  average eigenvalue GAMMA=   1.3577
  2.5654  2.5654  1.6443  0.9834  0.9834  0.7484  0.7484  0.6232

 Free energy of the ion-electron system (eV)
  ---------------------------------------------------
  alpha Z        PSCENC =        89.56934524
  Ewald energy   TEWEN  =     -2813.87945180
  -Hartree energ DENC   =     -1159.84410671
  -exchange      EXHF   =         0.00000000
  -V(xc)+E(xc)   XCENC  =       183.77126618
  PAW double counting   =      3670.18232849    -4022.32272315
  entropy T*S    EENTRO =         0.00000000
  eigenvalues    EBANDS =      -667.07685452
  atomic energy  EATOM  =      4691.63160629
  Solvation  Ediel_sol  =         0.00000000
  ---------------------------------------------------
  free energy    TOTEN  =       -27.96858999 eV

  energy without entropy =      -27.96858999  energy(sigma->0) =      -27.96858999


--------------------------------------------------------------------------------------------------------




--------------------------------------- Iteration      1(  14)  ---------------------------------------


    POTLOK:  cpu time    0.0153: real time    0.0175
    SETDIJ:  cpu time    0.2035: real time    0.2035
    EDDIAG:  cpu time    0.2211: real time    0.2210
  RMM-DIIS:  cpu time    0.2516: real time    0.2514
    ORTHCH:  cpu time    0.0202: real time    0.0202
 BZINTS: Fermi energy:   -0.938779;   56.000000 electrons
         Band energy:-0.667017E+03;  BLOECHL correction:    0.000000
       DOS:  cpu time    0.0069: real time    0.0069
    --------------------------------------------
      LOOP:  cpu time    0.7186: real time    0.7204

 eigenvalue-minimisations  :  3364
 total energy-change (2. order) :-0.4707416E-05  (-0.5523529E-05)
 number of electron      55.9999988 magnetization      -0.0002131
 augmentation part       14.1069642 magnetization      -0.0003229

 Free energy of the ion-electron system (eV)
  ---------------------------------------------------
  alpha Z        PSCENC =        89.56934524
  Ewald energy   TEWEN  =     -2813.87945180
  -Hartree energ DENC   =     -1159.90578156
  -exchange      EXHF   =         0.00000000
  -V(xc)+E(xc)   XCENC  =       183.77682476
  PAW double counting   =      3670.72317054    -4022.86720528
  entropy T*S    EENTRO =         0.00000000
  eigenvalues    EBANDS =      -667.01710288
  atomic energy  EATOM  =      4691.63160629
  Solvation  Ediel_sol  =         0.00000000
  ---------------------------------------------------
  free energy    TOTEN  =       -27.96859470 eV

  energy without entropy =      -27.96859470  energy(sigma->0) =      -27.96859470


--------------------------------------------------------------------------------------------------------




 average (electrostatic) potential at core
  the test charge radii are     0.9254  0.9406
  (the norm of the test charge is              1.0000)
       1 -47.3280       2 -47.3280       3 -47.3280       4 -47.3280       5 -93.8255
       6 -93.8255       7 -93.8255       8 -93.8255



 E-fermi :  -0.9388     XC(G=0):  -8.2131     alpha+bet : -7.8680


 spin component 1

 k-point     1 :       0.0000    0.0000    0.0000
  band No.  band energies     occupation
      1     -21.6633      1.00000
      2     -21.6633      1.00000
      3     -21.6633      1.00000
      4     -21.6522      1.00000
      5     -21.6522      1.00000
      6     -21.6522      1.00000
      7     -21.6522      1.00000
      8     -21.6522      1.00000
      9     -21.6522      1.00000
     10     -21.6447      1.00000
     11     -21.6447      1.00000
     12     -21.6447      1.00000
     13     -13.5216      1.00000
     14     -13.1565      1.00000
     15     -13.1565      1.00000
     16     -13.1565      1.00000
     17      -2.5697      1.00000
     18      -2.5697      1.00000
     19      -2.5697      1.00000
     20      -1.5217      1.00000
     21      -1.5217      1.00000
     22      -1.5217      1.00000
     23      -1.5217      1.00000
     24      -1.5217      1.00000
     25      -1.5217      1.00000
     26      -0.9388      1.00000
     27      -0.9388      1.00000
     28      -0.9388      1.00000
     29       3.8951      0.00000
     30       6.4213      0.00000
     31       6.4213      0.00000
     32       6.4213      0.00000
     33       6.9750      0.00000
     34       6.9750      0.00000
     35       6.9750      0.00000
     36      10.0148      0.00000

 k-point     2 :       0.1667    0.0000    0.0000
  band No.  band energies     occupation
      1     -21.6625      1.00000
      2     -21.6625      1.00000
      3     -21.6625      1.00000
      4     -21.6529      1.00000
      5     -21.6529      1.00000
      6     -21.6527      1.00000
      7     -21.6527      1.00000
      8     -21.6517      1.00000
      9     -21.6517      1.00000
     10     -21.6465      1.00000
     11     -21.6452      1.00000
     12     -21.6452      1.00000
     13     -13.4948      1.00000
     14     -13.1783      1.00000
     15     -13.1526      1.00000
     16     -13.1526      1.00000
     17      -2.5119      1.00000
     18      -2.5119      1.00000
     19      -2.5090      1.00000
     20      -1.6087      1.00000
     21      -1.6087      1.00000
     22      -1.5607      1.00000
     23      -1.5607      1.00000
     24      -1.4868      1.00000
     25      -1.4868      1.00000
     26      -1.1282      1.00000
     27      -0.9827      1.00000
     28      -0.9827      1.00000
     29       4.2049      0.00000
     30       6.4930      0.00000
     31       6.6596      0.00000
     32       6.6596      0.00000
     33       7.0931      0.00000
     34       7.1871      0.00000
     35       7.1872      0.00000
     36       9.6339      0.00000

 k-point     3 :       0.3333    0.0000    0.0000
  band No.  band energies     occupation
      1     -21.6605      1.00000
      2     -21.6605      1.00000
      3     -21.6601      1.00000
      4     -21.6549      1.00000
      5     -21.6549      1.00000
      6     -21.6536      1.00000
      7     -21.6536      1.00000
      8     -21.6509      1.00000
      9     -21.6503      1.00000
     10     -21.6503      1.00000
     11     -21.6466      1.00000
     12     -21.6466      1.00000
     13     -13.4232      1.00000
     14     -13.2400      1.00000
     15     -13.1448      1.00000
     16     -13.1448      1.00000
     17      -2.3471      1.00000
     18      -2.3471      1.00000
     19      -2.3179      1.00000
     20      -1.8304      1.00000
     21      -1.8304      1.00000
     22      -1.6365      1.00000
     23      -1.6365      1.00000
     24      -1.5517      1.00000
     25      -1.3888      1.00000
     26      -1.3888      1.00000
     27      -1.0986      1.00000
     28      -1.0986      1.00000
     29       4.9678      0.00000
     30       6.4521      0.00000
     31       7.2609      0.00000
     32       7.2610      0.00000
     33       7.4441      0.00000
     34       7.7575      0.00000
     35       7.7578      0.00000
     36       8.9177      0.00000

 k-point     4 :       0.5000    0.0000    0.0000
  band No.  band energies     occupation
      1     -21.6577      1.00000
      2     -21.6577      1.00000
      3     -21.6577      1.00000
      4     -21.6577      1.00000
      5     -21.6560      1.00000
      6     -21.6560      1.00000
      7     -21.6541      1.00000
      8     -21.6541      1.00000
      9     -21.6484      1.00000
     10     -21.6484      1.00000
     11     -21.6484      1.00000
     12     -21.6484      1.00000
     13     -13.3291      1.00000
     14     -13.3291      1.00000
     15     -13.1409      1.00000
     16     -13.1409      1.00000
     17      -2.1026      1.00000
     18      -2.1026      1.00000
     19      -2.1026      1.00000
     20      -2.1026      1.00000
     21      -1.9880      1.00000
     22      -1.9880      1.00000
     23      -1.6734      1.00000
     24      -1.6734      1.00000
     25      -1.2481      1.00000
     26      -1.2481      1.00000
     27      -1.2481      1.00000
     28      -1.2481      1.00000
     29       5.8594      0.00000
     30       5.8594      0.00000
     31       7.7014      0.00000
     32       7.7230      0.00000
     33       8.0216      0.00000
     34       8.0663      0.00000
     35       8.5184      0.00000
     36       8.5185      0.00000

 k-point     5 :       0.1667    0.1667    0.0000
  band No.  band energies     occupation
      1     -21.6623      1.00000
      2     -21.6623      1.00000
      3     -21.6618      1.00000
      4     -21.6554      1.00000
      5     -21.6524      1.00000
      6     -21.6524      1.00000
      7     -21.6518      1.00000
      8     -21.6518      1.00000
      9     -21.6513      1.00000
     10     -21.6490      1.00000
     11     -21.6457      1.00000
     12     -21.6448      1.00000
     13     -13.4694      1.00000
     14     -13.1727      1.00000
     15     -13.1727      1.00000
     16     -13.1504      1.00000
     17      -2.4732      1.00000
     18      -2.4732      1.00000
     19      -2.4552      1.00000
     20      -1.7920      1.00000
     21      -1.5714      1.00000
     22      -1.5714      1.00000
     23      -1.5105      1.00000
     24      -1.5105      1.00000
     25      -1.4751      1.00000
     26      -1.3365      1.00000
     27      -1.0301      1.00000
     28      -0.9678      1.00000
     29       4.4747      0.00000
     30       6.7292      0.00000
     31       6.7292      0.00000
     32       6.8008      0.00000
     33       7.2951      0.00000
     34       7.2951      0.00000
     35       7.4290      0.00000
     36       9.3711      0.00000

 k-point     6 :       0.3333    0.1667    0.0000
  band No.  band energies     occupation
      1     -21.6616      1.00000
      2     -21.6610      1.00000
      3     -21.6598      1.00000
      4     -21.6582      1.00000
      5     -21.6544      1.00000
      6     -21.6534      1.00000
      7     -21.6519      1.00000
      8     -21.6510      1.00000
      9     -21.6510      1.00000
     10     -21.6498      1.00000
     11     -21.6471      1.00000
     12     -21.6456      1.00000
     13     -13.4015      1.00000
     14     -13.2298      1.00000
     15     -13.1602      1.00000
     16     -13.1472      1.00000
     17      -2.3734      1.00000
     18      -2.3376      1.00000
     19      -2.2933      1.00000
     20      -2.0231      1.00000
     21      -1.7875      1.00000
     22      -1.7141      1.00000
     23      -1.5436      1.00000
     24      -1.4795      1.00000
     25      -1.4666      1.00000
     26      -1.3792      1.00000
     27      -1.1550      1.00000
     28      -1.0532      1.00000
     29       5.1656      0.00000
     30       6.6545      0.00000
     31       7.2667      0.00000
     32       7.3405      0.00000
     33       7.6137      0.00000
     34       7.8347      0.00000
     35       7.9207      0.00000
     36       8.9685      0.00000

 k-point     7 :       0.5000    0.1667    0.0000
  band No.  band energies     occupation
      1     -21.6603      1.00000
      2     -21.6603      1.00000
      3     -21.6579      1.00000
      4     -21.6579      1.00000
      5     -21.6571      1.00000
      6     -21.6571      1.00000
      7     -21.6514      1.00000
      8     -21.6514      1.00000
      9     -21.6490      1.00000
     10     -21.6490      1.00000
     11     -21.6475      1.00000
     12     -21.6475      1.00000
     13     -13.3129      1.00000
     14     -13.3129      1.00000
     15     -13.1498      1.00000
     16     -13.1498      1.00000
     17      -2.2223      1.00000
     18      -2.2223      1.00000
     19      -2.0785      1.00000
     20      -2.0785      1.00000
     21      -2.0536      1.00000
     22      -2.0536      1.00000
     23      -1.5291      1.00000
     24      -1.5291      1.00000
     25      -1.3158      1.00000
     26      -1.3158      1.00000
     27      -1.2099      1.00000
     28      -1.2099      1.00000
     29       6.0213      0.00000
     30       6.0213      0.00000
     31       7.8677      0.00000
     32       7.9008      0.00000
     33       8.1229      0.00000
     34       8.1420      0.00000
     35       8.1558      0.00000
     36       8.4196      0.00000

 k-point     8 :       0.3333    0.3333    0.0000
  band No.  band energies     occupation
      1     -21.6625      1.00000
      2     -21.6625      1.00000
      3     -21.6614      1.00000
      4     -21.6579      1.00000
      5     -21.6578      1.00000
      6     -21.6528      1.00000
      7     -21.6528      1.00000
      8     -21.6490      1.00000
      9     -21.6489      1.00000
     10     -21.6489      1.00000
     11     -21.6486      1.00000
     12     -21.6453      1.00000
     13     -13.3443      1.00000
     14     -13.2046      1.00000
     15     -13.2046      1.00000
     16     -13.1568      1.00000
     17      -2.3708      1.00000
     18      -2.3708      1.00000
     19      -2.2384      1.00000
     20      -2.1402      1.00000
     21      -2.0067      1.00000
     22      -1.6665      1.00000
     23      -1.6665      1.00000
     24      -1.3517      1.00000
     25      -1.3502      1.00000
     26      -1.3502      1.00000
     27      -1.3028      1.00000
     28      -1.0559      1.00000
     29       5.7020      0.00000
     30       7.1568      0.00000
     31       7.1568      0.00000
     32       7.4148      0.00000
     33       8.0478      0.00000
     34       8.0656      0.00000
     35       8.2180      0.00000
     36       8.7333      0.00000

 k-point     9 :       0.5000    0.3333    0.0000
  band No.  band energies     occupation
      1     -21.6629      1.00000
      2     -21.6629      1.00000
      3     -21.6612      1.00000
      4     -21.6612      1.00000
      5     -21.6554      1.00000
      6     -21.6554      1.00000
      7     -21.6507      1.00000
      8     -21.6507      1.00000
      9     -21.6484      1.00000
     10     -21.6484      1.00000
     11     -21.6465      1.00000
     12     -21.6465      1.00000
     13     -13.2712      1.00000
     14     -13.2712      1.00000
     15     -13.1767      1.00000
     16     -13.1767      1.00000
     17      -2.3551      1.00000
     18      -2.3551      1.00000
     19      -2.2501      1.00000
     20      -2.2501      1.00000
     21      -1.9148      1.00000
     22      -1.9148      1.00000
     23      -1.4913      1.00000
     24      -1.4913      1.00000
     25      -1.3234      1.00000
     26      -1.3234      1.00000
     27      -1.1659      1.00000
     28      -1.1659      1.00000
     29       6.4415      0.00000
     30       6.4415      0.00000
     31       7.5536      0.00000
     32       7.5540      0.00000
     33       8.3089      0.00000
     34       8.3389      0.00000
     35       8.3944      0.00000
     36       8.5565      0.00000

 k-point    10 :       0.5000    0.5000    0.0000
  band No.  band energies     occupation
      1     -21.6633      1.00000
      2     -21.6633      1.00000
      3     -21.6633      1.00000
      4     -21.6633      1.00000
      5     -21.6530      1.00000
      6     -21.6530      1.00000
      7     -21.6530      1.00000
      8     -21.6530      1.00000
      9     -21.6467      1.00000
     10     -21.6467      1.00000
     11     -21.6467      1.00000
     12     -21.6467      1.00000
     13     -13.2203      1.00000
     14     -13.2203      1.00000
     15     -13.2203      1.00000
     16     -13.2203      1.00000
     17      -2.3658      1.00000
     18      -2.3658      1.00000
     19      -2.3658      1.00000
     20      -2.3658      1.00000
     21      -1.7121      1.00000
     22      -1.7121      1.00000
     23      -1.7121      1.00000
     24      -1.7121      1.00000
     25      -1.1950      1.00000
     26      -1.1950      1.00000
     27      -1.1950      1.00000
     28      -1.1950      1.00000
     29       6.9804      0.00000
     30       6.9804      0.00000
     31       6.9804      0.00000
     32       6.9805      0.00000
     33       8.5219      0.00000
     34       8.5247      0.00000
     35       8.5828      0.00000
     36       8.8358      0.00000

 k-point    11 :       0.1667    0.1667    0.1667
  band No.  band energies     occupation
      1     -21.6624      1.00000
      2     -21.6624      1.00000
      3     -21.6624      1.00000
      4     -21.6538      1.00000
      5     -21.6538      1.00000
      6     -21.6538      1.00000
      7     -21.6515      1.00000
      8     -21.6508      1.00000
      9     -21.6508      1.00000
     10     -21.6508      1.00000
     11     -21.6452      1.00000
     12     -21.6452      1.00000
     13     -13.4453      1.00000
     14     -13.1687      1.00000
     15     -13.1687      1.00000
     16     -13.1687      1.00000
     17      -2.4503      1.00000
     18      -2.4503      1.00000
     19      -2.4503      1.00000
     20      -1.7062      1.00000
     21      -1.7062      1.00000
     22      -1.7062      1.00000
     23      -1.5330      1.00000
     24      -1.4442      1.00000
     25      -1.4442      1.00000
     26      -1.4442      1.00000
     27      -1.0053      1.00000
     28      -1.0053      1.00000
     29       4.7029      0.00000
     30       6.8534      0.00000
     31       6.8536      0.00000
     32       6.8536      0.00000
     33       7.5348      0.00000
     34       7.5349      0.00000
     35       7.5362      0.00000
     36       9.3090      0.00000

 k-point    12 :       0.3333    0.1667    0.1667
  band No.  band energies     occupation
      1     -21.6627      1.00000
      2     -21.6627      1.00000
      3     -21.6623      1.00000
      4     -21.6560      1.00000
      5     -21.6548      1.00000
      6     -21.6548      1.00000
      7     -21.6507      1.00000
      8     -21.6504      1.00000
      9     -21.6504      1.00000
     10     -21.6496      1.00000
     11     -21.6464      1.00000
     12     -21.6458      1.00000
     13     -13.3812      1.00000
     14     -13.2212      1.00000
     15     -13.1608      1.00000
     16     -13.1608      1.00000
     17      -2.4032      1.00000
     18      -2.4032      1.00000
     19      -2.3833      1.00000
     20      -1.8820      1.00000
     21      -1.8486      1.00000
     22      -1.8486      1.00000
     23      -1.5043      1.00000
     24      -1.4401      1.00000
     25      -1.4401      1.00000
     26      -1.3577      1.00000
     27      -1.1048      1.00000
     28      -1.0824      1.00000
     29       5.3082      0.00000
     30       6.7301      0.00000
     31       7.2621      0.00000
     32       7.2626      0.00000
     33       7.8308      0.00000
     34       8.0069      0.00000
     35       8.0109      0.00000
     36       8.9019      0.00000

 k-point    13 :       0.5000    0.1667    0.1667
  band No.  band energies     occupation
      1     -21.6630      1.00000
      2     -21.6630      1.00000
      3     -21.6601      1.00000
      4     -21.6601      1.00000
      5     -21.6550      1.00000
      6     -21.6550      1.00000
      7     -21.6504      1.00000
      8     -21.6504      1.00000
      9     -21.6480      1.00000
     10     -21.6480      1.00000
     11     -21.6478      1.00000
     12     -21.6478      1.00000
     13     -13.2983      1.00000
     14     -13.2983      1.00000
     15     -13.1568      1.00000
     16     -13.1568      1.00000
     17      -2.3797      1.00000
     18      -2.3797      1.00000
     19      -2.1922      1.00000
     20      -2.1922      1.00000
     21      -1.9013      1.00000
     22      -1.9013      1.00000
     23      -1.4563      1.00000
     24      -1.4563      1.00000
     25      -1.2719      1.00000
     26      -1.2719      1.00000
     27      -1.2345      1.00000
     28      -1.2345      1.00000
     29       6.0957      0.00000
     30       6.0957      0.00000
     31       7.7244      0.00000
     32       7.7282      0.00000
     33       8.0232      0.00000
     34       8.0353      0.00000
     35       8.2674      0.00000
     36       8.4701      0.00000

 k-point    14 :       0.3333    0.3333    0.1667
  band No.  band energies     occupation
      1     -21.6648      1.00000
      2     -21.6645      1.00000
      3     -21.6645      1.00000
      4     -21.6604      1.00000
      5     -21.6541      1.00000
      6     -21.6514      1.00000
      7     -21.6514      1.00000
      8     -21.6488      1.00000
      9     -21.6487      1.00000
     10     -21.6487      1.00000
     11     -21.6473      1.00000
     12     -21.6456      1.00000
     13     -13.3280      1.00000
     14     -13.2004      1.00000
     15     -13.2004      1.00000
     16     -13.1655      1.00000
     17      -2.4801      1.00000
     18      -2.4737      1.00000
     19      -2.4737      1.00000
     20      -2.1729      1.00000
     21      -1.8318      1.00000
     22      -1.5907      1.00000
     23      -1.5907      1.00000
     24      -1.3327      1.00000
     25      -1.3279      1.00000
     26      -1.3279      1.00000
     27      -1.2061      1.00000
     28      -1.0765      1.00000
     29       5.7170      0.00000
     30       6.9482      0.00000
     31       6.9482      0.00000
     32       7.2144      0.00000
     33       8.2723      0.00000
     34       8.3022      0.00000
     35       8.3059      0.00000
     36       8.7477      0.00000

 k-point    15 :       0.5000    0.3333    0.1667
  band No.  band energies     occupation
      1     -21.6656      1.00000
      2     -21.6656      1.00000
      3     -21.6637      1.00000
      4     -21.6637      1.00000
      5     -21.6528      1.00000
      6     -21.6528      1.00000
      7     -21.6491      1.00000
      8     -21.6491      1.00000
      9     -21.6482      1.00000
     10     -21.6482      1.00000
     11     -21.6466      1.00000
     12     -21.6466      1.00000
     13     -13.2609      1.00000
     14     -13.2609      1.00000
     15     -13.1789      1.00000
     16     -13.1789      1.00000
[...]

 k-point    15 :       0.5000    0.3333    0.1667
  band No.  band energies     occupation
      1     -21.6657      1.00000
      2     -21.6657      1.00000
      3     -21.6638      1.00000
      4     -21.6638      1.00000
      5     -21.6528      1.00000
      6     -21.6528      1.00000
      7     -21.6492      1.00000
      8     -21.6492      1.00000
      9     -21.6483      1.00000
     10     -21.6483      1.00000
     11     -21.6467      1.00000
     12     -21.6467      1.00000
     13     -13.2608      1.00000
     14     -13.2608      1.00000
     15     -13.1789      1.00000
     16     -13.1789      1.00000
     17      -2.5201      1.00000
     18      -2.5201      1.00000
     19      -2.3952      1.00000
     20      -2.3952      1.00000
     21      -1.7178      1.00000
     22      -1.7178      1.00000
     23      -1.3725      1.00000
     24      -1.3725      1.00000
     25      -1.3059      1.00000
     26      -1.3059      1.00000
     27      -1.1782      1.00000
     28      -1.1782      1.00000
     29       6.3201      0.00000
     30       6.3201      0.00000
     31       7.1568      0.00000
     32       7.1569      0.00000
     33       8.4666      0.00000
     34       8.5370      0.00000
     35       8.6548      0.00000
     36       8.7340      0.00000

 k-point    16 :       0.5000    0.5000    0.1667
  band No.  band energies     occupation
      1     -21.6661      1.00000
      2     -21.6661      1.00000
      3     -21.6661      1.00000
      4     -21.6661      1.00000
      5     -21.6509      1.00000
      6     -21.6509      1.00000
      7     -21.6509      1.00000
      8     -21.6509      1.00000
      9     -21.6468      1.00000
     10     -21.6468      1.00000
     11     -21.6468      1.00000
     12     -21.6468      1.00000
     13     -13.2160      1.00000
     14     -13.2160      1.00000
     15     -13.2160      1.00000
     16     -13.2160      1.00000
     17      -2.5270      1.00000
     18      -2.5270      1.00000
     19      -2.5270      1.00000
     20      -2.5270      1.00000
     21      -1.5369      1.00000
     22      -1.5369      1.00000
     23      -1.5369      1.00000
     24      -1.5369      1.00000
     25      -1.1945      1.00000
     26      -1.1945      1.00000
     27      -1.1945      1.00000
     28      -1.1945      1.00000
     29       6.6798      0.00000
     30       6.6798      0.00000
     31       6.6798      0.00000
     32       6.6798      0.00000
     33       8.7680      0.00000
     34       8.7878      0.00000
     35       8.8338      0.00000
     36       8.8891      0.00000

 k-point    17 :       0.3333    0.3333    0.3333
  band No.  band energies     occupation
      1     -21.6677      1.00000
      2     -21.6677      1.00000
      3     -21.6677      1.00000
      4     -21.6649      1.00000
      5     -21.6499      1.00000
      6     -21.6499      1.00000
      7     -21.6499      1.00000
      8     -21.6482      1.00000
      9     -21.6482      1.00000
     10     -21.6482      1.00000
     11     -21.6463      1.00000
     12     -21.6463      1.00000
     13     -13.2862      1.00000
     14     -13.1921      1.00000
     15     -13.1921      1.00000
     16     -13.1921      1.00000
     17      -2.6346      1.00000
     18      -2.6346      1.00000
     19      -2.6346      1.00000
     20      -2.4439      1.00000
     21      -1.4883      1.00000
     22      -1.4883      1.00000
     23      -1.4883      1.00000
     24      -1.2801      1.00000
     25      -1.2801      1.00000
     26      -1.2801      1.00000
     27      -1.1322      1.00000
     28      -1.1322      1.00000
     29       5.8433      0.00000
     30       6.6993      0.00000
     31       6.6993      0.00000
     32       6.6993      0.00000
     33       8.6683      0.00000
     34       8.6800      0.00000
     35       8.7256      0.00000
     36       8.9287      0.00000

 k-point    18 :       0.5000    0.3333    0.3333
  band No.  band energies     occupation
      1     -21.6691      1.00000
      2     -21.6691      1.00000
      3     -21.6678      1.00000
      4     -21.6678      1.00000
      5     -21.6496      1.00000
      6     -21.6496      1.00000
      7     -21.6477      1.00000
      8     -21.6477      1.00000
      9     -21.6472      1.00000
     10     -21.6472      1.00000
     11     -21.6471      1.00000
     12     -21.6471      1.00000
     13     -13.2354      1.00000
     14     -13.2354      1.00000
     15     -13.1879      1.00000
     16     -13.1879      1.00000
     17      -2.7026      1.00000
     18      -2.7026      1.00000
     19      -2.6209      1.00000
     20      -2.6209      1.00000
     21      -1.4507      1.00000
     22      -1.4507      1.00000
     23      -1.2555      1.00000
     24      -1.2555      1.00000
     25      -1.2311      1.00000
     26      -1.2311      1.00000
     27      -1.2069      1.00000
     28      -1.2069      1.00000
     29       6.1803      0.00000
     30       6.1803      0.00000
     31       6.6105      0.00000
     32       6.6105      0.00000
     33       8.8828      0.00000
     34       8.9074      0.00000
     35       8.9535      0.00000
     36       9.2473      0.00000

 k-point    19 :       0.5000    0.5000    0.3333
  band No.  band energies     occupation
      1     -21.6699      1.00000
      2     -21.6699      1.00000
      3     -21.6699      1.00000
      4     -21.6699      1.00000
      5     -21.6479      1.00000
      6     -21.6479      1.00000
      7     -21.6479      1.00000
      8     -21.6479      1.00000
      9     -21.6468      1.00000
     10     -21.6468      1.00000
     11     -21.6468      1.00000
     12     -21.6468      1.00000
     13     -13.2075      1.00000
     14     -13.2075      1.00000
     15     -13.2075      1.00000
     16     -13.2075      1.00000
     17      -2.7424      1.00000
     18      -2.7424      1.00000
     19      -2.7424      1.00000
     20      -2.7424      1.00000
     21      -1.2926      1.00000
     22      -1.2926      1.00000
     23      -1.2926      1.00000
     24      -1.2926      1.00000
     25      -1.1934      1.00000
     26      -1.1934      1.00000
     27      -1.1934      1.00000
     28      -1.1934      1.00000
     29       6.2601      0.00000
     30       6.2601      0.00000
     31       6.2601      0.00000
     32       6.2601      0.00000
     33       9.1387      0.00000
     34       9.1425      0.00000
     35       9.1584      0.00000
     36       9.5951      0.00000

 k-point    20 :       0.5000    0.5000    0.5000
  band No.  band energies     occupation
      1     -21.6715      1.00000
      2     -21.6715      1.00000
      3     -21.6715      1.00000
      4     -21.6715      1.00000
      5     -21.6468      1.00000
      6     -21.6468      1.00000
      7     -21.6468      1.00000
      8     -21.6468      1.00000
      9     -21.6468      1.00000
     10     -21.6468      1.00000
     11     -21.6468      1.00000
     12     -21.6468      1.00000
     13     -13.2033      1.00000
     14     -13.2033      1.00000
     15     -13.2033      1.00000
     16     -13.2033      1.00000
     17      -2.8271      1.00000
     18      -2.8271      1.00000
     19      -2.8271      1.00000
     20      -2.8271      1.00000
     21      -1.1929      1.00000
     22      -1.1929      1.00000
     23      -1.1929      1.00000
     24      -1.1929      1.00000
     25      -1.1929      1.00000
     26      -1.1929      1.00000
     27      -1.1929      1.00000
     28      -1.1929      1.00000
     29       6.0922      0.00000
     30       6.0922      0.00000
     31       6.0922      0.00000
     32       6.0922      0.00000
     33       9.3453      0.00000
     34       9.3502      0.00000
     35       9.3543      0.00000
     36       9.3616      0.00000


--------------------------------------------------------------------------------------------------------


 soft charge-density along one line, spin component           1
         0         1         2         3         4         5         6         7         8         9
 total charge-density along one line

 soft charge-density along one line, spin component           2
         0         1         2         3         4         5         6         7         8         9
 total charge-density along one line

 pseudopotential strength for first ion, spin component:           1
-25.672   0.000  -0.000   2.648  -0.000   0.000  -0.000  -0.000
  0.000 -25.672  -0.000  -0.000   2.648   0.000  -0.000  -0.000
 -0.000  -0.000 -25.672   0.000   0.000   2.648   0.000  -0.000
  2.648  -0.000   0.000   6.479  -0.000  -0.000  -0.000  -0.000
 -0.000   2.648   0.000  -0.000   6.479  -0.000   0.000  -0.000
  0.000   0.000   2.648  -0.000  -0.000   6.479   0.000   0.000
 -0.000  -0.000   0.000  -0.000   0.000   0.000   1.427   6.998
 -0.000  -0.000  -0.000  -0.000  -0.000   0.000   6.998  34.047
 pseudopotential strength for first ion, spin component:           2
-25.672   0.000  -0.000   2.648  -0.000   0.000  -0.000  -0.000
  0.000 -25.672  -0.000  -0.000   2.648   0.000  -0.000  -0.000
 -0.000  -0.000 -25.672   0.000   0.000   2.648   0.000  -0.000
  2.648  -0.000   0.000   6.479  -0.000  -0.000  -0.000  -0.000
 -0.000   2.648   0.000  -0.000   6.479  -0.000   0.000  -0.000
  0.000   0.000   2.648  -0.000  -0.000   6.479   0.000   0.000
 -0.000  -0.000   0.000  -0.000   0.000   0.000   1.427   6.999
 -0.000  -0.000  -0.000  -0.000  -0.000   0.000   6.999  34.047
 total augmentation occupancy for first ion, spin component:           1
  2.003   0.000   0.000   0.002   0.000   0.000   0.000  -0.000
  0.000   2.003   0.000   0.000   0.002  -0.000   0.000   0.000
  0.000   0.000   2.003   0.000   0.000   0.002   0.000   0.000
  0.002   0.000   0.000   0.015  -0.000  -0.000   0.000   0.000
  0.000   0.002  -0.000  -0.000   0.015  -0.000   0.000   0.000
  0.000   0.000   0.002  -0.000  -0.000   0.015   0.000   0.000
  0.000   0.000   0.000   0.000   0.000   0.000   0.369  -0.001
  0.000  -0.000  -0.000   0.000   0.000   0.000  -0.001   0.000
 total augmentation occupancy for first ion, spin component:           2
  0.000   0.000   0.000   0.000   0.000   0.000   0.000   0.000
  0.000   0.000   0.000   0.000   0.000   0.000   0.000   0.000
  0.000   0.000   0.000   0.000   0.000   0.000   0.000   0.000
  0.000   0.000   0.000   0.000   0.000   0.000   0.000   0.000
  0.000   0.000   0.000   0.000   0.000   0.000   0.000   0.000
  0.000   0.000   0.000   0.000   0.000   0.000   0.000   0.000
  0.000   0.000   0.000   0.000   0.000   0.000  -0.000   0.000
  0.000  -0.000  -0.000   0.000   0.000   0.000   0.000  -0.000


------------------------ aborting loop because EDIFF is reached ----------------------------------------





 total charge

# of ion       s       p       d       tot
------------------------------------------
    1        0.041   5.979   0.000   6.020
    2        0.041   5.979   0.000   6.020
    3        0.041   5.979   0.000   6.020
    4        0.041   5.979   0.000   6.020
    5        1.578   3.548   0.000   5.126
    6        1.578   3.548   0.000   5.126
    7        1.578   3.548   0.000   5.126
    8        1.578   3.548   0.000   5.126
--------------------------------------------------
tot          6.474  38.108   0.000  44.582



 magnetization (x)

# of ion       s       p       d       tot
------------------------------------------
    1        0.000  -0.000   0.000  -0.000
    2        0.000  -0.000   0.000  -0.000
    3        0.000  -0.000   0.000  -0.000
    4        0.000  -0.000   0.000  -0.000
    5       -0.000  -0.000   0.000  -0.000
    6       -0.000  -0.000   0.000  -0.000
    7       -0.000  -0.000   0.000  -0.000
    8       -0.000  -0.000   0.000  -0.000
--------------------------------------------------
tot         -0.000  -0.000   0.000  -0.000

    CHARGE:  cpu time    0.0620: real time    0.0620
    FORLOC:  cpu time    0.0006: real time    0.0006
    FORNL :  cpu time    0.0538: real time    0.0540
    STRESS:  cpu time    0.1089: real time    0.1095
    FORCOR:  cpu time    0.0153: real time    0.0155
    FORHAR:  cpu time    0.0024: real time    0.0028
    MIXING:  cpu time    0.0007: real time    0.0007
    OFIELD:  cpu time    0.0001: real time    0.0001

  FORCE on cell =-STRESS in cart. coord.  units (eV):
  Direction    XX          YY          ZZ          XY          YZ          ZX
  --------------------------------------------------------------------------------------
  Alpha Z    89.56935    89.56935    89.56935
  Ewald    -937.96128  -937.96128  -937.96128     0.00000     0.00000     0.00000
  Hartree   386.63056   386.63056   386.63056    -0.00000    -0.00000    -0.00000
  E(xc)    -251.53011  -251.53011  -251.53011    -0.00000    -0.00000     0.00000
  Local    -271.90025  -271.90025  -271.90025    -0.00000     0.00000     0.00000
  n-local   234.68251   235.40348   235.56891    -0.35657    -0.32688    -0.19354
  augment    86.05224    86.05224    86.05224     0.00000     0.00000     0.00000
  Kinetic   659.63120   663.40710   664.95598    -1.02334    -0.98135    -0.56884
  Fock        0.00000     0.00000     0.00000     0.00000     0.00000     0.00000
  -------------------------------------------------------------------------------------
  Total      -1.25643    -1.25643    -1.25643    -0.00000    -0.00000     0.00000
  in kB     -10.91751   -10.91751   -10.91751    -0.00000    -0.00000     0.00000
  external pressure =      -10.92 kB  Pullay stress =        0.00 kB


 VOLUME and BASIS-vectors are now :
 -----------------------------------------------------------------------------
  energy-cutoff  :      680.00
  volume of cell :      184.38
      direct lattice vectors                 reciprocal lattice vectors
     5.691694000  0.000000000  0.000000000     0.175694617  0.000000000  0.000000000
     0.000000000  5.691694000  0.000000000     0.000000000  0.175694617  0.000000000
     0.000000000  0.000000000  5.691694000     0.000000000  0.000000000  0.175694617

  length of vectors
     5.691694000  5.691694000  5.691694000     0.175694617  0.175694617  0.175694617


 FORCES acting on ions
    electron-ion (+dipol)            ewald-force                    non-local-force                 convergence-correction
 -----------------------------------------------------------------------------------------------
   0.137E-13 0.262E-15 -.151E-14   -.402E-14 -.254E-14 -.126E-14   -.139E-23 -.840E-23 -.341E-23   0.211E-13 -.430E-14 -.597E-13
   0.139E-13 0.507E-12 0.499E-12   -.392E-14 0.616E-14 0.214E-14   0.337E-23 0.874E-23 -.484E-22   0.181E-13 0.199E-13 0.400E-13
   0.515E-12 -.105E-14 -.965E-12   0.184E-14 -.188E-14 0.215E-14   0.138E-22 0.680E-23 0.445E-22   -.124E-13 -.135E-13 0.756E-13
   0.516E-12 0.161E-11 0.146E-11   0.193E-14 0.681E-14 -.183E-14   -.207E-22 -.191E-23 0.300E-22   -.133E-13 0.171E-13 -.614E-13
   0.750E-14 -.218E-13 0.250E-11   0.171E-14 -.677E-14 -.174E-14   0.157E-21 0.690E-22 0.122E-21   -.105E-13 -.169E-13 -.659E-13
   0.500E-14 0.110E-11 0.100E-11   0.181E-14 0.192E-14 0.166E-14   0.114E-21 -.141E-21 -.905E-22   -.874E-14 0.156E-13 0.606E-13
   -.307E-13 -.162E-13 0.289E-13   0.195E-15 -.611E-14 0.167E-14   0.295E-21 -.160E-21 0.220E-21   0.824E-14 -.134E-13 0.593E-13
   -.306E-13 0.200E-13 -.525E-15   0.290E-15 0.258E-14 -.231E-14   -.367E-21 0.536E-22 -.409E-21   0.859E-14 0.860E-14 -.398E-13
 -----------------------------------------------------------------------------------------------
   0.101E-11 0.320E-11 0.452E-11   -.155E-15 0.174E-15 0.471E-15   0.194E-21 -.173E-21 -.135E-21   0.111E-13 0.131E-13 0.861E-14


 POSITION                                       TOTAL-FORCE (eV/Angst)
 -----------------------------------------------------------------------------------
      0.00000      0.00000      0.00000         0.000000      0.000000      0.000000
      0.00000      2.84585      2.84585         0.000000      0.000000     -0.000000
      2.84585      0.00000      2.84585        -0.000000     -0.000000     -0.000000
      2.84585      2.84585      0.00000        -0.000000      0.000000      0.000000
      2.84585      0.00000      0.00000        -0.000000     -0.000000      0.000000
      2.84585      2.84585      2.84585         0.000000      0.000000      0.000000
      0.00000      0.00000      2.84585        -0.000000     -0.000000     -0.000000
      0.00000      2.84585      0.00000         0.000000      0.000000     -0.000000
 -----------------------------------------------------------------------------------
    total drift:                                0.000000      0.000000      0.000000


--------------------------------------------------------------------------------------------------------



  FREE ENERGIE OF THE ION-ELECTRON SYSTEM (eV)
  ---------------------------------------------------
  free  energy   TOTEN  =       -27.96859470 eV

  energy  without entropy=      -27.96859470  energy(sigma->0) =      -27.96859470



--------------------------------------------------------------------------------------------------------


    POTLOK:  cpu time    0.2169: real time    0.2169


--------------------------------------------------------------------------------------------------------


 stress matrix after NEB project (eV)
     -1.25643      0.00000      0.00000
     -0.00000     -1.25643     -0.00000
      0.00000     -0.00000     -1.25643
  FORCES: max atom, RMS     0.000000    0.000000
  FORCE total and by dimension    0.000000    0.000000
  Stress total and by dimension    2.176197    1.256428
     LOOP+:  cpu time   12.7792: real time   12.8163
    4ORBIT:  cpu time    0.0000: real time    0.0000



 total charge

# of ion       s       p       d       tot
------------------------------------------
    1        0.041   5.979   0.000   6.020
    2        0.041   5.979   0.000   6.020
    3        0.041   5.979   0.000   6.020
    4        0.041   5.979   0.000   6.020
    5        1.578   3.548   0.000   5.126
    6        1.578   3.548   0.000   5.126
    7        1.578   3.548   0.000   5.126
    8        1.578   3.548   0.000   5.126
--------------------------------------------------
tot          6.474  38.108   0.000  44.582



 magnetization (x)

# of ion       s       p       d       tot
------------------------------------------
    1        0.000  -0.000   0.000  -0.000
    2        0.000  -0.000   0.000  -0.000
    3        0.000  -0.000   0.000  -0.000
    4        0.000  -0.000   0.000  -0.000
    5       -0.000  -0.000   0.000  -0.000
    6       -0.000  -0.000   0.000  -0.000
    7       -0.000  -0.000   0.000  -0.000
    8       -0.000  -0.000   0.000  -0.000
--------------------------------------------------
tot         -0.000  -0.000   0.000  -0.000

 BZINTS: Fermi energy:   -0.938779;   56.000000 electrons
         Band energy:-0.667017E+03;  BLOECHL correction:    0.000000

 total amount of memory used by VASP MPI-rank0    34462. kBytes
=======================================================================

   base      :      30000. kBytes
   nonl-proj :        892. kBytes
   fftplans  :        485. kBytes
   grid      :       1121. kBytes
   one-center:          6. kBytes
   wavefun   :       1958. kBytes



 General timing and accounting informations for this job:
 ========================================================

                  Total CPU time used (sec):       20.229
                            User time (sec):       19.042
                          System time (sec):        1.187
                         Elapsed time (sec):       21.562

                   Maximum memory used (kb):      266992.
                   Average memory used (kb):           0.

                          Minor page faults:        24380
                          Major page faults:            0
                 Voluntary context switches:         7668
