<?xml version="1.0" encoding="ISO-8859-1"?>
<modeling>
 <generator>
  <i name="program" type="string">vasp </i>
  <i name="version" type="string">6.1.2  </i>
  <i name="subversion" type="string">22Jul20 (build Dec 10 2020 10:33:42) complex                          parallel </i>
  <i name="platform" type="string">LinuxIFC </i>
  <i name="date" type="string">2022 09 02 </i>
  <i name="time" type="string">12:53:11 </i>
 </generator>
 <incar>
  <i type="string" name="PREC"> Accurate</i>
  <i type="string" name="ALGO"> Fast</i>
  <i type="int" name="ISPIN">     2</i>
  <i type="int" name="NELM">   200</i>
  <i name="EDIFF">      0.00001000</i>
  <i type="int" name="NSW">     0</i>
  <i name="ENCUT">    680.00000000</i>
  <i name="ENAUG">   1360.00000000</i>
  <v name="MAGMOM">      0.60000000      0.60000000      0.60000000      0.60000000      0.60000000      0.60000000      0.60000000      0.60000000</v>
  <i type="logical" name="LREAL"> F  </i>
  <i type="int" name="ISMEAR">    -5</i>
  <i name="SIGMA">      0.20000000</i>
  <i name="KSPACING">      0.22000000</i>
  <i type="logical" name="LWAVE"> F  </i>
  <i type="logical" name="LCHARG"> T  </i>
  <i type="logical" name="LVTOT"> T  </i>
  <i type="logical" name="LELF"> F  </i>
  <i type="logical" name="LASPH"> T  </i>
  <i type="int" name="NPAR">     4</i>
  <i type="logical" name="LAECHG"> T  </i>
  <i type="string" name="ALGO"> Fast</i>
  <i type="int" name="NELM">   200</i>
  <i type="string" name="GGA"> Ps</i>
  <i name="EDIFF">      0.00001000</i>
  <i type="logical" name="LASPH"> T  </i>
  <i type="logical" name="LMIXTAU"> T  </i>
  <i type="int" name="ISPIN">     2</i>
 </incar>
 <structure name="primitive_cell" >
  <crystal>
   <varray name="basis" >
    <v>       2.84584700       2.84584700      -0.00000000 </v>
    <v>       2.84584700       0.00000000      -2.84584700 </v>
    <v>       0.00000000       2.84584700      -2.84584700 </v>
   </varray>
   <i name="volume">     46.09614833 </i>
   <varray name="rec_basis" >
    <v>       0.17569462       0.17569462       0.17569462 </v>
    <v>       0.17569462      -0.17569462      -0.17569462 </v>
    <v>      -0.17569462       0.17569462      -0.17569462 </v>
   </varray>
  </crystal>
  <varray name="positions" >
   <v>       0.00000000       0.00000000       0.00000000 </v>
   <v>       0.50000000       0.50000000       0.50000000 </v>
  </varray>
 </structure>
 <varray name="primitive_index" >
  <v type="int" >        1 </v>
  <v type="int" >        5 </v>
 </varray>
 <kpoints>
  <generation param="Gamma">
   <v type="int" name="divisions">       6        6        6 </v>
   <v name="usershift">      0.00000000       0.00000000       0.00000000 </v>
   <v name="genvec1">      0.16666667       0.00000000       0.00000000 </v>
   <v name="genvec2">      0.00000000       0.16666667       0.00000000 </v>
   <v name="genvec3">      0.00000000       0.00000000       0.16666667 </v>
   <v name="shift">      0.00000000       0.00000000       0.00000000 </v>
  </generation>
  <varray name="kpointlist" >
   <v>       0.00000000       0.00000000       0.00000000 </v>
   <v>       0.16666667       0.00000000       0.00000000 </v>
   <v>       0.33333333       0.00000000       0.00000000 </v>
   <v>       0.50000000       0.00000000       0.00000000 </v>
   <v>       0.16666667       0.16666667       0.00000000 </v>
   <v>       0.33333333       0.16666667       0.00000000 </v>
   <v>       0.50000000       0.16666667       0.00000000 </v>
   <v>       0.33333333       0.33333333       0.00000000 </v>
   <v>       0.50000000       0.33333333       0.00000000 </v>
   <v>       0.50000000       0.50000000       0.00000000 </v>
   <v>       0.16666667       0.16666667       0.16666667 </v>
   <v>       0.33333333       0.16666667       0.16666667 </v>
   <v>       0.50000000       0.16666667       0.16666667 </v>
   <v>       0.33333333       0.33333333       0.16666667 </v>
   <v>       0.50000000       0.33333333       0.16666667 </v>
   <v>       0.50000000       0.50000000       0.16666667 </v>
   <v>       0.33333333       0.33333333       0.33333333 </v>
   <v>       0.50000000       0.33333333       0.33333333 </v>
   <v>       0.50000000       0.50000000       0.33333333 </v>
   <v>       0.50000000       0.50000000       0.50000000 </v>
  </varray>
  <varray name="weights" >
   <v>       0.00462963 </v>
   <v>       0.02777778 </v>
   <v>       0.02777778 </v>
   <v>       0.01388889 </v>
   <v>       0.05555556 </v>
   <v>       0.11111111 </v>
   <v>       0.05555556 </v>
   <v>       0.05555556 </v>
   <v>       0.05555556 </v>
   <v>       0.01388889 </v>
   <v>       0.03703704 </v>
   <v>       0.11111111 </v>
   <v>       0.05555556 </v>
   <v>       0.11111111 </v>
   <v>       0.11111111 </v>
   <v>       0.02777778 </v>
   <v>       0.03703704 </v>
   <v>       0.05555556 </v>
   <v>       0.02777778 </v>
   <v>       0.00462963 </v>
  </varray>
  <varray name="tetrahedronlist"  type="int" >
   <v type="int" >       12        1        2        2        5 </v>
   <v type="int" >       12        2        2        5        5 </v>
   <v type="int" >       12        2        5        5       11 </v>
   <v type="int" >       12        2        3        5        6 </v>
   <v type="int" >       12        2        5        5        6 </v>
   <v type="int" >       12        5        5        6       11 </v>
   <v type="int" >       12        3        5        6        6 </v>
   <v type="int" >       24        5        6        6       12 </v>
   <v type="int" >       24        5        6       11       12 </v>
   <v type="int" >       12        3        4        6        7 </v>
   <v type="int" >       12        3        6        6        7 </v>
   <v type="int" >       12        6        6        7       12 </v>
   <v type="int" >       12        4        6        7        7 </v>
   <v type="int" >       12        6        7        7       13 </v>
   <v type="int" >       12        6        7       12       13 </v>
   <v type="int" >       12        5        6        8       11 </v>
   <v type="int" >       12        6        8       11       12 </v>
   <v type="int" >       12        8       11       12       14 </v>
   <v type="int" >       12        6        7        9       12 </v>
   <v type="int" >       12        6        8        9       12 </v>
   <v type="int" >       12        8        9       12       14 </v>
   <v type="int" >       12        7        9       12       13 </v>
   <v type="int" >       12        9       12       13       15 </v>
   <v type="int" >       12        9       12       14       15 </v>
   <v type="int" >       12        6        7        8       13 </v>
   <v type="int" >       12        7        8        9       13 </v>
   <v type="int" >       12        8        9       13       15 </v>
   <v type="int" >       12        6        8       12       13 </v>
   <v type="int" >       12        8       12       13       14 </v>
   <v type="int" >       12        8       13       14       15 </v>
   <v type="int" >       12        6        6        8       12 </v>
   <v type="int" >       12        6        8       12       14 </v>
   <v type="int" >       12        6       11       12       12 </v>
   <v type="int" >       12        6       12       12       14 </v>
   <v type="int" >       12        2        3        5       11 </v>
   <v type="int" >       12        3        5        6       11 </v>
   <v type="int" >       12        3        6       11       12 </v>
   <v type="int" >       12        8        9       10       14 </v>
   <v type="int" >       12        9       10       14       15 </v>
   <v type="int" >       12       10       14       15       16 </v>
   <v type="int" >       12        8        9        9       15 </v>
   <v type="int" >       12        9        9       10       15 </v>
   <v type="int" >       12        9       10       15       16 </v>
   <v type="int" >       12        8        9       14       15 </v>
   <v type="int" >       12        9       14       15       15 </v>
   <v type="int" >       12        9       15       15       16 </v>
   <v type="int" >       12        6        7        8       14 </v>
   <v type="int" >       12        7        8        9       14 </v>
   <v type="int" >       12        7        9       14       15 </v>
   <v type="int" >       12        6        7       12       14 </v>
   <v type="int" >       12        7       12       13       14 </v>
   <v type="int" >       12        7       13       14       15 </v>
   <v type="int" >       12        3        4        6       12 </v>
   <v type="int" >       12        4        6        7       12 </v>
   <v type="int" >       12        4        7       12       13 </v>
   <v type="int" >       12        8        9       10       16 </v>
   <v type="int" >       12        8        9       15       16 </v>
   <v type="int" >       12        8       14       15       16 </v>
   <v type="int" >       12        6        7        9       15 </v>
   <v type="int" >       12        6        8        9       15 </v>
   <v type="int" >       12        6        8       14       15 </v>
   <v type="int" >       12        6        7       13       15 </v>
   <v type="int" >       12        6       12       13       15 </v>
   <v type="int" >       12        6       12       14       15 </v>
   <v type="int" >       12        3        4        7       13 </v>
   <v type="int" >       12        3        6        7       13 </v>
   <v type="int" >       12        3        6       12       13 </v>
   <v type="int" >       12        5        6        8       14 </v>
   <v type="int" >       12        5        6       12       14 </v>
   <v type="int" >       12        5       11       12       14 </v>
   <v type="int" >       12        2        3        6       12 </v>
   <v type="int" >       12        2        5        6       12 </v>
   <v type="int" >       12        2        5       11       12 </v>
   <v type="int" >       12        1        2        5       11 </v>
   <v type="int" >       12       11       12       12       14 </v>
   <v type="int" >       12       12       12       14       14 </v>
   <v type="int" >       12       12       14       14       17 </v>
   <v type="int" >       12       12       13       14       15 </v>
   <v type="int" >       12       12       14       14       15 </v>
   <v type="int" >       12       14       14       15       17 </v>
   <v type="int" >       12       13       14       15       15 </v>
   <v type="int" >       24       14       15       15       18 </v>
   <v type="int" >       24       14       15       17       18 </v>
   <v type="int" >       12       14       15       16       17 </v>
   <v type="int" >       12       15       16       17       18 </v>
   <v type="int" >       12       16       17       18       19 </v>
   <v type="int" >       12       15       15       16       18 </v>
   <v type="int" >       12       15       16       18       19 </v>
   <v type="int" >       12       15       17       18       18 </v>
   <v type="int" >       12       15       18       18       19 </v>
   <v type="int" >       12       12       13       14       17 </v>
   <v type="int" >       12       13       14       15       17 </v>
   <v type="int" >       12       13       15       17       18 </v>
   <v type="int" >       12       14       15       16       19 </v>
   <v type="int" >       12       14       15       18       19 </v>
   <v type="int" >       12       14       17       18       19 </v>
   <v type="int" >       12       12       13       15       18 </v>
   <v type="int" >       12       12       14       15       18 </v>
   <v type="int" >       12       12       14       17       18 </v>
   <v type="int" >       12       11       12       14       17 </v>
   <v type="int" >       12       17       18       18       19 </v>
   <v type="int" >       12       18       18       19       19 </v>
   <v type="int" >       12       18       19       19       20 </v>
   <v type="int" >       12       17       18       19       20 </v>
  </varray>
  <i name="volumeweight">      0.00077160 </i>
 </kpoints>
 <parameters>
  <separator name="general" >
   <i type="string" name="SYSTEM">unknown system</i>
   <i type="logical" name="LCOMPAT"> F  </i>
  </separator>
  <separator name="electronic" >
   <i type="string" name="PREC">accura</i>
   <i name="ENMAX">    680.00000000</i>
   <i name="ENAUG">   1360.00000000</i>
   <i name="EDIFF">      0.00001000</i>
   <i type="int" name="IALGO">    68</i>
   <i type="int" name="IWAVPR">    10</i>
   <i type="int" name="NBANDS">    36</i>
   <i type="int" name="NBANDSLOW">    -1</i>
   <i type="int" name="NBANDSHIGH">    -1</i>
   <i name="NELECT">     56.00000000</i>
   <i type="int" name="TURBO">     0</i>
   <i type="int" name="IRESTART">     0</i>
   <i type="int" name="NREBOOT">     0</i>
   <i type="int" name="NMIN">     0</i>
   <i name="EREF">      0.00000000</i>
   <separator name="electronic smearing" >
    <i type="int" name="ISMEAR">    -5</i>
    <i name="SIGMA">      0.20000000</i>
    <i name="KSPACING">      0.22000000</i>
    <i type="logical" name="KGAMMA"> T  </i>
    <i type="logical" name="KBLOWUP"> T  </i>
   </separator>
   <separator name="electronic projectors" >
    <i type="logical" name="LREAL"> F  </i>
    <v name="ROPT">      0.00000000      0.00000000</v>
    <i type="int" name="LMAXPAW">  -100</i>
    <i type="int" name="LMAXMIX">     2</i>
    <i type="logical" name="NLSPLINE"> F  </i>
   </separator>
   <separator name="electronic startup" >
    <i type="int" name="ISTART">     0</i>
    <i type="int" name="ICHARG">     2</i>
    <i type="int" name="INIWAV">     1</i>
   </separator>
   <separator name="electronic spin" >
    <i type="int" name="ISPIN">     2</i>
    <i type="logical" name="LNONCOLLINEAR"> F  </i>
    <v name="MAGMOM">      0.60000000      0.60000000      0.60000000      0.60000000      0.60000000      0.60000000      0.60000000      0.60000000</v>
    <i name="NUPDOWN">     -1.00000000</i>
    <i type="logical" name="LSORBIT"> F  </i>
    <v name="SAXIS">      0.00000000      0.00000000      1.00000000</v>
    <i type="logical" name="LSPIRAL"> F  </i>
    <v name="QSPIRAL">      0.00000000      0.00000000      0.00000000</v>
    <i type="logical" name="LZEROZ"> F  </i>
   </separator>
   <separator name="electronic exchange-correlation" >
    <i type="logical" name="LASPH"> T  </i>
    <i type="logical" name="LMETAGGA"> F  </i>
   </separator>
   <separator name="electronic convergence" >
    <i type="int" name="NELM">   200</i>
    <i type="int" name="NELMDL">    -5</i>
    <i type="int" name="NELMIN">     2</i>
    <i name="ENINI">    680.00000000</i>
    <separator name="electronic convergence detail" >
     <i type="logical" name="LDIAG"> T  </i>
     <i type="logical" name="LSUBROT"> F  </i>
     <i name="WEIMIN">      0.00000000</i>
     <i name="EBREAK">      0.00000007</i>
     <i name="DEPER">      0.30000000</i>
     <i type="int" name="NRMM">     4</i>
     <i name="TIME">      0.40000000</i>
    </separator>
   </separator>
   <separator name="electronic mixer" >
    <i name="AMIX">      0.40000000</i>
    <i name="BMIX">      1.00000000</i>
    <i name="AMIN">      0.10000000</i>
    <i name="AMIX_MAG">      1.60000000</i>
    <i name="BMIX_MAG">      1.00000000</i>
    <separator name="electronic mixer details" >
     <i type="int" name="IMIX">     4</i>
     <i type="logical" name="MIXFIRST"> F  </i>
     <i type="int" name="MAXMIX">   -45</i>
     <i name="WC">    100.00000000</i>
     <i type="int" name="INIMIX">     1</i>
     <i type="int" name="MIXPRE">     1</i>
     <i type="int" name="MREMOVE">     5</i>
    </separator>
   </separator>
   <separator name="electronic dipolcorrection" >
    <i type="logical" name="LDIPOL"> F  </i>
    <i type="logical" name="LMONO"> F  </i>
    <i type="int" name="IDIPOL">     0</i>
    <i name="EPSILON">      1.00000000</i>
    <v name="DIPOL">   -100.00000000   -100.00000000   -100.00000000</v>
    <i name="EFIELD">      0.00000000</i>
   </separator>
  </separator>
  <separator name="grids" >
   <i type="int" name="NGX">    48</i>
   <i type="int" name="NGY">    48</i>
   <i type="int" name="NGZ">    48</i>
   <i type="int" name="NGXF">    96</i>
   <i type="int" name="NGYF">    96</i>
   <i type="int" name="NGZF">    96</i>
   <i type="logical" name="ADDGRID"> F  </i>
  </separator>
  <separator name="ionic" >
   <i type="int" name="NSW">     0</i>
   <i type="int" name="IBRION">    -1</i>
   <i type="int" name="MDALGO">     0</i>
   <i type="int" name="ISIF">     2</i>
   <i name="PSTRESS">      0.00000000</i>
   <i name="EDIFFG">      0.00010000</i>
   <i type="int" name="NFREE">     0</i>
   <i name="POTIM">      0.50000000</i>
   <i name="SMASS">     -3.00000000</i>
   <i name="SCALEE">      1.00000000</i>
  </separator>
  <separator name="ionic md" >
   <i name="TEBEG">      0.00010000</i>
   <i name="TEEND">      0.00010000</i>
   <i type="int" name="NBLOCK">     1</i>
   <i type="int" name="KBLOCK">     1</i>
   <i type="int" name="NPACO">   256</i>
   <i name="APACO">     16.00000000</i>
  </separator>
  <separator name="symmetry" >
   <i type="int" name="ISYM">     2</i>
   <i name="SYMPREC">      0.00001000</i>
  </separator>
  <separator name="dos" >
   <i type="int" name="LORBIT">    11</i>
   <v name="RWIGS">     -1.00000000     -1.00000000</v>
   <i type="int" name="NEDOS">   301</i>
   <i name="EMIN">     10.00000000</i>
   <i name="EMAX">    -10.00000000</i>
   <i name="EFERMI">      0.00000000</i>
  </separator>
  <separator name="writing" >
   <i type="int" name="NWRITE">     2</i>
   <i type="logical" name="LWAVE"> F  </i>
   <i type="logical" name="LDOWNSAMPLE"> F  </i>
   <i type="logical" name="LCHARG"> T  </i>
   <i type="logical" name="LPARD"> F  </i>
   <i type="logical" name="LVTOT"> T  </i>
   <i type="logical" name="LVHAR"> F  </i>
   <i type="logical" name="LELF"> F  </i>
   <i type="logical" name="LOPTICS"> F  </i>
   <v name="STM">      0.00000000      0.00000000      0.00000000      0.00000000      0.00000000      0.00000000      0.00000000</v>
  </separator>
  <separator name="performance" >
   <i type="int" name="NPAR">     4</i>
   <i type="int" name="NSIM">     4</i>
   <i type="int" name="NBLK">    -1</i>
   <i type="logical" name="LPLANE"> T  </i>
   <i type="logical" name="LSCALAPACK"> T  </i>
   <i type="logical" name="LSCAAWARE"> F  </i>
   <i type="logical" name="LSCALU"> F  </i>
   <i type="logical" name="LASYNC"> F  </i>
   <i type="logical" name="LORBITALREAL"> F  </i>
  </separator>
  <separator name="miscellaneous" >
   <i type="int" name="IDIOT">     3</i>
   <i type="int" name="PHON_NSTRUCT">    -1</i>
   <i type="logical" name="LMUSIC"> F  </i>
   <v name="POMASS">     22.99000000     35.45300000</v>
   <v name="DARWINR">      0.00000000      0.00000000</v>
   <v name="DARWINV">      1.00000000      1.00000000</v>
   <i type="logical" name="LCORR"> T  </i>
  </separator>
  <i type="logical" name="GGA_COMPAT"> T  </i>
  <i type="logical" name="LBERRY"> F  </i>
  <i type="int" name="ICORELEVEL">     0</i>
  <i type="logical" name="LDAU"> F  </i>
  <i type="int" name="I_CONSTRAINED_M">     0</i>
  <separator name="electronic exchange-correlation" >
   <i type="string" name="GGA">PS</i>
   <i type="int" name="VOSKOWN">     0</i>
   <i type="logical" name="LHFCALC"> F  </i>
   <i type="string" name="PRECFOCK"></i>
   <i type="logical" name="LSYMGRAD"> F  </i>
   <i type="logical" name="LHFONE"> F  </i>
   <i type="logical" name="LRHFCALC"> F  </i>
   <i type="logical" name="LTHOMAS"> F  </i>
   <i type="logical" name="LMODELHF"> F  </i>
   <i type="logical" name="LFOCKACE"> F  </i>
   <i name="ENCUT4O">     -1.00000000</i>
   <i type="int" name="EXXOEP">     0</i>
   <i type="int" name="FOURORBIT">     0</i>
   <i name="AEXX">      0.00000000</i>
   <i name="HFALPHA">      0.00000000</i>
   <i name="MCALPHA">      0.00000000</i>
   <i name="ALDAX">      1.00000000</i>
   <i name="AGGAX">      1.00000000</i>
   <i name="ALDAC">      1.00000000</i>
   <i name="AGGAC">      1.00000000</i>
   <i type="int" name="NKREDX">     1</i>
   <i type="int" name="NKREDY">     1</i>
   <i type="int" name="NKREDZ">     1</i>
   <i type="logical" name="SHIFTRED"> F  </i>
   <i type="logical" name="ODDONLY"> F  </i>
   <i type="logical" name="EVENONLY"> F  </i>
   <i type="int" name="LMAXFOCK">     0</i>
   <i type="int" name="NMAXFOCKAE">     0</i>
   <i type="logical" name="LFOCKAEDFT"> F  </i>
   <i name="HFSCREEN">      0.00000000</i>
   <i name="HFSCREENC">      0.00000000</i>
   <i type="int" name="NBANDSGWLOW">     0</i>
  </separator>
  <separator name="vdW DFT" >
   <i type="logical" name="LUSE_VDW"> F  </i>
   <i name="Zab_VDW">     -0.84910000</i>
   <i name="PARAM1">      0.12340000</i>
   <i name="PARAM2">      1.00000000</i>
   <i name="PARAM3">      0.00000000</i>
  </separator>
  <separator name="model GW" >
   <i type="int" name="MODEL_GW">     0</i>
   <i name="MODEL_EPS0">     13.82884450</i>
   <i name="MODEL_ALPHA">      1.00000000</i>
  </separator>
  <separator name="linear response parameters" >
   <i type="logical" name="LEPSILON"> F  </i>
   <i type="logical" name="LRPA"> F  </i>
   <i type="logical" name="LNABLA"> F  </i>
   <i type="logical" name="LVEL"> F  </i>
   <i type="int" name="KINTER">     0</i>
   <i name="CSHIFT">      0.10000000</i>
   <i name="OMEGAMAX">     -1.00000000</i>
   <i name="DEG_THRESHOLD">      0.00200000</i>
   <i name="RTIME">     -0.10000000</i>
   <i name="WPLASMAI">      0.00000000</i>
   <v name="DFIELD">      0.00000000      0.00000000      0.00000000</v>
   <v name="WPLASMA">      0.00000000      0.00000000      0.00000000      0.00000000      0.00000000      0.00000000      0.00000000      0.00000000      0.00000000</v>
  </separator>
  <separator name="orbital magnetization" >
   <i type="logical" name="NUCIND"> F  </i>
   <v name="MAGPOS">      0.00000000      0.00000000      0.00000000</v>
   <i type="logical" name="LNICSALL"> T  </i>
   <i type="logical" name="ORBITALMAG"> F  </i>
   <i type="logical" name="LMAGBLOCH"> F  </i>
   <i type="logical" name="LCHIMAG"> F  </i>
   <i type="logical" name="LGAUGE"> T  </i>
   <i type="int" name="MAGATOM">     0</i>
   <v name="MAGDIPOL">      0.00000000      0.00000000      0.00000000</v>
   <v name="AVECCONST">      0.00000000      0.00000000      0.00000000</v>
  </separator>
  <separator name="response functions" >
   <i type="logical" name="LFINITE_TEMPERATURE"> F  </i>
   <i type="logical" name="LADDER"> F  </i>
   <i type="logical" name="LRPAFORCE"> F  </i>
   <i type="logical" name="LFXC"> F  </i>
   <i type="logical" name="LHARTREE"> T  </i>
   <i type="int" name="IBSE">     0</i>
   <v type="int" name="KPOINT">    -1     0     0     0</v>
   <i type="logical" name="LTCTC"> F  </i>
   <i type="logical" name="LTCTE"> F  </i>
   <i type="logical" name="LTETE"> F  </i>
   <i type="logical" name="LTRIPLET"> F  </i>
   <i type="logical" name="LFXCEPS"> F  </i>
   <i type="logical" name="LFXHEG"> F  </i>
   <i type="int" name="NATURALO">     2</i>
   <i type="logical" name="LHOLEGF"> F  </i>
   <i type="logical" name="L2ORDER"> F  </i>
   <i type="logical" name="LDMP1"> F  </i>
   <i type="logical" name="LMP2LT"> F  </i>
   <i type="logical" name="LSMP2LT"> F  </i>
   <i type="logical" name="LGWLF"> F  </i>
   <i name="ENCUTGW">     -2.00000000</i>
   <i name="ENCUTGWSOFT">     -2.00000000</i>
   <i name="ENCUTLF">     -1.00000000</i>
   <i type="logical" name="LESF_SPLINES"> F  </i>
   <i type="int" name="LMAXMP2">    -1</i>
   <i name="SCISSOR">      0.00000000</i>
   <i type="int" name="NOMEGA">     0</i>
   <i type="int" name="NOMEGAR">     0</i>
   <i type="int" name="NBANDSGW">    -1</i>
   <i type="int" name="NBANDSO">    -1</i>
   <i type="int" name="NBANDSV">    -1</i>
   <i type="int" name="NELM">   200</i>
   <i type="int" name="NELMHF">     1</i>
   <i type="int" name="DIM">     3</i>
   <i type="int" name="IESPILON">     4</i>
   <i type="int" name="ANTIRES">     0</i>
   <i name="OMEGAMAX">    -30.00000000</i>
   <i name="OMEGAMIN">    -30.00000000</i>
   <i name="OMEGATL">   -200.00000000</i>
   <i type="int" name="OMEGAGRID">     0</i>
   <i name="CSHIFT">     -0.10000000</i>
   <i type="logical" name="LSELFENERGY"> F  </i>
   <i type="logical" name="LSPECTRAL"> F  </i>
   <i type="logical" name="LSPECTRALGW"> F  </i>
   <i type="logical" name="LSINGLES"> F  </i>
   <i type="logical" name="LFERMIGW"> F  </i>
   <i type="logical" name="ODDONLYGW"> F  </i>
   <i type="logical" name="EVENONLYGW"> F  </i>
   <i type="int" name="NKREDLFX">     1</i>
   <i type="int" name="NKREDLFY">     1</i>
   <i type="int" name="NKREDLFZ">     1</i>
   <i type="int" name="MAXMEM">  2800</i>
   <i type="int" name="TELESCOPE">     0</i>
   <i type="int" name="NTAUPAR">    -1</i>
   <i type="int" name="NOMEGAPAR">    -1</i>
   <i name="LAMBDA">      1.00000000</i>
  </separator>
  <separator name="External order field" >
   <i name="OFIELD_KAPPA">      0.00000000</i>
   <v name="OFIELD_K">      0.00000000      0.00000000      0.00000000</v>
   <i name="OFIELD_Q6_NEAR">      0.00000000</i>
   <i name="OFIELD_Q6_FAR">      0.00000000</i>
   <i name="OFIELD_A">      0.00000000</i>
  </separator>
  <separator name="solvation model" >
   <i type="logical" name="LSOL"> F  </i>
  </separator>
 </parameters>
 <atominfo>
  <atoms>       8 </atoms>
  <types>       2 </types>
  <array name="atoms" >
   <dimension dim="1">ion</dimension>
   <field type="string">element</field>
   <field type="int">atomtype</field>
   <set>
    <rc><c>Na</c><c>   1</c></rc>
    <rc><c>Na</c><c>   1</c></rc>
    <rc><c>Na</c><c>   1</c></rc>
    <rc><c>Na</c><c>   1</c></rc>
    <rc><c>Cl</c><c>   2</c></rc>
    <rc><c>Cl</c><c>   2</c></rc>
    <rc><c>Cl</c><c>   2</c></rc>
    <rc><c>Cl</c><c>   2</c></rc>
   </set>
  </array>
  <array name="atomtypes" >
   <dimension dim="1">type</dimension>
   <field type="int">atomspertype</field>
   <field type="string">element</field>
   <field>mass</field>
   <field>valence</field>
   <field type="string">pseudopotential</field>
   <set>
    <rc><c>   4</c><c>Na</c><c>     22.99000000</c><c>      7.00000000</c><c>  PAW_PBE Na_pv 19Sep2006               </c></rc>
    <rc><c>   4</c><c>Cl</c><c>     35.45300000</c><c>      7.00000000</c><c>  PAW_PBE Cl 06Sep2000                  </c></rc>
   </set>
  </array>
 </atominfo>
 <structure name="initialpos" >
  <crystal>
   <varray name="basis" >
    <v>       5.69169400       0.00000000       0.00000000 </v>
    <v>       0.00000000       5.69169400       0.00000000 </v>
    <v>       0.00000000       0.00000000       5.69169400 </v>
   </varray>
   <i name="volume">    184.38459333 </i>
   <varray name="rec_basis" >
    <v>       0.17569462       0.00000000       0.00000000 </v>
    <v>       0.00000000       0.17569462       0.00000000 </v>
    <v>       0.00000000       0.00000000       0.17569462 </v>
   </varray>
  </crystal>
  <varray name="positions" >
   <v>       0.00000000       0.00000000       0.00000000 </v>
   <v>       0.00000000       0.50000000       0.50000000 </v>
   <v>       0.50000000       0.00000000       0.50000000 </v>
   <v>       0.50000000       0.50000000       0.00000000 </v>
   <v>       0.50000000       0.00000000       0.00000000 </v>
   <v>       0.50000000       0.50000000       0.50000000 </v>
   <v>       0.00000000       0.00000000       0.50000000 </v>
   <v>       0.00000000       0.50000000       0.00000000 </v>
  </varray>
 </structure>
 <calculation>
  <scstep>
   <time name="dav">    0.59    0.60</time>
   <time name="total">    0.84    0.85</time>
   <energy>
    <i name="alphaZ">     89.56934524 </i>
    <i name="ewald">  -2813.87945180 </i>
    <i name="hartreedc">  -1148.58314808 </i>
    <i name="XCdc">    182.03413374 </i>
    <i name="pawpsdc">   3307.95688671 </i>
    <i name="pawaedc">  -3660.34697251 </i>
    <i name="eentropy">      0.00000000 </i>
    <i name="bandstr">     17.68105194 </i>
    <i name="atom">   4691.63160629 </i>
    <i name="e_fr_energy">    666.06345152 </i>
    <i name="e_wo_entrp">    666.06345152 </i>
    <i name="e_0_energy">    666.06345152 </i>
   </energy>
  </scstep>
  <scstep>
   <time name="dav">    0.59    0.59</time>
   <time name="total">    0.60    0.60</time>
   <energy>
    <i name="e_fr_energy">     69.85167410 </i>
    <i name="e_wo_entrp">     69.85167410 </i>
    <i name="e_0_energy">     69.85167410 </i>
   </energy>
  </scstep>
  <scstep>
   <time name="dav">    0.61    0.61</time>
   <time name="total">    0.61    0.61</time>
   <energy>
    <i name="e_fr_energy">    -22.56530742 </i>
    <i name="e_wo_entrp">    -22.56530742 </i>
    <i name="e_0_energy">    -22.56530742 </i>
   </energy>
  </scstep>
  <scstep>
   <time name="dav">    0.63    0.63</time>
   <time name="total">    0.64    0.64</time>
   <energy>
    <i name="e_fr_energy">    -27.63578036 </i>
    <i name="e_wo_entrp">    -27.63578036 </i>
    <i name="e_0_energy">    -27.63578036 </i>
   </energy>
  </scstep>
  <scstep>
   <time name="dav">    0.67    0.67</time>
   <time name="total">    0.74    0.74</time>
   <energy>
    <i name="e_fr_energy">    -27.77818809 </i>
    <i name="e_wo_entrp">    -27.77818809 </i>
    <i name="e_0_energy">    -27.77818809 </i>
   </energy>
  </scstep>
  <scstep>
   <time name="diag">    0.23    0.23</time>
   <time name="diis">    0.26    0.26</time>
   <time name="orth">    0.02    0.02</time>
   <time name="total">    0.80    0.80</time>
   <energy>
    <i name="e_fr_energy">    -27.77159168 </i>
    <i name="e_wo_entrp">    -27.77159168 </i>
    <i name="e_0_energy">    -27.77159168 </i>
   </energy>
  </scstep>
  <scstep>
   <time name="diag">    0.25    0.25</time>
   <time name="diis">    0.27    0.27</time>
   <time name="orth">    0.02    0.02</time>
   <time name="total">    0.83    0.83</time>
   <energy>
    <i name="e_fr_energy">    -27.93341806 </i>
    <i name="e_wo_entrp">    -27.93341806 </i>
    <i name="e_0_energy">    -27.93341806 </i>
   </energy>
  </scstep>
  <scstep>
   <time name="diag">    0.23    0.23</time>
   <time name="diis">    0.29    0.29</time>
   <time name="orth">    0.02    0.02</time>
   <time name="total">    0.83    0.83</time>
   <energy>
    <i name="e_fr_energy">    -27.95311399 </i>
    <i name="e_wo_entrp">    -27.95311399 </i>
    <i name="e_0_energy">    -27.95311399 </i>
   </energy>
  </scstep>
  <scstep>
   <time name="diag">    0.23    0.23</time>
   <time name="diis">    0.28    0.28</time>
   <time name="orth">    0.02    0.02</time>
   <time name="total">    0.81    0.81</time>
   <energy>
    <i name="e_fr_energy">    -27.96126372 </i>
    <i name="e_wo_entrp">    -27.96126372 </i>
    <i name="e_0_energy">    -27.96126372 </i>
   </energy>
  </scstep>
  <scstep>
   <time name="diag">    0.23    0.23</time>
   <time name="diis">    0.29    0.29</time>
   <time name="orth">    0.02    0.02</time>
   <time name="total">    0.83    0.83</time>
   <energy>
    <i name="e_fr_energy">    -27.96766712 </i>
    <i name="e_wo_entrp">    -27.96766712 </i>
    <i name="e_0_energy">    -27.96766712 </i>
   </energy>
  </scstep>
  <scstep>
   <time name="diag">    0.23    0.23</time>
   <time name="diis">    0.31    0.31</time>
   <time name="orth">    0.02    0.02</time>
   <time name="total">    0.84    0.85</time>
   <energy>
    <i name="e_fr_energy">    -27.96834555 </i>
    <i name="e_wo_entrp">    -27.96834555 </i>
    <i name="e_0_energy">    -27.96834555 </i>
   </energy>
  </scstep>
  <scstep>
   <time name="diag">    0.23    0.23</time>
   <time name="diis">    0.32    0.32</time>
   <time name="orth">    0.02    0.02</time>
   <time name="total">    0.85    0.85</time>
   <energy>
    <i name="e_fr_energy">    -27.96853376 </i>
    <i name="e_wo_entrp">    -27.96853376 </i>
    <i name="e_0_energy">    -27.96853376 </i>
   </energy>
  </scstep>
  <scstep>
   <time name="diag">    0.23    0.23</time>
   <time name="diis">    0.26    0.26</time>
   <time name="orth">    0.02    0.02</time>
   <time name="total">    0.79    0.79</time>
   <energy>
    <i name="e_fr_energy">    -27.96858999 </i>
    <i name="e_wo_entrp">    -27.96858999 </i>
    <i name="e_0_energy">    -27.96858999 </i>
   </energy>
  </scstep>
  <scstep>
   <time name="diag">    0.22    0.22</time>
   <time name="diis">    0.25    0.25</time>
   <time name="orth">    0.02    0.02</time>
   <time name="total">    0.72    0.72</time>
   <energy>
    <i name="alphaZ">     89.56934524 </i>
    <i name="ewald">  -2813.87945180 </i>
    <i name="hartreedc">  -1159.90578156 </i>
    <i name="XCdc">    183.77682476 </i>
    <i name="pawpsdc">   3670.72317054 </i>
    <i name="pawaedc">  -4022.86720528 </i>
    <i name="eentropy">      0.00000000 </i>
    <i name="bandstr">   -667.01710288 </i>
    <i name="atom">   4691.63160629 </i>
    <i name="e_fr_energy">    -27.96859470 </i>
    <i name="e_wo_entrp">    -27.96859470 </i>
    <i name="e_0_energy">    -27.96859470 </i>
   </energy>
  </scstep>
  <structure>
   <crystal>
    <varray name="basis" >
     <v>       5.69169400       0.00000000       0.00000000 </v>
     <v>       0.00000000       5.69169400       0.00000000 </v>
     <v>       0.00000000       0.00000000       5.69169400 </v>
    </varray>
    <i name="volume">    184.38459333 </i>
    <varray name="rec_basis" >
     <v>       0.17569462       0.00000000       0.00000000 </v>
     <v>       0.00000000       0.17569462       0.00000000 </v>
     <v>       0.00000000       0.00000000       0.17569462 </v>
    </varray>
   </crystal>
   <varray name="positions" >
    <v>       0.00000000       0.00000000       0.00000000 </v>
    <v>       0.00000000       0.50000000       0.50000000 </v>
    <v>       0.50000000       0.00000000       0.50000000 </v>
    <v>       0.50000000       0.50000000       0.00000000 </v>
    <v>       0.50000000       0.00000000       0.00000000 </v>
    <v>       0.50000000       0.50000000       0.50000000 </v>
    <v>       0.00000000       0.00000000       0.50000000 </v>
    <v>       0.00000000       0.50000000       0.00000000 </v>
   </varray>
  </structure>
  <varray name="forces" >
   <v>       0.00000000       0.00000000       0.00000000 </v>
   <v>       0.00000000       0.00000000      -0.00000000 </v>
   <v>      -0.00000000      -0.00000000      -0.00000000 </v>
   <v>      -0.00000000       0.00000000       0.00000000 </v>
   <v>      -0.00000000      -0.00000000       0.00000000 </v>
   <v>       0.00000000       0.00000000       0.00000000 </v>
   <v>      -0.00000000      -0.00000000      -0.00000000 </v>
   <v>       0.00000000       0.00000000      -0.00000000 </v>
  </varray>
  <varray name="stress" >
   <v>     -10.91750766       0.00000000       0.00000000 </v>
   <v>      -0.00000000     -10.91750766      -0.00000000 </v>
   <v>       0.00000000      -0.00000000     -10.91750766 </v>
  </varray>
  <energy>
   <i name="e_fr_energy">    -27.96859470 </i>
   <i name="e_wo_entrp">    -27.96859470 </i>
   <i name="e_0_energy">    -27.96859470 </i>
  </energy>
  <time name="totalsc">   12.78   12.82</time>
  <eigenvalues>
   <array>
    <dimension dim="1">band</dimension>
    <dimension dim="2">kpoint</dimension>
    <dimension dim="3">spin</dimension>
    <field>eigene</field>
    <field>occ</field>
    <set>
     <set comment="spin 1">
      <set comment="kpoint 1">
       <r>  -21.6633    1.0000 </r>
       <r>  -21.6633    1.0000 </r>
       <r>  -21.6633    1.0000 </r>
       <r>  -21.6522    1.0000 </r>
       <r>  -21.6522    1.0000 </r>
       <r>  -21.6522    1.0000 </r>
       <r>  -21.6522    1.0000 </r>
       <r>  -21.6522    1.0000 </r>
       <r>  -21.6522    1.0000 </r>
       <r>  -21.6447    1.0000 </r>
       <r>  -21.6447    1.0000 </r>
       <r>  -21.6447    1.0000 </r>
       <r>  -13.5216    1.0000 </r>
       <r>  -13.1565    1.0000 </r>
       <r>  -13.1565    1.0000 </r>
       <r>  -13.1565    1.0000 </r>
       <r>   -2.5697    1.0000 </r>
       <r>   -2.5697    1.0000 </r>
       <r>   -2.5697    1.0000 </r>
       <r>   -1.5217    1.0000 </r>
       <r>   -1.5217    1.0000 </r>
       <r>   -1.5217    1.0000 </r>
       <r>   -1.5217    1.0000 </r>
       <r>   -1.5217    1.0000 </r>
       <r>   -1.5217    1.0000 </r>
       <r>   -0.9388    1.0000 </r>
       <r>   -0.9388    1.0000 </r>
       <r>   -0.9388    1.0000 </r>
       <r>    3.8951    0.0000 </r>
       <r>    6.4213    0.0000 </r>
       <r>    6.4213    0.0000 </r>
       <r>    6.4213    0.0000 </r>
       <r>    6.9750    0.0000 </r>
       <r>    6.9750    0.0000 </r>
       <r>    6.9750    0.0000 </r>
       <r>   10.0148    0.0000 </r>
      </set>
      <set comment="kpoint 2">
       <r>  -21.6625    1.0000 </r>
       <r>  -21.6625    1.0000 </r>
       <r>  -21.6625    1.0000 </r>
       <r>  -21.6529    1.0000 </r>
       <r>  -21.6529    1.0000 </r>
       <r>  -21.6527    1.0000 </r>
       <r>  -21.6527    1.0000 </r>
       <r>  -21.6517    1.0000 </r>
       <r>  -21.6517    1.0000 </r>
       <r>  -21.6465    1.0000 </r>
       <r>  -21.6452    1.0000 </r>
       <r>  -21.6452    1.0000 </r>
       <r>  -13.4948    1.0000 </r>
       <r>  -13.1783    1.0000 </r>
       <r>  -13.1526    1.0000 </r>
       <r>  -13.1526    1.0000 </r>
       <r>   -2.5119    1.0000 </r>
       <r>   -2.5119    1.0000 </r>
       <r>   -2.5090    1.0000 </r>
       <r>   -1.6087    1.0000 </r>
       <r>   -1.6087    1.0000 </r>
       <r>   -1.5607    1.0000 </r>
       <r>   -1.5607    1.0000 </r>
       <r>   -1.4868    1.0000 </r>
       <r>   -1.4868    1.0000 </r>
       <r>   -1.1282    1.0000 </r>
       <r>   -0.9827    1.0000 </r>
       <r>   -0.9827    1.0000 </r>
       <r>    4.2049    0.0000 </r>
       <r>    6.4930    0.0000 </r>
       <r>    6.6596    0.0000 </r>
       <r>    6.6596    0.0000 </r>
       <r>    7.0931    0.0000 </r>
       <r>    7.1871    0.0000 </r>
       <r>    7.1872    0.0000 </r>
       <r>    9.6339    0.0000 </r>
      </set>
      <set comment="kpoint 3">
       <r>  -21.6605    1.0000 </r>
       <r>  -21.6605    1.0000 </r>
       <r>  -21.6601    1.0000 </r>
       <r>  -21.6549    1.0000 </r>
       <r>  -21.6549    1.0000 </r>
       <r>  -21.6536    1.0000 </r>
       <r>  -21.6536    1.0000 </r>
       <r>  -21.6509    1.0000 </r>
       <r>  -21.6503    1.0000 </r>
       <r>  -21.6503    1.0000 </r>
       <r>  -21.6466    1.0000 </r>
       <r>  -21.6466    1.0000 </r>
       <r>  -13.4232    1.0000 </r>
       <r>  -13.2400    1.0000 </r>
       <r>  -13.1448    1.0000 </r>
       <r>  -13.1448    1.0000 </r>
       <r>   -2.3471    1.0000 </r>
       <r>   -2.3471    1.0000 </r>
       <r>   -2.3179    1.0000 </r>
       <r>   -1.8304    1.0000 </r>
       <r>   -1.8304    1.0000 </r>
       <r>   -1.6365    1.0000 </r>
       <r>   -1.6365    1.0000 </r>
       <r>   -1.5517    1.0000 </r>
       <r>   -1.3888    1.0000 </r>
       <r>   -1.3888    1.0000 </r>
       <r>   -1.0986    1.0000 </r>
       <r>   -1.0986    1.0000 </r>
       <r>    4.9678    0.0000 </r>
       <r>    6.4521    0.0000 </r>
       <r>    7.2609    0.0000 </r>
       <r>    7.2610    0.0000 </r>
       <r>    7.4441    0.0000 </r>
       <r>    7.7575    0.0000 </r>
       <r>    7.7578    0.0000 </r>
       <r>    8.9177    0.0000 </r>
      </set>
      <set comment="kpoint 4">
       <r>  -21.6577    1.0000 </r>
       <r>  -21.6577    1.0000 </r>
       <r>  -21.6577    1.0000 </r>
       <r>  -21.6577    1.0000 </r>
       <r>  -21.6560    1.0000 </r>
       <r>  -21.6560    1.0000 </r>
       <r>  -21.6541    1.0000 </r>
       <r>  -21.6541    1.0000 </r>
       <r>  -21.6484    1.0000 </r>
       <r>  -21.6484    1.0000 </r>
       <r>  -21.6484    1.0000 </r>
       <r>  -21.6484    1.0000 </r>
       <r>  -13.3291    1.0000 </r>
       <r>  -13.3291    1.0000 </r>
       <r>  -13.1409    1.0000 </r>
       <r>  -13.1409    1.0000 </r>
       <r>   -2.1026    1.0000 </r>
       <r>   -2.1026    1.0000 </r>
       <r>   -2.1026    1.0000 </r>
       <r>   -2.1026    1.0000 </r>
       <r>   -1.9880    1.0000 </r>
       <r>   -1.9880    1.0000 </r>
       <r>   -1.6734    1.0000 </r>
       <r>   -1.6734    1.0000 </r>
       <r>   -1.2481    1.0000 </r>
       <r>   -1.2481    1.0000 </r>
       <r>   -1.2481    1.0000 </r>
       <r>   -1.2481    1.0000 </r>
       <r>    5.8594    0.0000 </r>
       <r>    5.8594    0.0000 </r>
       <r>    7.7014    0.0000 </r>
       <r>    7.7230    0.0000 </r>
       <r>    8.0216    0.0000 </r>
       <r>    8.0663    0.0000 </r>
       <r>    8.5184    0.0000 </r>
       <r>    8.5185    0.0000 </r>
      </set>
      <set comment="kpoint 5">
       <r>  -21.6623    1.0000 </r>
       <r>  -21.6623    1.0000 </r>
       <r>  -21.6618    1.0000 </r>
       <r>  -21.6554    1.0000 </r>
       <r>  -21.6524    1.0000 </r>
       <r>  -21.6524    1.0000 </r>
       <r>  -21.6518    1.0000 </r>
       <r>  -21.6518    1.0000 </r>
       <r>  -21.6513    1.0000 </r>
       <r>  -21.6490    1.0000 </r>
       <r>  -21.6457    1.0000 </r>
       <r>  -21.6448    1.0000 </r>
       <r>  -13.4694    1.0000 </r>
       <r>  -13.1727    1.0000 </r>
       <r>  -13.1727    1.0000 </r>
       <r>  -13.1504    1.0000 </r>
       <r>   -2.4732    1.0000 </r>
       <r>   -2.4732    1.0000 </r>
       <r>   -2.4552    1.0000 </r>
       <r>   -1.7920    1.0000 </r>
       <r>   -1.5714    1.0000 </r>
       <r>   -1.5714    1.0000 </r>
       <r>   -1.5105    1.0000 </r>
       <r>   -1.5105    1.0000 </r>
       <r>   -1.4751    1.0000 </r>
       <r>   -1.3365    1.0000 </r>
       <r>   -1.0301    1.0000 </r>
       <r>   -0.9678    1.0000 </r>
       <r>    4.4747    0.0000 </r>
       <r>    6.7292    0.0000 </r>
       <r>    6.7292    0.0000 </r>
       <r>    6.8008    0.0000 </r>
       <r>    7.2951    0.0000 </r>
       <r>    7.2951    0.0000 </r>
       <r>    7.4290    0.0000 </r>
       <r>    9.3711    0.0000 </r>
      </set>
      <set comment="kpoint 6">
       <r>  -21.6616    1.0000 </r>
       <r>  -21.6610    1.0000 </r>
       <r>  -21.6598    1.0000 </r>
       <r>  -21.6582    1.0000 </r>
       <r>  -21.6544    1.0000 </r>
       <r>  -21.6534    1.0000 </r>
       <r>  -21.6519    1.0000 </r>
       <r>  -21.6510    1.0000 </r>
       <r>  -21.6510    1.0000 </r>
       <r>  -21.6498    1.0000 </r>
       <r>  -21.6471    1.0000 </r>
       <r>  -21.6456    1.0000 </r>
       <r>  -13.4015    1.0000 </r>
       <r>  -13.2298    1.0000 </r>
       <r>  -13.1602    1.0000 </r>
       <r>  -13.1472    1.0000 </r>
       <r>   -2.3734    1.0000 </r>
       <r>   -2.3376    1.0000 </r>
       <r>   -2.2933    1.0000 </r>
       <r>   -2.0231    1.0000 </r>
       <r>   -1.7875    1.0000 </r>
       <r>   -1.7141    1.0000 </r>
       <r>   -1.5436    1.0000 </r>
       <r>   -1.4795    1.0000 </r>
       <r>   -1.4666    1.0000 </r>
       <r>   -1.3792    1.0000 </r>
       <r>   -1.1550    1.0000 </r>
       <r>   -1.0532    1.0000 </r>
       <r>    5.1656    0.0000 </r>
       <r>    6.6545    0.0000 </r>
       <r>    7.2667    0.0000 </r>
       <r>    7.3405    0.0000 </r>
       <r>    7.6137    0.0000 </r>
       <r>    7.8347    0.0000 </r>
       <r>    7.9207    0.0000 </r>
       <r>    8.9685    0.0000 </r>
      </set>
      <set comment="kpoint 7">
       <r>  -21.6603    1.0000 </r>
       <r>  -21.6603    1.0000 </r>
       <r>  -21.6579    1.0000 </r>
       <r>  -21.6579    1.0000 </r>
       <r>  -21.6571    1.0000 </r>
       <r>  -21.6571    1.0000 </r>
       <r>  -21.6514    1.0000 </r>
       <r>  -21.6514    1.0000 </r>
       <r>  -21.6490    1.0000 </r>
       <r>  -21.6490    1.0000 </r>
       <r>  -21.6475    1.0000 </r>
       <r>  -21.6475    1.0000 </r>
       <r>  -13.3129    1.0000 </r>
       <r>  -13.3129    1.0000 </r>
       <r>  -13.1498    1.0000 </r>
       <r>  -13.1498    1.0000 </r>
       <r>   -2.2223    1.0000 </r>
       <r>   -2.2223    1.0000 </r>
       <r>   -2.0785    1.0000 </r>
       <r>   -2.0785    1.0000 </r>
       <r>   -2.0536    1.0000 </r>
       <r>   -2.0536    1.0000 </r>
       <r>   -1.5291    1.0000 </r>
       <r>   -1.5291    1.0000 </r>
       <r>   -1.3158    1.0000 </r>
       <r>   -1.3158    1.0000 </r>
       <r>   -1.2099    1.0000 </r>
       <r>   -1.2099    1.0000 </r>
       <r>    6.0213    0.0000 </r>
       <r>    6.0213    0.0000 </r>
       <r>    7.8677    0.0000 </r>
       <r>    7.9008    0.0000 </r>
       <r>    8.1229    0.0000 </r>
       <r>    8.1420    0.0000 </r>
       <r>    8.1558    0.0000 </r>
       <r>    8.4196    0.0000 </r>
      </set>
      <set comment="kpoint 8">
       <r>  -21.6625    1.0000 </r>
       <r>  -21.6625    1.0000 </r>
       <r>  -21.6614    1.0000 </r>
       <r>  -21.6579    1.0000 </r>
       <r>  -21.6578    1.0000 </r>
       <r>  -21.6528    1.0000 </r>
       <r>  -21.6528    1.0000 </r>
       <r>  -21.6490    1.0000 </r>
       <r>  -21.6489    1.0000 </r>
       <r>  -21.6489    1.0000 </r>
       <r>  -21.6486    1.0000 </r>
       <r>  -21.6453    1.0000 </r>
       <r>  -13.3443    1.0000 </r>
       <r>  -13.2046    1.0000 </r>
       <r>  -13.2046    1.0000 </r>
       <r>  -13.1568    1.0000 </r>
       <r>   -2.3708    1.0000 </r>
       <r>   -2.3708    1.0000 </r>
       <r>   -2.2384    1.0000 </r>
       <r>   -2.1402    1.0000 </r>
       <r>   -2.0067    1.0000 </r>
       <r>   -1.6665    1.0000 </r>
       <r>   -1.6665    1.0000 </r>
       <r>   -1.3517    1.0000 </r>
       <r>   -1.3502    1.0000 </r>
       <r>   -1.3502    1.0000 </r>
       <r>   -1.3028    1.0000 </r>
       <r>   -1.0559    1.0000 </r>
       <r>    5.7020    0.0000 </r>
       <r>    7.1568    0.0000 </r>
       <r>    7.1568    0.0000 </r>
       <r>    7.4148    0.0000 </r>
       <r>    8.0478    0.0000 </r>
       <r>    8.0656    0.0000 </r>
       <r>    8.2180    0.0000 </r>
       <r>    8.7333    0.0000 </r>
      </set>
      <set comment="kpoint 9">
       <r>  -21.6629    1.0000 </r>
       <r>  -21.6629    1.0000 </r>
       <r>  -21.6612    1.0000 </r>
       <r>  -21.6612    1.0000 </r>
       <r>  -21.6554    1.0000 </r>
       <r>  -21.6554    1.0000 </r>
       <r>  -21.6507    1.0000 </r>
       <r>  -21.6507    1.0000 </r>
       <r>  -21.6484    1.0000 </r>
       <r>  -21.6484    1.0000 </r>
       <r>  -21.6465    1.0000 </r>
       <r>  -21.6465    1.0000 </r>
       <r>  -13.2712    1.0000 </r>
       <r>  -13.2712    1.0000 </r>
       <r>  -13.1767    1.0000 </r>
       <r>  -13.1767    1.0000 </r>
       <r>   -2.3551    1.0000 </r>
       <r>   -2.3551    1.0000 </r>
       <r>   -2.2501    1.0000 </r>
       <r>   -2.2501    1.0000 </r>
       <r>   -1.9148    1.0000 </r>
       <r>   -1.9148    1.0000 </r>
       <r>   -1.4913    1.0000 </r>
       <r>   -1.4913    1.0000 </r>
       <r>   -1.3234    1.0000 </r>
       <r>   -1.3234    1.0000 </r>
       <r>   -1.1659    1.0000 </r>
       <r>   -1.1659    1.0000 </r>
       <r>    6.4415    0.0000 </r>
       <r>    6.4415    0.0000 </r>
       <r>    7.5536    0.0000 </r>
       <r>    7.5540    0.0000 </r>
       <r>    8.3089    0.0000 </r>
       <r>    8.3389    0.0000 </r>
       <r>    8.3944    0.0000 </r>
       <r>    8.5565    0.0000 </r>
      </set>
      <set comment="kpoint 10">
       <r>  -21.6633    1.0000 </r>
       <r>  -21.6633    1.0000 </r>
       <r>  -21.6633    1.0000 </r>
       <r>  -21.6633    1.0000 </r>
       <r>  -21.6530    1.0000 </r>
       <r>  -21.6530    1.0000 </r>
       <r>  -21.6530    1.0000 </r>
       <r>  -21.6530    1.0000 </r>
       <r>  -21.6467    1.0000 </r>
       <r>  -21.6467    1.0000 </r>
       <r>  -21.6467    1.0000 </r>
       <r>  -21.6467    1.0000 </r>
       <r>  -13.2203    1.0000 </r>
       <r>  -13.2203    1.0000 </r>
       <r>  -13.2203    1.0000 </r>
       <r>  -13.2203    1.0000 </r>
       <r>   -2.3658    1.0000 </r>
       <r>   -2.3658    1.0000 </r>
       <r>   -2.3658    1.0000 </r>
       <r>   -2.3658    1.0000 </r>
       <r>   -1.7121    1.0000 </r>
       <r>   -1.7121    1.0000 </r>
       <r>   -1.7121    1.0000 </r>
       <r>   -1.7121    1.0000 </r>
       <r>   -1.1950    1.0000 </r>
       <r>   -1.1950    1.0000 </r>
       <r>   -1.1950    1.0000 </r>
       <r>   -1.1950    1.0000 </r>
       <r>    6.9804    0.0000 </r>
       <r>    6.9804    0.0000 </r>
       <r>    6.9804    0.0000 </r>
       <r>    6.9805    0.0000 </r>
       <r>    8.5219    0.0000 </r>
       <r>    8.5247    0.0000 </r>
       <r>    8.5828    0.0000 </r>
       <r>    8.8358    0.0000 </r>
      </set>
      <set comment="kpoint 11">
       <r>  -21.6624    1.0000 </r>
       <r>  -21.6624    1.0000 </r>
       <r>  -21.6624    1.0000 </r>
       <r>  -21.6538    1.0000 </r>
       <r>  -21.6538    1.0000 </r>
       <r>  -21.6538    1.0000 </r>
       <r>  -21.6515    1.0000 </r>
       <r>  -21.6508    1.0000 </r>
       <r>  -21.6508    1.0000 </r>
       <r>  -21.6508    1.0000 </r>
       <r>  -21.6452    1.0000 </r>
       <r>  -21.6452    1.0000 </r>
       <r>  -13.4453    1.0000 </r>
       <r>  -13.1687    1.0000 </r>
       <r>  -13.1687    1.0000 </r>
       <r>  -13.1687    1.0000 </r>
       <r>   -2.4503    1.0000 </r>
       <r>   -2.4503    1.0000 </r>
       <r>   -2.4503    1.0000 </r>
       <r>   -1.7062    1.0000 </r>
       <r>   -1.7062    1.0000 </r>
       <r>   -1.7062    1.0000 </r>
       <r>   -1.5330    1.0000 </r>
       <r>   -1.4442    1.0000 </r>
       <r>   -1.4442    1.0000 </r>
       <r>   -1.4442    1.0000 </r>
       <r>   -1.0053    1.0000 </r>
       <r>   -1.0053    1.0000 </r>
       <r>    4.7029    0.0000 </r>
       <r>    6.8534    0.0000 </r>
       <r>    6.8536    0.0000 </r>
       <r>    6.8536    0.0000 </r>
       <r>    7.5348    0.0000 </r>
       <r>    7.5349    0.0000 </r>
       <r>    7.5362    0.0000 </r>
       <r>    9.3090    0.0000 </r>
      </set>
      <set comment="kpoint 12">
       <r>  -21.6627    1.0000 </r>
       <r>  -21.6627    1.0000 </r>
       <r>  -21.6623    1.0000 </r>
       <r>  -21.6560    1.0000 </r>
       <r>  -21.6548    1.0000 </r>
       <r>  -21.6548    1.0000 </r>
       <r>  -21.6507    1.0000 </r>
       <r>  -21.6504    1.0000 </r>
       <r>  -21.6504    1.0000 </r>
       <r>  -21.6496    1.0000 </r>
       <r>  -21.6464    1.0000 </r>
       <r>  -21.6458    1.0000 </r>
       <r>  -13.3812    1.0000 </r>
       <r>  -13.2212    1.0000 </r>
       <r>  -13.1608    1.0000 </r>
       <r>  -13.1608    1.0000 </r>
       <r>   -2.4032    1.0000 </r>
       <r>   -2.4032    1.0000 </r>
       <r>   -2.3833    1.0000 </r>
       <r>   -1.8820    1.0000 </r>
       <r>   -1.8486    1.0000 </r>
       <r>   -1.8486    1.0000 </r>
       <r>   -1.5043    1.0000 </r>
       <r>   -1.4401    1.0000 </r>
       <r>   -1.4401    1.0000 </r>
       <r>   -1.3577    1.0000 </r>
       <r>   -1.1048    1.0000 </r>
       <r>   -1.0824    1.0000 </r>
       <r>    5.3082    0.0000 </r>
       <r>    6.7301    0.0000 </r>
       <r>    7.2621    0.0000 </r>
       <r>    7.2626    0.0000 </r>
       <r>    7.8308    0.0000 </r>
       <r>    8.0069    0.0000 </r>
       <r>    8.0109    0.0000 </r>
       <r>    8.9019    0.0000 </r>
      </set>
      <set comment="kpoint 13">
       <r>  -21.6630    1.0000 </r>
       <r>  -21.6630    1.0000 </r>
       <r>  -21.6601    1.0000 </r>
       <r>  -21.6601    1.0000 </r>
       <r>  -21.6550    1.0000 </r>
       <r>  -21.6550    1.0000 </r>
       <r>  -21.6504    1.0000 </r>
       <r>  -21.6504    1.0000 </r>
       <r>  -21.6480    1.0000 </r>
       <r>  -21.6480    1.0000 </r>
       <r>  -21.6478    1.0000 </r>
       <r>  -21.6478    1.0000 </r>
       <r>  -13.2983    1.0000 </r>
       <r>  -13.2983    1.0000 </r>
       <r>  -13.1568    1.0000 </r>
       <r>  -13.1568    1.0000 </r>
       <r>   -2.3797    1.0000 </r>
       <r>   -2.3797    1.0000 </r>
       <r>   -2.1922    1.0000 </r>
       <r>   -2.1922    1.0000 </r>
       <r>   -1.9013    1.0000 </r>
       <r>   -1.9013    1.0000 </r>
       <r>   -1.4563    1.0000 </r>
       <r>   -1.4563    1.0000 </r>
       <r>   -1.2719    1.0000 </r>
       <r>   -1.2719    1.0000 </r>
       <r>   -1.2345    1.0000 </r>
       <r>   -1.2345    1.0000 </r>
       <r>    6.0957    0.0000 </r>
       <r>    6.0957    0.0000 </r>
       <r>    7.7244    0.0000 </r>
       <r>    7.7282    0.0000 </r>
       <r>    8.0232    0.0000 </r>
       <r>    8.0353    0.0000 </r>
       <r>    8.2674    0.0000 </r>
       <r>    8.4701    0.0000 </r>
      </set>
      <set comment="kpoint 14">
       <r>  -21.6648    1.0000 </r>
       <r>  -21.6645    1.0000 </r>
       <r>  -21.6645    1.0000 </r>
       <r>  -21.6604    1.0000 </r>
       <r>  -21.6541    1.0000 </r>
       <r>  -21.6514    1.0000 </r>
       <r>  -21.6514    1.0000 </r>
       <r>  -21.6488    1.0000 </r>
       <r>  -21.6487    1.0000 </r>
       <r>  -21.6487    1.0000 </r>
       <r>  -21.6473    1.0000 </r>
       <r>  -21.6456    1.0000 </r>
       <r>  -13.3280    1.0000 </r>
       <r>  -13.2004    1.0000 </r>
       <r>  -13.2004    1.0000 </r>
       <r>  -13.1655    1.0000 </r>
       <r>   -2.4801    1.0000 </r>
       <r>   -2.4737    1.0000 </r>
       <r>   -2.4737    1.0000 </r>
       <r>   -2.1729    1.0000 </r>
       <r>   -1.8318    1.0000 </r>
       <r>   -1.5907    1.0000 </r>
       <r>   -1.5907    1.0000 </r>
       <r>   -1.3327    1.0000 </r>
       <r>   -1.3279    1.0000 </r>
       <r>   -1.3279    1.0000 </r>
       <r>   -1.2061    1.0000 </r>
       <r>   -1.0765    1.0000 </r>
       <r>    5.7170    0.0000 </r>
       <r>    6.9482    0.0000 </r>
       <r>    6.9482    0.0000 </r>
       <r>    7.2144    0.0000 </r>
       <r>    8.2723    0.0000 </r>
       <r>    8.3022    0.0000 </r>
       <r>    8.3059    0.0000 </r>
       <r>    8.7477    0.0000 </r>
      </set>
      <set comment="kpoint 15">
       <r>  -21.6656    1.0000 </r>
       <r>  -21.6656    1.0000 </r>
       <r>  -21.6637    1.0000 </r>
       <r>  -21.6637    1.0000 </r>
       <r>  -21.6528    1.0000 </r>
       <r>  -21.6528    1.0000 </r>
       <r>  -21.6491    1.0000 </r>
       <r>  -21.6491    1.0000 </r>
       <r>  -21.6482    1.0000 </r>
       <r>  -21.6482    1.0000 </r>
       <r>  -21.6466    1.0000 </r>
       <r>  -21.6466    1.0000 </r>
       <r>  -13.2609    1.0000 </r>
       <r>  -13.2609    1.0000 </r>
       <r>  -13.1789    1.0000 </r>
       <r>  -13.1789    1.0000 </r>
       <r>   -2.5201    1.0000 </r>
       <r>   -2.5201    1.0000 </r>
       <r>   -2.3952    1.0000 </r>
       <r>   -2.3952    1.0000 </r>
       <r>   -1.7177    1.0000 </r>
       <r>   -1.7177    1.0000 </r>
       <r>   -1.3725    1.0000 </r>
       <r>   -1.3725    1.0000 </r>
       <r>   -1.3058    1.0000 </r>
       <r>   -1.3058    1.0000 </r>
       <r>   -1.1782    1.0000 </r>
       <r>   -1.1782    1.0000 </r>
       <r>    6.3200    0.0000 </r>
       <r>    6.3200    0.0000 </r>
       <r>    7.1567    0.0000 </r>
       <r>    7.1569    0.0000 </r>
       <r>    8.4624    0.0000 </r>
       <r>    8.5214    0.0000 </r>
       <r>    8.7668    0.0000 </r>
       <r>    8.9004    0.0000 </r>
      </set>
      <set comment="kpoint 16">
       <r>  -21.6660    1.0000 </r>
       <r>  -21.6660    1.0000 </r>
       <r>  -21.6660    1.0000 </r>
       <r>  -21.6660    1.0000 </r>
       <r>  -21.6508    1.0000 </r>
       <r>  -21.6508    1.0000 </r>
       <r>  -21.6508    1.0000 </r>
       <r>  -21.6508    1.0000 </r>
       <r>  -21.6467    1.0000 </r>
       <r>  -21.6467    1.0000 </r>
       <r>  -21.6467    1.0000 </r>
       <r>  -21.6467    1.0000 </r>
       <r>  -13.2160    1.0000 </r>
       <r>  -13.2160    1.0000 </r>
       <r>  -13.2160    1.0000 </r>
       <r>  -13.2160    1.0000 </r>
       <r>   -2.5270    1.0000 </r>
       <r>   -2.5270    1.0000 </r>
       <r>   -2.5270    1.0000 </r>
       <r>   -2.5270    1.0000 </r>
       <r>   -1.5369    1.0000 </r>
       <r>   -1.5369    1.0000 </r>
       <r>   -1.5369    1.0000 </r>
       <r>   -1.5369    1.0000 </r>
       <r>   -1.1944    1.0000 </r>
       <r>   -1.1944    1.0000 </r>
       <r>   -1.1944    1.0000 </r>
       <r>   -1.1944    1.0000 </r>
       <r>    6.6797    0.0000 </r>
       <r>    6.6797    0.0000 </r>
       <r>    6.6797    0.0000 </r>
       <r>    6.6797    0.0000 </r>
       <r>    8.7714    0.0000 </r>
       <r>    8.7801    0.0000 </r>
       <r>    8.8353    0.0000 </r>
       <r>    9.0701    0.0000 </r>
      </set>
      <set comment="kpoint 17">
       <r>  -21.6676    1.0000 </r>
       <r>  -21.6676    1.0000 </r>
       <r>  -21.6676    1.0000 </r>
       <r>  -21.6648    1.0000 </r>
       <r>  -21.6498    1.0000 </r>
       <r>  -21.6498    1.0000 </r>
       <r>  -21.6498    1.0000 </r>
       <r>  -21.6481    1.0000 </r>
       <r>  -21.6481    1.0000 </r>
       <r>  -21.6481    1.0000 </r>
       <r>  -21.6462    1.0000 </r>
       <r>  -21.6462    1.0000 </r>
       <r>  -13.2862    1.0000 </r>
       <r>  -13.1921    1.0000 </r>
       <r>  -13.1921    1.0000 </r>
       <r>  -13.1921    1.0000 </r>
       <r>   -2.6346    1.0000 </r>
       <r>   -2.6346    1.0000 </r>
       <r>   -2.6346    1.0000 </r>
       <r>   -2.4439    1.0000 </r>
       <r>   -1.4883    1.0000 </r>
       <r>   -1.4883    1.0000 </r>
       <r>   -1.4883    1.0000 </r>
       <r>   -1.2801    1.0000 </r>
       <r>   -1.2801    1.0000 </r>
       <r>   -1.2801    1.0000 </r>
       <r>   -1.1322    1.0000 </r>
       <r>   -1.1322    1.0000 </r>
       <r>    5.8432    0.0000 </r>
       <r>    6.6992    0.0000 </r>
       <r>    6.6992    0.0000 </r>
       <r>    6.6993    0.0000 </r>
       <r>    8.6672    0.0000 </r>
       <r>    8.7122    0.0000 </r>
       <r>    8.8782    0.0000 </r>
       <r>    9.1895    0.0000 </r>
      </set>
      <set comment="kpoint 18">
       <r>  -21.6690    1.0000 </r>
       <r>  -21.6690    1.0000 </r>
       <r>  -21.6677    1.0000 </r>
       <r>  -21.6677    1.0000 </r>
       <r>  -21.6495    1.0000 </r>
       <r>  -21.6495    1.0000 </r>
       <r>  -21.6476    1.0000 </r>
       <r>  -21.6476    1.0000 </r>
       <r>  -21.6472    1.0000 </r>
       <r>  -21.6472    1.0000 </r>
       <r>  -21.6470    1.0000 </r>
       <r>  -21.6470    1.0000 </r>
       <r>  -13.2354    1.0000 </r>
       <r>  -13.2354    1.0000 </r>
       <r>  -13.1879    1.0000 </r>
       <r>  -13.1879    1.0000 </r>
       <r>   -2.7026    1.0000 </r>
       <r>   -2.7026    1.0000 </r>
       <r>   -2.6209    1.0000 </r>
       <r>   -2.6209    1.0000 </r>
       <r>   -1.4506    1.0000 </r>
       <r>   -1.4506    1.0000 </r>
       <r>   -1.2555    1.0000 </r>
       <r>   -1.2555    1.0000 </r>
       <r>   -1.2311    1.0000 </r>
       <r>   -1.2311    1.0000 </r>
       <r>   -1.2069    1.0000 </r>
       <r>   -1.2069    1.0000 </r>
       <r>    6.1802    0.0000 </r>
       <r>    6.1802    0.0000 </r>
       <r>    6.6105    0.0000 </r>
       <r>    6.6105    0.0000 </r>
       <r>    8.8622    0.0000 </r>
       <r>    8.9309    0.0000 </r>
       <r>    9.0295    0.0000 </r>
       <r>    9.3079    0.0000 </r>
      </set>
      <set comment="kpoint 19">
       <r>  -21.6698    1.0000 </r>
       <r>  -21.6698    1.0000 </r>
       <r>  -21.6698    1.0000 </r>
       <r>  -21.6698    1.0000 </r>
       <r>  -21.6479    1.0000 </r>
       <r>  -21.6479    1.0000 </r>
       <r>  -21.6479    1.0000 </r>
       <r>  -21.6479    1.0000 </r>
       <r>  -21.6467    1.0000 </r>
       <r>  -21.6467    1.0000 </r>
       <r>  -21.6467    1.0000 </r>
       <r>  -21.6467    1.0000 </r>
       <r>  -13.2075    1.0000 </r>
       <r>  -13.2075    1.0000 </r>
       <r>  -13.2075    1.0000 </r>
       <r>  -13.2075    1.0000 </r>
       <r>   -2.7424    1.0000 </r>
       <r>   -2.7424    1.0000 </r>
       <r>   -2.7424    1.0000 </r>
       <r>   -2.7424    1.0000 </r>
       <r>   -1.2926    1.0000 </r>
       <r>   -1.2926    1.0000 </r>
       <r>   -1.2926    1.0000 </r>
       <r>   -1.2926    1.0000 </r>
       <r>   -1.1934    1.0000 </r>
       <r>   -1.1934    1.0000 </r>
       <r>   -1.1934    1.0000 </r>
       <r>   -1.1934    1.0000 </r>
       <r>    6.2600    0.0000 </r>
       <r>    6.2600    0.0000 </r>
       <r>    6.2600    0.0000 </r>
       <r>    6.2600    0.0000 </r>
       <r>    9.1387    0.0000 </r>
       <r>    9.1438    0.0000 </r>
       <r>    9.1544    0.0000 </r>
       <r>    9.6357    0.0000 </r>
      </set>
      <set comment="kpoint 20">
       <r>  -21.6714    1.0000 </r>
       <r>  -21.6714    1.0000 </r>
       <r>  -21.6714    1.0000 </r>
       <r>  -21.6714    1.0000 </r>
       <r>  -21.6467    1.0000 </r>
       <r>  -21.6467    1.0000 </r>
       <r>  -21.6467    1.0000 </r>
       <r>  -21.6467    1.0000 </r>
       <r>  -21.6467    1.0000 </r>
       <r>  -21.6467    1.0000 </r>
       <r>  -21.6467    1.0000 </r>
       <r>  -21.6467    1.0000 </r>
       <r>  -13.2033    1.0000 </r>
       <r>  -13.2033    1.0000 </r>
       <r>  -13.2033    1.0000 </r>
       <r>  -13.2033    1.0000 </r>
       <r>   -2.8271    1.0000 </r>
       <r>   -2.8271    1.0000 </r>
       <r>   -2.8271    1.0000 </r>
       <r>   -2.8271    1.0000 </r>
       <r>   -1.1929    1.0000 </r>
       <r>   -1.1929    1.0000 </r>
       <r>   -1.1929    1.0000 </r>
       <r>   -1.1929    1.0000 </r>
       <r>   -1.1929    1.0000 </r>
       <r>   -1.1929    1.0000 </r>
       <r>   -1.1929    1.0000 </r>
       <r>   -1.1929    1.0000 </r>
       <r>    6.0922    0.0000 </r>
       <r>    6.0922    0.0000 </r>
       <r>    6.0922    0.0000 </r>
       <r>    6.0922    0.0000 </r>
       <r>    9.3450    0.0000 </r>
       <r>    9.3451    0.0000 </r>
       <r>    9.3453    0.0000 </r>
       <r>    9.3460    0.0000 </r>
      </set>
     </set>
     <set comment="spin 2">
      <set comment="kpoint 1">
       <r>  -21.6634    1.0000 </r>
       <r>  -21.6634    1.0000 </r>
       <r>  -21.6634    1.0000 </r>
       <r>  -21.6523    1.0000 </r>
       <r>  -21.6523    1.0000 </r>
       <r>  -21.6523    1.0000 </r>
       <r>  -21.6523    1.0000 </r>
       <r>  -21.6523    1.0000 </r>
       <r>  -21.6523    1.0000 </r>
       <r>  -21.6448    1.0000 </r>
       <r>  -21.6448    1.0000 </r>
       <r>  -21.6448    1.0000 </r>
       <r>  -13.5216    1.0000 </r>
       <r>  -13.1565    1.0000 </r>
       <r>  -13.1565    1.0000 </r>
       <r>  -13.1565    1.0000 </r>
       <r>   -2.5697    1.0000 </r>
       <r>   -2.5697    1.0000 </r>
       <r>   -2.5697    1.0000 </r>
       <r>   -1.5218    1.0000 </r>
       <r>   -1.5218    1.0000 </r>
       <r>   -1.5218    1.0000 </r>
       <r>   -1.5218    1.0000 </r>
       <r>   -1.5218    1.0000 </r>
       <r>   -1.5218    1.0000 </r>
       <r>   -0.9388    1.0000 </r>
       <r>   -0.9388    1.0000 </r>
       <r>   -0.9388    1.0000 </r>
       <r>    3.8953    0.0000 </r>
       <r>    6.4216    0.0000 </r>
       <r>    6.4216    0.0000 </r>
       <r>    6.4216    0.0000 </r>
       <r>    6.9750    0.0000 </r>
       <r>    6.9750    0.0000 </r>
       <r>    6.9751    0.0000 </r>
       <r>   10.0104    0.0000 </r>
      </set>
      <set comment="kpoint 2">
       <r>  -21.6626    1.0000 </r>
       <r>  -21.6626    1.0000 </r>
       <r>  -21.6626    1.0000 </r>
       <r>  -21.6530    1.0000 </r>
       <r>  -21.6530    1.0000 </r>
       <r>  -21.6527    1.0000 </r>
       <r>  -21.6527    1.0000 </r>
       <r>  -21.6518    1.0000 </r>
       <r>  -21.6518    1.0000 </r>
       <r>  -21.6465    1.0000 </r>
       <r>  -21.6453    1.0000 </r>
       <r>  -21.6453    1.0000 </r>
       <r>  -13.4948    1.0000 </r>
       <r>  -13.1783    1.0000 </r>
       <r>  -13.1526    1.0000 </r>
       <r>  -13.1526    1.0000 </r>
       <r>   -2.5120    1.0000 </r>
       <r>   -2.5120    1.0000 </r>
       <r>   -2.5090    1.0000 </r>
       <r>   -1.6087    1.0000 </r>
       <r>   -1.6087    1.0000 </r>
       <r>   -1.5607    1.0000 </r>
       <r>   -1.5607    1.0000 </r>
       <r>   -1.4869    1.0000 </r>
       <r>   -1.4869    1.0000 </r>
       <r>   -1.1282    1.0000 </r>
       <r>   -0.9827    1.0000 </r>
       <r>   -0.9827    1.0000 </r>
       <r>    4.2050    0.0000 </r>
       <r>    6.4933    0.0000 </r>
       <r>    6.6599    0.0000 </r>
       <r>    6.6599    0.0000 </r>
       <r>    7.0932    0.0000 </r>
       <r>    7.1871    0.0000 </r>
       <r>    7.1878    0.0000 </r>
       <r>    9.7274    0.0000 </r>
      </set>
      <set comment="kpoint 3">
       <r>  -21.6606    1.0000 </r>
       <r>  -21.6606    1.0000 </r>
       <r>  -21.6602    1.0000 </r>
       <r>  -21.6550    1.0000 </r>
       <r>  -21.6550    1.0000 </r>
       <r>  -21.6537    1.0000 </r>
       <r>  -21.6537    1.0000 </r>
       <r>  -21.6510    1.0000 </r>
       <r>  -21.6504    1.0000 </r>
       <r>  -21.6504    1.0000 </r>
       <r>  -21.6466    1.0000 </r>
       <r>  -21.6466    1.0000 </r>
       <r>  -13.4231    1.0000 </r>
       <r>  -13.2400    1.0000 </r>
       <r>  -13.1448    1.0000 </r>
       <r>  -13.1448    1.0000 </r>
       <r>   -2.3471    1.0000 </r>
       <r>   -2.3471    1.0000 </r>
       <r>   -2.3179    1.0000 </r>
       <r>   -1.8305    1.0000 </r>
       <r>   -1.8305    1.0000 </r>
       <r>   -1.6365    1.0000 </r>
       <r>   -1.6365    1.0000 </r>
       <r>   -1.5517    1.0000 </r>
       <r>   -1.3888    1.0000 </r>
       <r>   -1.3888    1.0000 </r>
       <r>   -1.0986    1.0000 </r>
       <r>   -1.0986    1.0000 </r>
       <r>    4.9680    0.0000 </r>
       <r>    6.4524    0.0000 </r>
       <r>    7.2612    0.0000 </r>
       <r>    7.2612    0.0000 </r>
       <r>    7.4440    0.0000 </r>
       <r>    7.7571    0.0000 </r>
       <r>    7.7575    0.0000 </r>
       <r>    9.0446    0.0000 </r>
      </set>
      <set comment="kpoint 4">
       <r>  -21.6578    1.0000 </r>
       <r>  -21.6578    1.0000 </r>
       <r>  -21.6578    1.0000 </r>
       <r>  -21.6578    1.0000 </r>
       <r>  -21.6561    1.0000 </r>
       <r>  -21.6561    1.0000 </r>
       <r>  -21.6542    1.0000 </r>
       <r>  -21.6542    1.0000 </r>
       <r>  -21.6485    1.0000 </r>
       <r>  -21.6485    1.0000 </r>
       <r>  -21.6485    1.0000 </r>
       <r>  -21.6485    1.0000 </r>
       <r>  -13.3291    1.0000 </r>
       <r>  -13.3291    1.0000 </r>
       <r>  -13.1409    1.0000 </r>
       <r>  -13.1409    1.0000 </r>
       <r>   -2.1026    1.0000 </r>
       <r>   -2.1026    1.0000 </r>
       <r>   -2.1026    1.0000 </r>
       <r>   -2.1026    1.0000 </r>
       <r>   -1.9880    1.0000 </r>
       <r>   -1.9880    1.0000 </r>
       <r>   -1.6734    1.0000 </r>
       <r>   -1.6734    1.0000 </r>
       <r>   -1.2482    1.0000 </r>
       <r>   -1.2482    1.0000 </r>
       <r>   -1.2482    1.0000 </r>
       <r>   -1.2482    1.0000 </r>
       <r>    5.8596    0.0000 </r>
       <r>    5.8596    0.0000 </r>
       <r>    7.7042    0.0000 </r>
       <r>    7.7125    0.0000 </r>
       <r>    8.0182    0.0000 </r>
       <r>    8.0309    0.0000 </r>
       <r>    8.5185    0.0000 </r>
       <r>    8.5185    0.0000 </r>
      </set>
      <set comment="kpoint 5">
       <r>  -21.6624    1.0000 </r>
       <r>  -21.6624    1.0000 </r>
       <r>  -21.6619    1.0000 </r>
       <r>  -21.6555    1.0000 </r>
       <r>  -21.6525    1.0000 </r>
       <r>  -21.6525    1.0000 </r>
       <r>  -21.6519    1.0000 </r>
       <r>  -21.6519    1.0000 </r>
       <r>  -21.6513    1.0000 </r>
       <r>  -21.6490    1.0000 </r>
       <r>  -21.6458    1.0000 </r>
       <r>  -21.6449    1.0000 </r>
       <r>  -13.4693    1.0000 </r>
       <r>  -13.1727    1.0000 </r>
       <r>  -13.1727    1.0000 </r>
       <r>  -13.1504    1.0000 </r>
       <r>   -2.4732    1.0000 </r>
       <r>   -2.4732    1.0000 </r>
       <r>   -2.4552    1.0000 </r>
       <r>   -1.7920    1.0000 </r>
       <r>   -1.5714    1.0000 </r>
       <r>   -1.5714    1.0000 </r>
       <r>   -1.5105    1.0000 </r>
       <r>   -1.5105    1.0000 </r>
       <r>   -1.4751    1.0000 </r>
       <r>   -1.3365    1.0000 </r>
       <r>   -1.0301    1.0000 </r>
       <r>   -0.9678    1.0000 </r>
       <r>    4.4749    0.0000 </r>
       <r>    6.7294    0.0000 </r>
       <r>    6.7295    0.0000 </r>
       <r>    6.8011    0.0000 </r>
       <r>    7.2951    0.0000 </r>
       <r>    7.2951    0.0000 </r>
       <r>    7.4291    0.0000 </r>
       <r>    9.4374    0.0000 </r>
      </set>
      <set comment="kpoint 6">
       <r>  -21.6617    1.0000 </r>
       <r>  -21.6611    1.0000 </r>
       <r>  -21.6599    1.0000 </r>
       <r>  -21.6583    1.0000 </r>
       <r>  -21.6545    1.0000 </r>
       <r>  -21.6535    1.0000 </r>
       <r>  -21.6519    1.0000 </r>
       <r>  -21.6511    1.0000 </r>
       <r>  -21.6511    1.0000 </r>
       <r>  -21.6499    1.0000 </r>
       <r>  -21.6472    1.0000 </r>
       <r>  -21.6457    1.0000 </r>
       <r>  -13.4014    1.0000 </r>
       <r>  -13.2298    1.0000 </r>
       <r>  -13.1601    1.0000 </r>
       <r>  -13.1472    1.0000 </r>
       <r>   -2.3735    1.0000 </r>
       <r>   -2.3376    1.0000 </r>
       <r>   -2.2933    1.0000 </r>
       <r>   -2.0231    1.0000 </r>
       <r>   -1.7876    1.0000 </r>
       <r>   -1.7141    1.0000 </r>
       <r>   -1.5436    1.0000 </r>
       <r>   -1.4796    1.0000 </r>
       <r>   -1.4666    1.0000 </r>
       <r>   -1.3793    1.0000 </r>
       <r>   -1.1550    1.0000 </r>
       <r>   -1.0532    1.0000 </r>
       <r>    5.1658    0.0000 </r>
       <r>    6.6548    0.0000 </r>
       <r>    7.2668    0.0000 </r>
       <r>    7.3404    0.0000 </r>
       <r>    7.6136    0.0000 </r>
       <r>    7.8342    0.0000 </r>
       <r>    7.9209    0.0000 </r>
       <r>    8.8620    0.0000 </r>
      </set>
      <set comment="kpoint 7">
       <r>  -21.6604    1.0000 </r>
       <r>  -21.6604    1.0000 </r>
       <r>  -21.6580    1.0000 </r>
       <r>  -21.6580    1.0000 </r>
       <r>  -21.6572    1.0000 </r>
       <r>  -21.6572    1.0000 </r>
       <r>  -21.6515    1.0000 </r>
       <r>  -21.6515    1.0000 </r>
       <r>  -21.6491    1.0000 </r>
       <r>  -21.6491    1.0000 </r>
       <r>  -21.6476    1.0000 </r>
       <r>  -21.6476    1.0000 </r>
       <r>  -13.3129    1.0000 </r>
       <r>  -13.3129    1.0000 </r>
       <r>  -13.1497    1.0000 </r>
       <r>  -13.1497    1.0000 </r>
       <r>   -2.2224    1.0000 </r>
       <r>   -2.2224    1.0000 </r>
       <r>   -2.0785    1.0000 </r>
       <r>   -2.0785    1.0000 </r>
       <r>   -2.0536    1.0000 </r>
       <r>   -2.0536    1.0000 </r>
       <r>   -1.5292    1.0000 </r>
       <r>   -1.5292    1.0000 </r>
       <r>   -1.3158    1.0000 </r>
       <r>   -1.3158    1.0000 </r>
       <r>   -1.2099    1.0000 </r>
       <r>   -1.2099    1.0000 </r>
       <r>    6.0215    0.0000 </r>
       <r>    6.0215    0.0000 </r>
       <r>    7.8631    0.0000 </r>
       <r>    7.9381    0.0000 </r>
       <r>    8.1206    0.0000 </r>
       <r>    8.1477    0.0000 </r>
       <r>    8.2317    0.0000 </r>
       <r>    8.5110    0.0000 </r>
      </set>
      <set comment="kpoint 8">
       <r>  -21.6626    1.0000 </r>
       <r>  -21.6626    1.0000 </r>
       <r>  -21.6615    1.0000 </r>
       <r>  -21.6580    1.0000 </r>
       <r>  -21.6579    1.0000 </r>
       <r>  -21.6529    1.0000 </r>
       <r>  -21.6529    1.0000 </r>
       <r>  -21.6491    1.0000 </r>
       <r>  -21.6490    1.0000 </r>
       <r>  -21.6490    1.0000 </r>
       <r>  -21.6487    1.0000 </r>
       <r>  -21.6454    1.0000 </r>
       <r>  -13.3442    1.0000 </r>
       <r>  -13.2046    1.0000 </r>
       <r>  -13.2046    1.0000 </r>
       <r>  -13.1568    1.0000 </r>
       <r>   -2.3708    1.0000 </r>
       <r>   -2.3708    1.0000 </r>
       <r>   -2.2384    1.0000 </r>
       <r>   -2.1402    1.0000 </r>
       <r>   -2.0067    1.0000 </r>
       <r>   -1.6665    1.0000 </r>
       <r>   -1.6665    1.0000 </r>
       <r>   -1.3517    1.0000 </r>
       <r>   -1.3502    1.0000 </r>
       <r>   -1.3502    1.0000 </r>
       <r>   -1.3028    1.0000 </r>
       <r>   -1.0559    1.0000 </r>
       <r>    5.7022    0.0000 </r>
       <r>    7.1570    0.0000 </r>
       <r>    7.1570    0.0000 </r>
       <r>    7.4143    0.0000 </r>
       <r>    8.0486    0.0000 </r>
       <r>    8.0533    0.0000 </r>
       <r>    8.1761    0.0000 </r>
       <r>    8.6716    0.0000 </r>
      </set>
      <set comment="kpoint 9">
       <r>  -21.6630    1.0000 </r>
       <r>  -21.6630    1.0000 </r>
       <r>  -21.6613    1.0000 </r>
       <r>  -21.6613    1.0000 </r>
       <r>  -21.6555    1.0000 </r>
       <r>  -21.6555    1.0000 </r>
       <r>  -21.6508    1.0000 </r>
       <r>  -21.6508    1.0000 </r>
       <r>  -21.6485    1.0000 </r>
       <r>  -21.6485    1.0000 </r>
       <r>  -21.6466    1.0000 </r>
       <r>  -21.6466    1.0000 </r>
       <r>  -13.2712    1.0000 </r>
       <r>  -13.2712    1.0000 </r>
       <r>  -13.1767    1.0000 </r>
       <r>  -13.1767    1.0000 </r>
       <r>   -2.3551    1.0000 </r>
       <r>   -2.3551    1.0000 </r>
       <r>   -2.2502    1.0000 </r>
       <r>   -2.2502    1.0000 </r>
       <r>   -1.9149    1.0000 </r>
       <r>   -1.9149    1.0000 </r>
       <r>   -1.4913    1.0000 </r>
       <r>   -1.4913    1.0000 </r>
       <r>   -1.3234    1.0000 </r>
       <r>   -1.3234    1.0000 </r>
       <r>   -1.1660    1.0000 </r>
       <r>   -1.1660    1.0000 </r>
       <r>    6.4417    0.0000 </r>
       <r>    6.4417    0.0000 </r>
       <r>    7.5537    0.0000 </r>
       <r>    7.5549    0.0000 </r>
       <r>    8.2971    0.0000 </r>
       <r>    8.3318    0.0000 </r>
       <r>    8.4104    0.0000 </r>
       <r>    8.5363    0.0000 </r>
      </set>
      <set comment="kpoint 10">
       <r>  -21.6633    1.0000 </r>
       <r>  -21.6633    1.0000 </r>
       <r>  -21.6633    1.0000 </r>
       <r>  -21.6633    1.0000 </r>
       <r>  -21.6531    1.0000 </r>
       <r>  -21.6531    1.0000 </r>
       <r>  -21.6531    1.0000 </r>
       <r>  -21.6531    1.0000 </r>
       <r>  -21.6468    1.0000 </r>
       <r>  -21.6468    1.0000 </r>
       <r>  -21.6468    1.0000 </r>
       <r>  -21.6468    1.0000 </r>
       <r>  -13.2203    1.0000 </r>
       <r>  -13.2203    1.0000 </r>
       <r>  -13.2203    1.0000 </r>
       <r>  -13.2203    1.0000 </r>
       <r>   -2.3658    1.0000 </r>
       <r>   -2.3658    1.0000 </r>
       <r>   -2.3658    1.0000 </r>
       <r>   -2.3658    1.0000 </r>
       <r>   -1.7121    1.0000 </r>
       <r>   -1.7121    1.0000 </r>
       <r>   -1.7121    1.0000 </r>
       <r>   -1.7121    1.0000 </r>
       <r>   -1.1950    1.0000 </r>
       <r>   -1.1950    1.0000 </r>
       <r>   -1.1950    1.0000 </r>
       <r>   -1.1950    1.0000 </r>
       <r>    6.9805    0.0000 </r>
       <r>    6.9805    0.0000 </r>
       <r>    6.9805    0.0000 </r>
       <r>    6.9806    0.0000 </r>
       <r>    8.5223    0.0000 </r>
       <r>    8.5241    0.0000 </r>
       <r>    8.5347    0.0000 </r>
       <r>    8.8302    0.0000 </r>
      </set>
      <set comment="kpoint 11">
       <r>  -21.6624    1.0000 </r>
       <r>  -21.6624    1.0000 </r>
       <r>  -21.6624    1.0000 </r>
       <r>  -21.6539    1.0000 </r>
       <r>  -21.6539    1.0000 </r>
       <r>  -21.6539    1.0000 </r>
       <r>  -21.6516    1.0000 </r>
       <r>  -21.6509    1.0000 </r>
       <r>  -21.6509    1.0000 </r>
       <r>  -21.6509    1.0000 </r>
       <r>  -21.6453    1.0000 </r>
       <r>  -21.6453    1.0000 </r>
       <r>  -13.4452    1.0000 </r>
       <r>  -13.1687    1.0000 </r>
       <r>  -13.1687    1.0000 </r>
       <r>  -13.1687    1.0000 </r>
       <r>   -2.4504    1.0000 </r>
       <r>   -2.4504    1.0000 </r>
       <r>   -2.4504    1.0000 </r>
       <r>   -1.7063    1.0000 </r>
       <r>   -1.7063    1.0000 </r>
       <r>   -1.7063    1.0000 </r>
       <r>   -1.5330    1.0000 </r>
       <r>   -1.4442    1.0000 </r>
       <r>   -1.4442    1.0000 </r>
       <r>   -1.4442    1.0000 </r>
       <r>   -1.0053    1.0000 </r>
       <r>   -1.0053    1.0000 </r>
       <r>    4.7031    0.0000 </r>
       <r>    6.8536    0.0000 </r>
       <r>    6.8538    0.0000 </r>
       <r>    6.8539    0.0000 </r>
       <r>    7.5348    0.0000 </r>
       <r>    7.5349    0.0000 </r>
       <r>    7.5351    0.0000 </r>
       <r>    9.2551    0.0000 </r>
      </set>
      <set comment="kpoint 12">
       <r>  -21.6628    1.0000 </r>
       <r>  -21.6628    1.0000 </r>
       <r>  -21.6623    1.0000 </r>
       <r>  -21.6561    1.0000 </r>
       <r>  -21.6549    1.0000 </r>
       <r>  -21.6549    1.0000 </r>
       <r>  -21.6508    1.0000 </r>
       <r>  -21.6505    1.0000 </r>
       <r>  -21.6505    1.0000 </r>
       <r>  -21.6497    1.0000 </r>
       <r>  -21.6465    1.0000 </r>
       <r>  -21.6459    1.0000 </r>
       <r>  -13.3812    1.0000 </r>
       <r>  -13.2212    1.0000 </r>
       <r>  -13.1607    1.0000 </r>
       <r>  -13.1607    1.0000 </r>
       <r>   -2.4032    1.0000 </r>
       <r>   -2.4032    1.0000 </r>
       <r>   -2.3833    1.0000 </r>
       <r>   -1.8820    1.0000 </r>
       <r>   -1.8486    1.0000 </r>
       <r>   -1.8486    1.0000 </r>
       <r>   -1.5043    1.0000 </r>
       <r>   -1.4401    1.0000 </r>
       <r>   -1.4401    1.0000 </r>
       <r>   -1.3578    1.0000 </r>
       <r>   -1.1048    1.0000 </r>
       <r>   -1.0824    1.0000 </r>
       <r>    5.3084    0.0000 </r>
       <r>    6.7303    0.0000 </r>
       <r>    7.2624    0.0000 </r>
       <r>    7.2631    0.0000 </r>
       <r>    7.8316    0.0000 </r>
       <r>    8.0070    0.0000 </r>
       <r>    8.0230    0.0000 </r>
       <r>    8.8437    0.0000 </r>
      </set>
      <set comment="kpoint 13">
       <r>  -21.6631    1.0000 </r>
       <r>  -21.6631    1.0000 </r>
       <r>  -21.6602    1.0000 </r>
       <r>  -21.6602    1.0000 </r>
       <r>  -21.6550    1.0000 </r>
       <r>  -21.6550    1.0000 </r>
       <r>  -21.6505    1.0000 </r>
       <r>  -21.6505    1.0000 </r>
       <r>  -21.6481    1.0000 </r>
       <r>  -21.6481    1.0000 </r>
       <r>  -21.6479    1.0000 </r>
       <r>  -21.6479    1.0000 </r>
       <r>  -13.2983    1.0000 </r>
       <r>  -13.2983    1.0000 </r>
       <r>  -13.1568    1.0000 </r>
       <r>  -13.1568    1.0000 </r>
       <r>   -2.3797    1.0000 </r>
       <r>   -2.3797    1.0000 </r>
       <r>   -2.1922    1.0000 </r>
       <r>   -2.1922    1.0000 </r>
       <r>   -1.9013    1.0000 </r>
       <r>   -1.9013    1.0000 </r>
       <r>   -1.4563    1.0000 </r>
       <r>   -1.4563    1.0000 </r>
       <r>   -1.2719    1.0000 </r>
       <r>   -1.2719    1.0000 </r>
       <r>   -1.2345    1.0000 </r>
       <r>   -1.2345    1.0000 </r>
       <r>    6.0959    0.0000 </r>
       <r>    6.0959    0.0000 </r>
       <r>    7.7237    0.0000 </r>
       <r>    7.7293    0.0000 </r>
       <r>    8.0226    0.0000 </r>
       <r>    8.1504    0.0000 </r>
       <r>    8.2634    0.0000 </r>
       <r>    8.6049    0.0000 </r>
      </set>
      <set comment="kpoint 14">
       <r>  -21.6648    1.0000 </r>
[...]
        <r>  0.0000  0.1071  0.1600  0.0166  0.0000  0.0000  0.0000  0.0000  0.0000 </r>
        <r>  0.0000  0.0837  0.0110  0.0193  0.0000  0.0000  0.0000  0.0000  0.0000 </r>
        <r>  0.0000  0.0000  0.0000  0.0000  0.0000  0.0000  0.0000  0.0000  0.0000 </r>
        <r>  0.0000  0.0000  0.0000  0.0000  0.0000  0.0000  0.0000  0.0000  0.0000 </r>
        <r>  0.0000  0.0000  0.0000  0.0000  0.0000  0.0000  0.0000  0.0000  0.0000 </r>
        <r>  0.0000  0.0000  0.0000  0.0000  0.0000  0.0000  0.0000  0.0000  0.0000 </r>
       </set>
       <set comment="band 13">
        <r>  0.0000  0.0013  0.0003  0.0001  0.0000  0.0000  0.0000  0.0000  0.0000 </r>
        <r>  0.0000  0.0003  0.0013  0.0002  0.0000  0.0000  0.0000  0.0000  0.0000 </r>
        <r>  0.0000  0.0002  0.0001  0.0003  0.0000  0.0000  0.0000  0.0000  0.0000 </r>
        <r>  0.0000  0.0001  0.0002  0.0013  0.0000  0.0000  0.0000  0.0000  0.0000 </r>
        <r>  0.0472  0.0000  0.0000  0.0000  0.0000  0.0000  0.0000  0.0000  0.0000 </r>
        <r>  0.0822  0.0000  0.0000  0.0000  0.0000  0.0000  0.0000  0.0000  0.0000 </r>
        <r>  0.1324  0.0000  0.0000  0.0000  0.0000  0.0000  0.0000  0.0000  0.0000 </r>
        <r>  0.5240  0.0000  0.0000  0.0000  0.0000  0.0000  0.0000  0.0000  0.0000 </r>
       </set>
       <set comment="band 14">
        <r>  0.0000  0.0003  0.0007  0.0007  0.0000  0.0000  0.0000  0.0000  0.0000 </r>
        <r>  0.0000  0.0007  0.0003  0.0002  0.0000  0.0000  0.0000  0.0000  0.0000 </r>
        <r>  0.0000  0.0002  0.0007  0.0007  0.0000  0.0000  0.0000  0.0000  0.0000 </r>
        <r>  0.0000  0.0007  0.0002  0.0003  0.0000  0.0000  0.0000  0.0000  0.0000 </r>
        <r>  0.2890  0.0000  0.0000  0.0000  0.0000  0.0000  0.0000  0.0000  0.0000 </r>
        <r>  0.0734  0.0000  0.0000  0.0000  0.0000  0.0000  0.0000  0.0000  0.0000 </r>
        <r>  0.2920  0.0000  0.0000  0.0000  0.0000  0.0000  0.0000  0.0000  0.0000 </r>
        <r>  0.1314  0.0000  0.0000  0.0000  0.0000  0.0000  0.0000  0.0000  0.0000 </r>
       </set>
       <set comment="band 15">
        <r>  0.0000  0.0001  0.0000  0.0003  0.0000  0.0000  0.0000  0.0000  0.0000 </r>
        <r>  0.0000  0.0000  0.0001  0.0014  0.0000  0.0000  0.0000  0.0000  0.0000 </r>
        <r>  0.0000  0.0014  0.0003  0.0000  0.0000  0.0000  0.0000  0.0000  0.0000 </r>
        <r>  0.0000  0.0003  0.0014  0.0001  0.0000  0.0000  0.0000  0.0000  0.0000 </r>
        <r>  0.1432  0.0000  0.0000  0.0000  0.0000  0.0000  0.0000  0.0000  0.0000 </r>
        <r>  0.5764  0.0000  0.0000  0.0000  0.0000  0.0000  0.0000  0.0000  0.0000 </r>
        <r>  0.0114  0.0000  0.0000  0.0000  0.0000  0.0000  0.0000  0.0000  0.0000 </r>
        <r>  0.0548  0.0000  0.0000  0.0000  0.0000  0.0000  0.0000  0.0000  0.0000 </r>
       </set>
       <set comment="band 16">
        <r>  0.0000  0.0002  0.0009  0.0007  0.0000  0.0000  0.0000  0.0000  0.0000 </r>
        <r>  0.0000  0.0009  0.0002  0.0001  0.0000  0.0000  0.0000  0.0000  0.0000 </r>
        <r>  0.0000  0.0001  0.0007  0.0009  0.0000  0.0000  0.0000  0.0000  0.0000 </r>
        <r>  0.0000  0.0007  0.0001  0.0002  0.0000  0.0000  0.0000  0.0000  0.0000 </r>
        <r>  0.3065  0.0000  0.0000  0.0000  0.0000  0.0000  0.0000  0.0000  0.0000 </r>
        <r>  0.0537  0.0000  0.0000  0.0000  0.0000  0.0000  0.0000  0.0000  0.0000 </r>
        <r>  0.3501  0.0000  0.0000  0.0000  0.0000  0.0000  0.0000  0.0000  0.0000 </r>
        <r>  0.0756  0.0000  0.0000  0.0000  0.0000  0.0000  0.0000  0.0000  0.0000 </r>
       </set>
       <set comment="band 17">
        <r>  0.0144  0.0000  0.0000  0.0000  0.0000  0.0000  0.0000  0.0000  0.0000 </r>
        <r>  0.0137  0.0000  0.0000  0.0000  0.0000  0.0000  0.0000  0.0000  0.0000 </r>
        <r>  0.0008  0.0000  0.0000  0.0000  0.0000  0.0000  0.0000  0.0000  0.0000 </r>
        <r>  0.0026  0.0000  0.0000  0.0000  0.0000  0.0000  0.0000  0.0000  0.0000 </r>
        <r>  0.0000  0.0133  0.0043  0.0737  0.0000  0.0000  0.0000  0.0000  0.0000 </r>
        <r>  0.0000  0.0043  0.0133  0.0702  0.0000  0.0000  0.0000  0.0000  0.0000 </r>
        <r>  0.0000  0.0702  0.0737  0.0043  0.0000  0.0000  0.0000  0.0000  0.0000 </r>
        <r>  0.0000  0.0737  0.0702  0.0133  0.0000  0.0000  0.0000  0.0000  0.0000 </r>
       </set>
       <set comment="band 18">
        <r>  0.0056  0.0000  0.0000  0.0000  0.0000  0.0000  0.0000  0.0000  0.0000 </r>
        <r>  0.0072  0.0000  0.0000  0.0000  0.0000  0.0000  0.0000  0.0000  0.0000 </r>
        <r>  0.0184  0.0000  0.0000  0.0000  0.0000  0.0000  0.0000  0.0000  0.0000 </r>
        <r>  0.0004  0.0000  0.0000  0.0000  0.0000  0.0000  0.0000  0.0000  0.0000 </r>
        <r>  0.0000  0.0019  0.0942  0.0286  0.0000  0.0000  0.0000  0.0000  0.0000 </r>
        <r>  0.0000  0.0942  0.0019  0.0368  0.0000  0.0000  0.0000  0.0000  0.0000 </r>
        <r>  0.0000  0.0368  0.0286  0.0942  0.0000  0.0000  0.0000  0.0000  0.0000 </r>
        <r>  0.0000  0.0286  0.0368  0.0019  0.0000  0.0000  0.0000  0.0000  0.0000 </r>
       </set>
       <set comment="band 19">
        <r>  0.0111  0.0000  0.0000  0.0000  0.0000  0.0000  0.0000  0.0000  0.0000 </r>
        <r>  0.0067  0.0000  0.0000  0.0000  0.0000  0.0000  0.0000  0.0000  0.0000 </r>
        <r>  0.0109  0.0000  0.0000  0.0000  0.0000  0.0000  0.0000  0.0000  0.0000 </r>
        <r>  0.0028  0.0000  0.0000  0.0000  0.0000  0.0000  0.0000  0.0000  0.0000 </r>
        <r>  0.0000  0.0145  0.0557  0.0569  0.0000  0.0000  0.0000  0.0000  0.0000 </r>
        <r>  0.0000  0.0557  0.0145  0.0343  0.0000  0.0000  0.0000  0.0000  0.0000 </r>
        <r>  0.0000  0.0343  0.0569  0.0557  0.0000  0.0000  0.0000  0.0000  0.0000 </r>
        <r>  0.0000  0.0569  0.0343  0.0145  0.0000  0.0000  0.0000  0.0000  0.0000 </r>
       </set>
       <set comment="band 20">
        <r>  0.0004  0.0000  0.0000  0.0000  0.0000  0.0000  0.0000  0.0000  0.0000 </r>
        <r>  0.0040  0.0000  0.0000  0.0000  0.0000  0.0000  0.0000  0.0000  0.0000 </r>
        <r>  0.0014  0.0000  0.0000  0.0000  0.0000  0.0000  0.0000  0.0000  0.0000 </r>
        <r>  0.0258  0.0000  0.0000  0.0000  0.0000  0.0000  0.0000  0.0000  0.0000 </r>
        <r>  0.0000  0.1317  0.0073  0.0022  0.0000  0.0000  0.0000  0.0000  0.0000 </r>
        <r>  0.0000  0.0073  0.1317  0.0202  0.0000  0.0000  0.0000  0.0000  0.0000 </r>
        <r>  0.0000  0.0202  0.0022  0.0073  0.0000  0.0000  0.0000  0.0000  0.0000 </r>
        <r>  0.0000  0.0022  0.0202  0.1317  0.0000  0.0000  0.0000  0.0000  0.0000 </r>
       </set>
       <set comment="band 21">
        <r>  0.0000  0.0000  0.0000  0.0000  0.0000  0.0000  0.0000  0.0000  0.0000 </r>
        <r>  0.0000  0.0000  0.0000  0.0000  0.0000  0.0000  0.0000  0.0000  0.0000 </r>
        <r>  0.0000  0.0000  0.0000  0.0000  0.0000  0.0000  0.0000  0.0000  0.0000 </r>
        <r>  0.0000  0.0000  0.0000  0.0000  0.0000  0.0000  0.0000  0.0000  0.0000 </r>
        <r>  0.0000  0.0507  0.0093  0.0561  0.0000  0.0000  0.0000  0.0000  0.0000 </r>
        <r>  0.0000  0.0423  0.1092  0.0211  0.0000  0.0000  0.0000  0.0000  0.0000 </r>
        <r>  0.0000  0.0145  0.0559  0.0162  0.0000  0.0000  0.0000  0.0000  0.0000 </r>
        <r>  0.0000  0.2238  0.0220  0.0342  0.0000  0.0000  0.0000  0.0000  0.0000 </r>
       </set>
       <set comment="band 22">
        <r>  0.0000  0.0000  0.0000  0.0000  0.0000  0.0000  0.0000  0.0000  0.0000 </r>
        <r>  0.0000  0.0000  0.0000  0.0000  0.0000  0.0000  0.0000  0.0000  0.0000 </r>
        <r>  0.0000  0.0000  0.0000  0.0000  0.0000  0.0000  0.0000  0.0000  0.0000 </r>
        <r>  0.0000  0.0000  0.0000  0.0000  0.0000  0.0000  0.0000  0.0000  0.0000 </r>
        <r>  0.0000  0.0010  0.1030  0.0486  0.0000  0.0000  0.0000  0.0000  0.0000 </r>
        <r>  0.0000  0.0044  0.0196  0.1443  0.0000  0.0000  0.0000  0.0000  0.0000 </r>
        <r>  0.0000  0.0060  0.0030  0.0834  0.0000  0.0000  0.0000  0.0000  0.0000 </r>
        <r>  0.0000  0.0568  0.1580  0.0273  0.0000  0.0000  0.0000  0.0000  0.0000 </r>
       </set>
       <set comment="band 23">
        <r>  0.0000  0.0000  0.0000  0.0000  0.0000  0.0000  0.0000  0.0000  0.0000 </r>
        <r>  0.0000  0.0000  0.0000  0.0000  0.0000  0.0000  0.0000  0.0000  0.0000 </r>
        <r>  0.0000  0.0000  0.0000  0.0000  0.0000  0.0000  0.0000  0.0000  0.0000 </r>
        <r>  0.0000  0.0000  0.0000  0.0000  0.0000  0.0000  0.0000  0.0000  0.0000 </r>
        <r>  0.0000  0.0604  0.0554  0.0032  0.0000  0.0000  0.0000  0.0000  0.0000 </r>
        <r>  0.0000  0.0793  0.0348  0.0604  0.0000  0.0000  0.0000  0.0000  0.0000 </r>
        <r>  0.0000  0.2109  0.0164  0.0296  0.0000  0.0000  0.0000  0.0000  0.0000 </r>
        <r>  0.0000  0.0097  0.0766  0.0186  0.0000  0.0000  0.0000  0.0000  0.0000 </r>
       </set>
       <set comment="band 24">
        <r>  0.0000  0.0000  0.0000  0.0000  0.0000  0.0000  0.0000  0.0000  0.0000 </r>
        <r>  0.0000  0.0000  0.0000  0.0000  0.0000  0.0000  0.0000  0.0000  0.0000 </r>
        <r>  0.0000  0.0000  0.0000  0.0000  0.0000  0.0000  0.0000  0.0000  0.0000 </r>
        <r>  0.0000  0.0000  0.0000  0.0000  0.0000  0.0000  0.0000  0.0000  0.0000 </r>
        <r>  0.0000  0.1896  0.0025  0.0149  0.0000  0.0000  0.0000  0.0000  0.0000 </r>
        <r>  0.0000  0.0126  0.0105  0.0184  0.0000  0.0000  0.0000  0.0000  0.0000 </r>
        <r>  0.0000  0.0545  0.0236  0.0200  0.0000  0.0000  0.0000  0.0000  0.0000 </r>
        <r>  0.0000  0.0077  0.0555  0.2456  0.0000  0.0000  0.0000  0.0000  0.0000 </r>
       </set>
       <set comment="band 25">
        <r>  0.0000  0.0000  0.0000  0.0000  0.0000  0.0000  0.0000  0.0000  0.0000 </r>
        <r>  0.0000  0.0000  0.0000  0.0000  0.0000  0.0000  0.0000  0.0000  0.0000 </r>
        <r>  0.0000  0.0000  0.0000  0.0000  0.0000  0.0000  0.0000  0.0000  0.0000 </r>
        <r>  0.0000  0.0000  0.0000  0.0000  0.0000  0.0000  0.0000  0.0000  0.0000 </r>
        <r>  0.0000  0.0506  0.1517  0.1170  0.0000  0.0000  0.0000  0.0000  0.0000 </r>
        <r>  0.0000  0.0359  0.0770  0.0338  0.0000  0.0000  0.0000  0.0000  0.0000 </r>
        <r>  0.0000  0.0221  0.0366  0.0649  0.0000  0.0000  0.0000  0.0000  0.0000 </r>
        <r>  0.0000  0.0229  0.0402  0.0028  0.0000  0.0000  0.0000  0.0000  0.0000 </r>
       </set>
       <set comment="band 26">
        <r>  0.0000  0.0000  0.0000  0.0000  0.0000  0.0000  0.0000  0.0000  0.0000 </r>
        <r>  0.0000  0.0000  0.0000  0.0000  0.0000  0.0000  0.0000  0.0000  0.0000 </r>
        <r>  0.0000  0.0000  0.0000  0.0000  0.0000  0.0000  0.0000  0.0000  0.0000 </r>
        <r>  0.0000  0.0000  0.0000  0.0000  0.0000  0.0000  0.0000  0.0000  0.0000 </r>
        <r>  0.0000  0.0056  0.0062  0.1077  0.0000  0.0000  0.0000  0.0000  0.0000 </r>
        <r>  0.0000  0.0609  0.0474  0.0144  0.0000  0.0000  0.0000  0.0000  0.0000 </r>
        <r>  0.0000  0.0101  0.2149  0.0884  0.0000  0.0000  0.0000  0.0000  0.0000 </r>
        <r>  0.0000  0.0673  0.0100  0.0223  0.0000  0.0000  0.0000  0.0000  0.0000 </r>
       </set>
       <set comment="band 27">
        <r>  0.0000  0.0000  0.0000  0.0000  0.0000  0.0000  0.0000  0.0000  0.0000 </r>
        <r>  0.0000  0.0000  0.0000  0.0000  0.0000  0.0000  0.0000  0.0000  0.0000 </r>
        <r>  0.0000  0.0000  0.0000  0.0000  0.0000  0.0000  0.0000  0.0000  0.0000 </r>
        <r>  0.0000  0.0000  0.0000  0.0000  0.0000  0.0000  0.0000  0.0000  0.0000 </r>
        <r>  0.0000  0.0411  0.0267  0.0602  0.0000  0.0000  0.0000  0.0000  0.0000 </r>
        <r>  0.0000  0.1968  0.0195  0.0198  0.0000  0.0000  0.0000  0.0000  0.0000 </r>
        <r>  0.0000  0.0247  0.0777  0.0868  0.0000  0.0000  0.0000  0.0000  0.0000 </r>
        <r>  0.0000  0.0379  0.0005  0.0635  0.0000  0.0000  0.0000  0.0000  0.0000 </r>
       </set>
       <set comment="band 28">
        <r>  0.0000  0.0000  0.0000  0.0000  0.0000  0.0000  0.0000  0.0000  0.0000 </r>
        <r>  0.0000  0.0000  0.0000  0.0000  0.0000  0.0000  0.0000  0.0000  0.0000 </r>
        <r>  0.0000  0.0000  0.0000  0.0000  0.0000  0.0000  0.0000  0.0000  0.0000 </r>
        <r>  0.0000  0.0000  0.0000  0.0000  0.0000  0.0000  0.0000  0.0000  0.0000 </r>
        <r>  0.0000  0.0378  0.0820  0.0293  0.0000  0.0000  0.0000  0.0000  0.0000 </r>
        <r>  0.0000  0.0049  0.1189  0.1247  0.0000  0.0000  0.0000  0.0000  0.0000 </r>
        <r>  0.0000  0.0941  0.0086  0.0476  0.0000  0.0000  0.0000  0.0000  0.0000 </r>
        <r>  0.0000  0.0107  0.0741  0.0226  0.0000  0.0000  0.0000  0.0000  0.0000 </r>
       </set>
       <set comment="band 29">
        <r>  0.0000  0.0127  0.0014  0.0085  0.0000  0.0000  0.0000  0.0000  0.0000 </r>
        <r>  0.0000  0.0014  0.0127  0.0012  0.0000  0.0000  0.0000  0.0000  0.0000 </r>
        <r>  0.0000  0.0012  0.0085  0.0014  0.0000  0.0000  0.0000  0.0000  0.0000 </r>
        <r>  0.0000  0.0085  0.0012  0.0127  0.0000  0.0000  0.0000  0.0000  0.0000 </r>
        <r>  0.0220  0.0000  0.0000  0.0000  0.0000  0.0000  0.0000  0.0000  0.0000 </r>
        <r>  0.0032  0.0000  0.0000  0.0000  0.0000  0.0000  0.0000  0.0000  0.0000 </r>
        <r>  0.0036  0.0000  0.0000  0.0000  0.0000  0.0000  0.0000  0.0000  0.0000 </r>
        <r>  0.0331  0.0000  0.0000  0.0000  0.0000  0.0000  0.0000  0.0000  0.0000 </r>
       </set>
       <set comment="band 30">
        <r>  0.0000  0.0002  0.0093  0.0013  0.0000  0.0000  0.0000  0.0000  0.0000 </r>
        <r>  0.0000  0.0092  0.0002  0.0130  0.0000  0.0000  0.0000  0.0000  0.0000 </r>
        <r>  0.0000  0.0130  0.0013  0.0092  0.0000  0.0000  0.0000  0.0000  0.0000 </r>
        <r>  0.0000  0.0013  0.0130  0.0002  0.0000  0.0000  0.0000  0.0000  0.0000 </r>
        <r>  0.0034  0.0000  0.0000  0.0000  0.0000  0.0000  0.0000  0.0000  0.0000 </r>
        <r>  0.0339  0.0000  0.0000  0.0000  0.0000  0.0000  0.0000  0.0000  0.0000 </r>
        <r>  0.0241  0.0000  0.0000  0.0000  0.0000  0.0000  0.0000  0.0000  0.0000 </r>
        <r>  0.0006  0.0000  0.0000  0.0000  0.0000  0.0000  0.0000  0.0000  0.0000 </r>
       </set>
       <set comment="band 31">
        <r>  0.0000  0.0075  0.0048  0.0099  0.0000  0.0000  0.0000  0.0000  0.0000 </r>
        <r>  0.0000  0.0048  0.0075  0.0015  0.0000  0.0000  0.0000  0.0000  0.0000 </r>
        <r>  0.0000  0.0015  0.0100  0.0048  0.0000  0.0000  0.0000  0.0000  0.0000 </r>
        <r>  0.0000  0.0100  0.0015  0.0075  0.0000  0.0000  0.0000  0.0000  0.0000 </r>
        <r>  0.0259  0.0000  0.0000  0.0000  0.0000  0.0000  0.0000  0.0000  0.0000 </r>
        <r>  0.0040  0.0000  0.0000  0.0000  0.0000  0.0000  0.0000  0.0000  0.0000 </r>
        <r>  0.0125  0.0000  0.0000  0.0000  0.0000  0.0000  0.0000  0.0000  0.0000 </r>
        <r>  0.0196  0.0000  0.0000  0.0000  0.0000  0.0000  0.0000  0.0000  0.0000 </r>
       </set>
       <set comment="band 32">
        <r>  0.0000  0.0033  0.0084  0.0041  0.0000  0.0000  0.0000  0.0000  0.0000 </r>
        <r>  0.0000  0.0084  0.0033  0.0080  0.0000  0.0000  0.0000  0.0000  0.0000 </r>
        <r>  0.0000  0.0080  0.0041  0.0084  0.0000  0.0000  0.0000  0.0000  0.0000 </r>
        <r>  0.0000  0.0041  0.0080  0.0033  0.0000  0.0000  0.0000  0.0000  0.0000 </r>
        <r>  0.0107  0.0000  0.0000  0.0000  0.0000  0.0000  0.0000  0.0000  0.0000 </r>
        <r>  0.0209  0.0000  0.0000  0.0000  0.0000  0.0000  0.0000  0.0000  0.0000 </r>
        <r>  0.0217  0.0000  0.0000  0.0000  0.0000  0.0000  0.0000  0.0000  0.0000 </r>
        <r>  0.0086  0.0000  0.0000  0.0000  0.0000  0.0000  0.0000  0.0000  0.0000 </r>
       </set>
       <set comment="band 33">
        <r>  0.0913  0.0000  0.0000  0.0000  0.0000  0.0000  0.0000  0.0000  0.0000 </r>
        <r>  0.0590  0.0000  0.0000  0.0000  0.0000  0.0000  0.0000  0.0000  0.0000 </r>
        <r>  0.0011  0.0000  0.0000  0.0000  0.0000  0.0000  0.0000  0.0000  0.0000 </r>
        <r>  0.0224  0.0000  0.0000  0.0000  0.0000  0.0000  0.0000  0.0000  0.0000 </r>
        <r>  0.0000  0.0141  0.0007  0.0577  0.0000  0.0000  0.0000  0.0000  0.0000 </r>
        <r>  0.0000  0.0007  0.0141  0.0373  0.0000  0.0000  0.0000  0.0000  0.0000 </r>
        <r>  0.0000  0.0373  0.0577  0.0007  0.0000  0.0000  0.0000  0.0000  0.0000 </r>
        <r>  0.0000  0.0577  0.0373  0.0141  0.0000  0.0000  0.0000  0.0000  0.0000 </r>
       </set>
       <set comment="band 34">
        <r>  0.0140  0.0001  0.0000  0.0003  0.0000  0.0000  0.0000  0.0000  0.0000 </r>
        <r>  0.0239  0.0001  0.0000  0.0001  0.0000  0.0000  0.0000  0.0000  0.0000 </r>
        <r>  0.0266  0.0001  0.0001  0.0001  0.0000  0.0000  0.0000  0.0000  0.0000 </r>
        <r>  0.1075  0.0001  0.0001  0.0001  0.0000  0.0000  0.0000  0.0000  0.0000 </r>
        <r>  0.0000  0.0680  0.0168  0.0089  0.0000  0.0000  0.0000  0.0000  0.0000 </r>
        <r>  0.0000  0.0168  0.0680  0.0151  0.0000  0.0000  0.0000  0.0000  0.0000 </r>
        <r>  0.0000  0.0151  0.0089  0.0168  0.0000  0.0000  0.0000  0.0000  0.0000 </r>
        <r>  0.0000  0.0089  0.0151  0.0680  0.0000  0.0000  0.0000  0.0000  0.0000 </r>
       </set>
       <set comment="band 35">
        <r>  0.0226  0.0004  0.0001  0.0001  0.0000  0.0000  0.0000  0.0000  0.0000 </r>
        <r>  0.0371  0.0002  0.0002  0.0000  0.0000  0.0000  0.0000  0.0000  0.0000 </r>
        <r>  0.1083  0.0000  0.0001  0.0002  0.0000  0.0000  0.0000  0.0000  0.0000 </r>
        <r>  0.0025  0.0004  0.0001  0.0003  0.0000  0.0000  0.0000  0.0000  0.0000 </r>
        <r>  0.0000  0.0016  0.0686  0.0143  0.0000  0.0000  0.0000  0.0000  0.0000 </r>
        <r>  0.0000  0.0685  0.0016  0.0235  0.0000  0.0000  0.0000  0.0000  0.0000 </r>
        <r>  0.0000  0.0235  0.0143  0.0685  0.0000  0.0000  0.0000  0.0000  0.0000 </r>
        <r>  0.0000  0.0143  0.0235  0.0016  0.0000  0.0000  0.0000  0.0000  0.0000 </r>
       </set>
       <set comment="band 36">
        <r>  0.0438  0.0003  0.0001  0.0000  0.0000  0.0000  0.0000  0.0000  0.0000 </r>
        <r>  0.0511  0.0001  0.0002  0.0000  0.0000  0.0000  0.0000  0.0000  0.0000 </r>
        <r>  0.0342  0.0013  0.0002  0.0000  0.0000  0.0000  0.0000  0.0000  0.0000 </r>
        <r>  0.0389  0.0001  0.0010  0.0005  0.0000  0.0000  0.0000  0.0000  0.0000 </r>
        <r>  0.0000  0.0246  0.0217  0.0277  0.0000  0.0000  0.0000  0.0000  0.0000 </r>
        <r>  0.0000  0.0217  0.0246  0.0323  0.0000  0.0000  0.0000  0.0000  0.0000 </r>
        <r>  0.0000  0.0323  0.0277  0.0217  0.0000  0.0000  0.0000  0.0000  0.0000 </r>
        <r>  0.0000  0.0277  0.0323  0.0246  0.0000  0.0000  0.0000  0.0000  0.0000 </r>
       </set>
      </set>
     </set>
    </set>
   </array>
  </projected>
 </calculation>
 <structure name="finalpos" >
  <crystal>
   <varray name="basis" >
    <v>       5.69169400       0.00000000       0.00000000 </v>
    <v>       0.00000000       5.69169400       0.00000000 </v>
    <v>       0.00000000       0.00000000       5.69169400 </v>
   </varray>
   <i name="volume">    184.38459333 </i>
   <varray name="rec_basis" >
    <v>       0.17569462       0.00000000       0.00000000 </v>
    <v>       0.00000000       0.17569462       0.00000000 </v>
    <v>       0.00000000       0.00000000       0.17569462 </v>
   </varray>
  </crystal>
  <varray name="positions" >
   <v>       0.00000000       0.00000000       0.00000000 </v>
   <v>       0.00000000       0.50000000       0.50000000 </v>
   <v>       0.50000000       0.00000000       0.50000000 </v>
   <v>       0.50000000       0.50000000       0.00000000 </v>
   <v>       0.50000000       0.00000000       0.00000000 </v>
   <v>       0.50000000       0.50000000       0.50000000 </v>
   <v>       0.00000000       0.00000000       0.50000000 </v>
   <v>       0.00000000       0.50000000       0.00000000 </v>
  </varray>
 </structure>
</modeling>
