<?xml version="1.0" encoding="ISO-8859-1"?>
<modeling>
 <generator>
  <i name="program" type="string">vasp </i>
  <i name="version" type="string">6.1.2  </i>
  <i name="subversion" type="string">22Jul20 (build Dec 10 2020 10:33:42) complex                          parallel </i>
  <i name="platform" type="string">LinuxIFC </i>
  <i name="date" type="string">2022 08 31 </i>
  <i name="time" type="string">16:09:51 </i>
 </generator>
 <incar>
  <i type="string" name="PREC"> Accurate</i>
  <i type="string" name="ALGO"> Fast</i>
  <i type="int" name="ISPIN">     2</i>
  <i type="int" name="NELM">   200</i>
  <i name="EDIFF">      0.00001000</i>
  <i type="int" name="NSW">     0</i>
  <i name="ENCUT">    680.00000000</i>
  <i name="ENAUG">   1360.00000000</i>
  <v name="MAGMOM">      0.00000000      0.00000000</v>
  <i type="logical" name="LREAL"> F  </i>
  <i type="int" name="ISMEAR">    -5</i>
  <i name="SIGMA">      0.20000000</i>
  <i name="KSPACING">      0.22000000</i>
  <i type="logical" name="LWAVE"> F  </i>
  <i type="logical" name="LCHARG"> T  </i>
  <i type="logical" name="LVTOT"> T  </i>
  <i type="logical" name="LELF"> F  </i>
  <i type="logical" name="LASPH"> T  </i>
  <i type="int" name="NPAR">     4</i>
  <i type="logical" name="LAECHG"> T  </i>
  <i type="string" name="ALGO"> Fast</i>
  <i type="int" name="NELM">   200</i>
  <i type="string" name="GGA"> Ps</i>
  <i name="EDIFF">      0.00001000</i>
  <i type="logical" name="LASPH"> T  </i>
  <i type="logical" name="LMIXTAU"> T  </i>
  <i type="int" name="ISPIN">     2</i>
 </incar>
 <structure name="primitive_cell" >
  <crystal>
   <varray name="basis" >
    <v>       0.00000000       2.71799987       2.71799987 </v>
    <v>       2.71799987       0.00000000       2.71799987 </v>
    <v>       2.71799987       2.71799987       0.00000000 </v>
   </varray>
   <i name="volume">     40.15857470 </i>
   <varray name="rec_basis" >
    <v>      -0.18395880       0.18395880       0.18395880 </v>
    <v>       0.18395880      -0.18395880       0.18395880 </v>
    <v>       0.18395880       0.18395880      -0.18395880 </v>
   </varray>
  </crystal>
  <varray name="positions" >
   <v>       0.00000000       0.00000000       0.00000000 </v>
   <v>       0.25000000       0.25000000       0.25000000 </v>
  </varray>
 </structure>
 <varray name="primitive_index" >
  <v type="int" >        1 </v>
  <v type="int" >        2 </v>
 </varray>
 <kpoints>
  <generation param="Gamma">
   <v type="int" name="divisions">      10       10       10 </v>
   <v name="usershift">      0.00000000       0.00000000       0.00000000 </v>
   <v name="genvec1">      0.10000000      -0.00000000       0.00000000 </v>
   <v name="genvec2">     -0.00000000       0.10000000      -0.00000000 </v>
   <v name="genvec3">      0.00000000       0.00000000       0.10000000 </v>
   <v name="shift">      0.00000000       0.00000000       0.00000000 </v>
  </generation>
  <varray name="kpointlist" >
   <v>       0.00000000       0.00000000       0.00000000 </v>
   <v>       0.10000000       0.00000000       0.00000000 </v>
   <v>       0.20000000      -0.00000000      -0.00000000 </v>
   <v>       0.30000000      -0.00000000       0.00000000 </v>
   <v>       0.40000000      -0.00000000      -0.00000000 </v>
   <v>       0.50000000      -0.00000000       0.00000000 </v>
   <v>       0.10000000       0.10000000       0.00000000 </v>
   <v>       0.20000000       0.10000000       0.00000000 </v>
   <v>       0.30000000       0.10000000      -0.00000000 </v>
   <v>       0.40000000       0.10000000       0.00000000 </v>
   <v>       0.50000000       0.10000000      -0.00000000 </v>
   <v>      -0.40000000       0.10000000      -0.00000000 </v>
   <v>      -0.30000000       0.10000000       0.00000000 </v>
   <v>      -0.20000000       0.10000000      -0.00000000 </v>
   <v>      -0.10000000       0.10000000       0.00000000 </v>
   <v>       0.20000000       0.20000000       0.00000000 </v>
   <v>       0.30000000       0.20000000       0.00000000 </v>
   <v>       0.40000000       0.20000000      -0.00000000 </v>
   <v>       0.50000000       0.20000000       0.00000000 </v>
   <v>      -0.40000000       0.20000000      -0.00000000 </v>
   <v>      -0.30000000       0.20000000      -0.00000000 </v>
   <v>      -0.20000000       0.20000000       0.00000000 </v>
   <v>       0.30000000       0.30000000       0.00000000 </v>
   <v>       0.40000000       0.30000000       0.00000000 </v>
   <v>       0.50000000       0.30000000      -0.00000000 </v>
   <v>      -0.40000000       0.30000000       0.00000000 </v>
   <v>      -0.30000000       0.30000000      -0.00000000 </v>
   <v>       0.40000000       0.40000000       0.00000000 </v>
   <v>       0.50000000       0.40000000       0.00000000 </v>
   <v>      -0.40000000       0.40000000      -0.00000000 </v>
   <v>       0.50000000       0.50000000       0.00000000 </v>
   <v>       0.30000000       0.20000000       0.10000000 </v>
   <v>       0.40000000       0.20000000       0.10000000 </v>
   <v>       0.50000000       0.20000000       0.10000000 </v>
   <v>      -0.40000000       0.20000000       0.10000000 </v>
   <v>       0.40000000       0.30000000       0.10000000 </v>
   <v>       0.50000000       0.30000000       0.10000000 </v>
   <v>      -0.40000000       0.30000000       0.10000000 </v>
   <v>      -0.30000000       0.30000000       0.10000000 </v>
   <v>      -0.20000000       0.30000000       0.10000000 </v>
   <v>       0.50000000       0.40000000       0.10000000 </v>
   <v>      -0.40000000       0.40000000       0.10000000 </v>
   <v>      -0.30000000       0.40000000       0.10000000 </v>
   <v>      -0.40000000       0.50000000       0.10000000 </v>
   <v>      -0.40000000       0.40000000       0.20000000 </v>
   <v>      -0.30000000       0.40000000       0.20000000 </v>
   <v>      -0.30000000       0.50000000       0.20000000 </v>
  </varray>
  <varray name="weights" >
   <v>       0.00100000 </v>
   <v>       0.00800000 </v>
   <v>       0.00800000 </v>
   <v>       0.00800000 </v>
   <v>       0.00800000 </v>
   <v>       0.00400000 </v>
   <v>       0.00600000 </v>
   <v>       0.02400000 </v>
   <v>       0.02400000 </v>
   <v>       0.02400000 </v>
   <v>       0.02400000 </v>
   <v>       0.02400000 </v>
   <v>       0.02400000 </v>
   <v>       0.02400000 </v>
   <v>       0.01200000 </v>
   <v>       0.00600000 </v>
   <v>       0.02400000 </v>
   <v>       0.02400000 </v>
   <v>       0.02400000 </v>
   <v>       0.02400000 </v>
   <v>       0.02400000 </v>
   <v>       0.01200000 </v>
   <v>       0.00600000 </v>
   <v>       0.02400000 </v>
   <v>       0.02400000 </v>
   <v>       0.02400000 </v>
   <v>       0.01200000 </v>
   <v>       0.00600000 </v>
   <v>       0.02400000 </v>
   <v>       0.01200000 </v>
   <v>       0.00300000 </v>
   <v>       0.02400000 </v>
   <v>       0.04800000 </v>
   <v>       0.04800000 </v>
   <v>       0.02400000 </v>
   <v>       0.02400000 </v>
   <v>       0.04800000 </v>
   <v>       0.04800000 </v>
   <v>       0.04800000 </v>
   <v>       0.02400000 </v>
   <v>       0.02400000 </v>
   <v>       0.04800000 </v>
   <v>       0.02400000 </v>
   <v>       0.01200000 </v>
   <v>       0.02400000 </v>
   <v>       0.02400000 </v>
   <v>       0.01200000 </v>
  </varray>
  <varray name="tetrahedronlist"  type="int" >
   <v type="int" >       24        1        2        2        7 </v>
   <v type="int" >       48        2        7        8       15 </v>
   <v type="int" >       48        2        3        8       15 </v>
   <v type="int" >       24        2        2        7       15 </v>
   <v type="int" >       48        3        8        9       14 </v>
   <v type="int" >       48        3        4        9       14 </v>
   <v type="int" >       48        3        8       14       15 </v>
   <v type="int" >       48        4        9       10       13 </v>
   <v type="int" >       48        4        5       10       13 </v>
   <v type="int" >       48        4        9       13       14 </v>
   <v type="int" >       48        5       10       11       12 </v>
   <v type="int" >       48        5        6       11       12 </v>
   <v type="int" >       48        5       10       12       13 </v>
   <v type="int" >       48        6       11       11       12 </v>
   <v type="int" >       24        7        8        8       16 </v>
   <v type="int" >       24        7        8        8       15 </v>
   <v type="int" >       48        8       16       17       32 </v>
   <v type="int" >       48        8        9       17       32 </v>
   <v type="int" >       48        8        9       14       32 </v>
   <v type="int" >       24        8        8       16       32 </v>
   <v type="int" >       24        8        8       15       32 </v>
   <v type="int" >       48        8       14       15       32 </v>
   <v type="int" >       48        9       17       18       33 </v>
   <v type="int" >       48        9       10       18       33 </v>
   <v type="int" >       48        9       10       13       33 </v>
   <v type="int" >       48        9       17       32       33 </v>
   <v type="int" >       48        9       14       32       33 </v>
   <v type="int" >       48        9       13       14       33 </v>
   <v type="int" >       48       10       18       19       34 </v>
   <v type="int" >       48       10       11       19       34 </v>
   <v type="int" >       48       10       11       12       34 </v>
   <v type="int" >       48       10       18       33       34 </v>
   <v type="int" >       48       10       13       33       34 </v>
   <v type="int" >       48       10       12       13       34 </v>
   <v type="int" >       48       11       19       20       35 </v>
   <v type="int" >       48       11       12       20       35 </v>
   <v type="int" >       48       11       11       12       35 </v>
   <v type="int" >       48       11       19       34       35 </v>
   <v type="int" >       48       11       12       34       35 </v>
   <v type="int" >       48       12       20       21       34 </v>
   <v type="int" >       48       12       13       21       34 </v>
   <v type="int" >       48       12       20       34       35 </v>
   <v type="int" >       48       13       21       22       33 </v>
   <v type="int" >       48       13       14       22       33 </v>
   <v type="int" >       48       13       21       33       34 </v>
   <v type="int" >       24       14       14       22       32 </v>
   <v type="int" >       24       14       14       15       32 </v>
   <v type="int" >       48       14       22       32       33 </v>
   <v type="int" >       24       16       17       17       23 </v>
   <v type="int" >       24       16       17       17       32 </v>
   <v type="int" >       48       17       23       24       36 </v>
   <v type="int" >       48       17       18       24       36 </v>
   <v type="int" >       48       17       18       33       36 </v>
   <v type="int" >       24       17       17       23       36 </v>
   <v type="int" >       24       17       17       32       36 </v>
   <v type="int" >       48       17       32       33       36 </v>
   <v type="int" >       48       18       24       25       37 </v>
   <v type="int" >       48       18       19       25       37 </v>
   <v type="int" >       48       18       19       34       37 </v>
   <v type="int" >       48       18       24       36       37 </v>
   <v type="int" >       48       18       33       36       37 </v>
   <v type="int" >       48       18       33       34       37 </v>
   <v type="int" >       48       19       25       26       38 </v>
   <v type="int" >       48       19       20       26       38 </v>
   <v type="int" >       48       19       20       35       38 </v>
   <v type="int" >       48       19       25       37       38 </v>
   <v type="int" >       48       19       34       37       38 </v>
   <v type="int" >       48       19       34       35       38 </v>
   <v type="int" >       48       20       26       27       39 </v>
   <v type="int" >       48       20       21       27       39 </v>
   <v type="int" >       48       20       21       34       39 </v>
   <v type="int" >       48       20       26       38       39 </v>
   <v type="int" >       48       20       35       38       39 </v>
   <v type="int" >       48       20       34       35       39 </v>
   <v type="int" >       24       21       21       27       40 </v>
   <v type="int" >       24       21       21       22       40 </v>
   <v type="int" >       48       21       22       33       40 </v>
   <v type="int" >       48       21       27       39       40 </v>
   <v type="int" >       48       21       34       39       40 </v>
   <v type="int" >       48       21       33       34       40 </v>
   <v type="int" >       24       22       33       33       40 </v>
   <v type="int" >       24       22       32       33       33 </v>
   <v type="int" >       24       23       24       24       28 </v>
   <v type="int" >       24       23       24       24       36 </v>
   <v type="int" >       48       24       28       29       41 </v>
   <v type="int" >       48       24       25       29       41 </v>
   <v type="int" >       48       24       25       37       41 </v>
   <v type="int" >       24       24       24       28       41 </v>
   <v type="int" >       24       24       24       36       41 </v>
   <v type="int" >       48       24       36       37       41 </v>
   <v type="int" >       48       25       29       30       42 </v>
   <v type="int" >       48       25       26       30       42 </v>
   <v type="int" >       48       25       26       38       42 </v>
   <v type="int" >       48       25       29       41       42 </v>
   <v type="int" >       48       25       37       41       42 </v>
   <v type="int" >       48       25       37       38       42 </v>
   <v type="int" >       24       26       26       30       43 </v>
   <v type="int" >       24       26       26       27       43 </v>
   <v type="int" >       48       26       27       39       43 </v>
   <v type="int" >       48       26       30       42       43 </v>
   <v type="int" >       48       26       38       42       43 </v>
   <v type="int" >       48       26       38       39       43 </v>
   <v type="int" >       24       27       39       39       43 </v>
   <v type="int" >       24       27       39       39       40 </v>
   <v type="int" >       24       28       29       29       31 </v>
   <v type="int" >       24       28       29       29       41 </v>
   <v type="int" >       48       29       29       31       44 </v>
   <v type="int" >       24       29       29       30       44 </v>
   <v type="int" >       48       29       30       42       44 </v>
   <v type="int" >       24       29       29       41       44 </v>
   <v type="int" >       48       29       41       42       44 </v>
   <v type="int" >       24       30       42       42       44 </v>
   <v type="int" >       24       30       42       42       43 </v>
   <v type="int" >       24       32       33       33       36 </v>
   <v type="int" >       48       33       36       37       40 </v>
   <v type="int" >       48       33       34       37       40 </v>
   <v type="int" >       24       33       33       36       40 </v>
   <v type="int" >       48       34       37       38       39 </v>
   <v type="int" >       48       34       35       38       39 </v>
   <v type="int" >       48       34       37       39       40 </v>
   <v type="int" >       48       35       38       38       39 </v>
   <v type="int" >       24       36       37       37       41 </v>
   <v type="int" >       24       36       37       37       40 </v>
   <v type="int" >       48       37       41       42       45 </v>
   <v type="int" >       48       37       38       42       45 </v>
   <v type="int" >       48       37       38       39       45 </v>
   <v type="int" >       24       37       37       41       45 </v>
   <v type="int" >       24       37       37       40       45 </v>
   <v type="int" >       48       37       39       40       45 </v>
   <v type="int" >       48       38       42       43       46 </v>
   <v type="int" >       48       38       39       43       46 </v>
   <v type="int" >       48       38       38       39       46 </v>
   <v type="int" >       48       38       42       45       46 </v>
   <v type="int" >       48       38       39       45       46 </v>
   <v type="int" >       24       39       39       43       45 </v>
   <v type="int" >       24       39       39       40       45 </v>
   <v type="int" >       48       39       43       45       46 </v>
   <v type="int" >       24       41       42       42       44 </v>
   <v type="int" >       24       41       42       42       45 </v>
   <v type="int" >       48       42       42       44       47 </v>
   <v type="int" >       24       42       42       43       47 </v>
   <v type="int" >       48       42       43       46       47 </v>
   <v type="int" >       24       42       42       45       47 </v>
   <v type="int" >       48       42       45       46       47 </v>
   <v type="int" >       24       43       46       46       47 </v>
   <v type="int" >       24       43       45       46       46 </v>
   <v type="int" >       24       45       46       46       47 </v>
   <v type="int" >       24       46       46       47       47 </v>
  </varray>
  <i name="volumeweight">      0.00016667 </i>
 </kpoints>
 <parameters>
  <separator name="general" >
   <i type="string" name="SYSTEM">unknown system</i>
   <i type="logical" name="LCOMPAT"> F  </i>
  </separator>
  <separator name="electronic" >
   <i type="string" name="PREC">accura</i>
   <i name="ENMAX">    680.00000000</i>
   <i name="ENAUG">   1360.00000000</i>
   <i name="EDIFF">      0.00001000</i>
   <i type="int" name="IALGO">    68</i>
   <i type="int" name="IWAVPR">    10</i>
   <i type="int" name="NBANDS">     8</i>
   <i type="int" name="NBANDSLOW">    -1</i>
   <i type="int" name="NBANDSHIGH">    -1</i>
   <i name="NELECT">      8.00000000</i>
   <i type="int" name="TURBO">     0</i>
   <i type="int" name="IRESTART">     0</i>
   <i type="int" name="NREBOOT">     0</i>
   <i type="int" name="NMIN">     0</i>
   <i name="EREF">      0.00000000</i>
   <separator name="electronic smearing" >
    <i type="int" name="ISMEAR">    -5</i>
    <i name="SIGMA">      0.20000000</i>
    <i name="KSPACING">      0.22000000</i>
    <i type="logical" name="KGAMMA"> T  </i>
    <i type="logical" name="KBLOWUP"> T  </i>
   </separator>
   <separator name="electronic projectors" >
    <i type="logical" name="LREAL"> F  </i>
    <v name="ROPT">      0.00000000</v>
    <i type="int" name="LMAXPAW">  -100</i>
    <i type="int" name="LMAXMIX">     2</i>
    <i type="logical" name="NLSPLINE"> F  </i>
   </separator>
   <separator name="electronic startup" >
    <i type="int" name="ISTART">     0</i>
    <i type="int" name="ICHARG">     2</i>
    <i type="int" name="INIWAV">     1</i>
   </separator>
   <separator name="electronic spin" >
    <i type="int" name="ISPIN">     2</i>
    <i type="logical" name="LNONCOLLINEAR"> F  </i>
    <v name="MAGMOM">      0.00000000      0.00000000</v>
    <i name="NUPDOWN">     -1.00000000</i>
    <i type="logical" name="LSORBIT"> F  </i>
    <v name="SAXIS">      0.00000000      0.00000000      1.00000000</v>
    <i type="logical" name="LSPIRAL"> F  </i>
    <v name="QSPIRAL">      0.00000000      0.00000000      0.00000000</v>
    <i type="logical" name="LZEROZ"> F  </i>
   </separator>
   <separator name="electronic exchange-correlation" >
    <i type="logical" name="LASPH"> T  </i>
    <i type="logical" name="LMETAGGA"> F  </i>
   </separator>
   <separator name="electronic convergence" >
    <i type="int" name="NELM">   200</i>
    <i type="int" name="NELMDL">    -5</i>
    <i type="int" name="NELMIN">     2</i>
    <i name="ENINI">    680.00000000</i>
    <separator name="electronic convergence detail" >
     <i type="logical" name="LDIAG"> T  </i>
     <i type="logical" name="LSUBROT"> F  </i>
     <i name="WEIMIN">      0.00000000</i>
     <i name="EBREAK">      0.00000031</i>
     <i name="DEPER">      0.30000000</i>
     <i type="int" name="NRMM">     4</i>
     <i name="TIME">      0.40000000</i>
    </separator>
   </separator>
   <separator name="electronic mixer" >
    <i name="AMIX">      0.40000000</i>
    <i name="BMIX">      1.00000000</i>
    <i name="AMIN">      0.10000000</i>
    <i name="AMIX_MAG">      1.60000000</i>
    <i name="BMIX_MAG">      1.00000000</i>
    <separator name="electronic mixer details" >
     <i type="int" name="IMIX">     4</i>
     <i type="logical" name="MIXFIRST"> F  </i>
     <i type="int" name="MAXMIX">   -45</i>
     <i name="WC">    100.00000000</i>
     <i type="int" name="INIMIX">     1</i>
     <i type="int" name="MIXPRE">     1</i>
     <i type="int" name="MREMOVE">     5</i>
    </separator>
   </separator>
   <separator name="electronic dipolcorrection" >
    <i type="logical" name="LDIPOL"> F  </i>
    <i type="logical" name="LMONO"> F  </i>
    <i type="int" name="IDIPOL">     0</i>
    <i name="EPSILON">      1.00000000</i>
    <v name="DIPOL">   -100.00000000   -100.00000000   -100.00000000</v>
    <i name="EFIELD">      0.00000000</i>
   </separator>
  </separator>
  <separator name="grids" >
   <i type="int" name="NGX">    36</i>
   <i type="int" name="NGY">    36</i>
   <i type="int" name="NGZ">    36</i>
   <i type="int" name="NGXF">    72</i>
   <i type="int" name="NGYF">    72</i>
   <i type="int" name="NGZF">    72</i>
   <i type="logical" name="ADDGRID"> F  </i>
  </separator>
  <separator name="ionic" >
   <i type="int" name="NSW">     0</i>
   <i type="int" name="IBRION">    -1</i>
   <i type="int" name="MDALGO">     0</i>
   <i type="int" name="ISIF">     2</i>
   <i name="PSTRESS">      0.00000000</i>
   <i name="EDIFFG">      0.00010000</i>
   <i type="int" name="NFREE">     0</i>
   <i name="POTIM">      0.50000000</i>
   <i name="SMASS">     -3.00000000</i>
   <i name="SCALEE">      1.00000000</i>
  </separator>
  <separator name="ionic md" >
   <i name="TEBEG">      0.00010000</i>
   <i name="TEEND">      0.00010000</i>
   <i type="int" name="NBLOCK">     1</i>
   <i type="int" name="KBLOCK">     1</i>
   <i type="int" name="NPACO">   256</i>
   <i name="APACO">     16.00000000</i>
  </separator>
  <separator name="symmetry" >
   <i type="int" name="ISYM">     2</i>
   <i name="SYMPREC">      0.00001000</i>
  </separator>
  <separator name="dos" >
   <i type="int" name="LORBIT">    11</i>
   <v name="RWIGS">     -1.00000000</v>
   <i type="int" name="NEDOS">   301</i>
   <i name="EMIN">     10.00000000</i>
   <i name="EMAX">    -10.00000000</i>
   <i name="EFERMI">      0.00000000</i>
  </separator>
  <separator name="writing" >
   <i type="int" name="NWRITE">     2</i>
   <i type="logical" name="LWAVE"> F  </i>
   <i type="logical" name="LDOWNSAMPLE"> F  </i>
   <i type="logical" name="LCHARG"> T  </i>
   <i type="logical" name="LPARD"> F  </i>
   <i type="logical" name="LVTOT"> T  </i>
   <i type="logical" name="LVHAR"> F  </i>
   <i type="logical" name="LELF"> F  </i>
   <i type="logical" name="LOPTICS"> F  </i>
   <v name="STM">      0.00000000      0.00000000      0.00000000      0.00000000      0.00000000      0.00000000      0.00000000</v>
  </separator>
  <separator name="performance" >
   <i type="int" name="NPAR">     4</i>
   <i type="int" name="NSIM">     4</i>
   <i type="int" name="NBLK">    -1</i>
   <i type="logical" name="LPLANE"> T  </i>
   <i type="logical" name="LSCALAPACK"> T  </i>
   <i type="logical" name="LSCAAWARE"> F  </i>
   <i type="logical" name="LSCALU"> F  </i>
   <i type="logical" name="LASYNC"> F  </i>
   <i type="logical" name="LORBITALREAL"> F  </i>
  </separator>
  <separator name="miscellaneous" >
   <i type="int" name="IDIOT">     3</i>
   <i type="int" name="PHON_NSTRUCT">    -1</i>
   <i type="logical" name="LMUSIC"> F  </i>
   <v name="POMASS">     28.08500000</v>
   <v name="DARWINR">      0.00000000</v>
   <v name="DARWINV">      1.00000000</v>
   <i type="logical" name="LCORR"> T  </i>
  </separator>
  <i type="logical" name="GGA_COMPAT"> T  </i>
  <i type="logical" name="LBERRY"> F  </i>
  <i type="int" name="ICORELEVEL">     0</i>
  <i type="logical" name="LDAU"> F  </i>
  <i type="int" name="I_CONSTRAINED_M">     0</i>
  <separator name="electronic exchange-correlation" >
   <i type="string" name="GGA">PS</i>
   <i type="int" name="VOSKOWN">     0</i>
   <i type="logical" name="LHFCALC"> F  </i>
   <i type="string" name="PRECFOCK"></i>
   <i type="logical" name="LSYMGRAD"> F  </i>
   <i type="logical" name="LHFONE"> F  </i>
   <i type="logical" name="LRHFCALC"> F  </i>
   <i type="logical" name="LTHOMAS"> F  </i>
   <i type="logical" name="LMODELHF"> F  </i>
   <i type="logical" name="LFOCKACE"> F  </i>
   <i name="ENCUT4O">     -1.00000000</i>
   <i type="int" name="EXXOEP">     0</i>
   <i type="int" name="FOURORBIT">     0</i>
   <i name="AEXX">      0.00000000</i>
   <i name="HFALPHA">      0.00000000</i>
   <i name="MCALPHA">      0.00000000</i>
   <i name="ALDAX">      1.00000000</i>
   <i name="AGGAX">      1.00000000</i>
   <i name="ALDAC">      1.00000000</i>
   <i name="AGGAC">      1.00000000</i>
   <i type="int" name="NKREDX">     1</i>
   <i type="int" name="NKREDY">     1</i>
   <i type="int" name="NKREDZ">     1</i>
   <i type="logical" name="SHIFTRED"> F  </i>
   <i type="logical" name="ODDONLY"> F  </i>
   <i type="logical" name="EVENONLY"> F  </i>
   <i type="int" name="LMAXFOCK">     0</i>
   <i type="int" name="NMAXFOCKAE">     0</i>
   <i type="logical" name="LFOCKAEDFT"> F  </i>
   <i name="HFSCREEN">      0.00000000</i>
   <i name="HFSCREENC">      0.00000000</i>
   <i type="int" name="NBANDSGWLOW">     0</i>
  </separator>
  <separator name="vdW DFT" >
   <i type="logical" name="LUSE_VDW"> F  </i>
   <i name="Zab_VDW">     -0.84910000</i>
   <i name="PARAM1">      0.12340000</i>
   <i name="PARAM2">      1.00000000</i>
   <i name="PARAM3">      0.00000000</i>
  </separator>
  <separator name="model GW" >
   <i type="int" name="MODEL_GW">     0</i>
   <i name="MODEL_EPS0">     12.04757241</i>
   <i name="MODEL_ALPHA">      1.00000000</i>
  </separator>
  <separator name="linear response parameters" >
   <i type="logical" name="LEPSILON"> F  </i>
   <i type="logical" name="LRPA"> F  </i>
   <i type="logical" name="LNABLA"> F  </i>
   <i type="logical" name="LVEL"> F  </i>
   <i type="int" name="KINTER">     0</i>
   <i name="CSHIFT">      0.10000000</i>
   <i name="OMEGAMAX">     -1.00000000</i>
   <i name="DEG_THRESHOLD">      0.00200000</i>
   <i name="RTIME">     -0.10000000</i>
   <i name="WPLASMAI">      0.00000000</i>
   <v name="DFIELD">      0.00000000      0.00000000      0.00000000</v>
   <v name="WPLASMA">      0.00000000      0.00000000      0.00000000      0.00000000      0.00000000      0.00000000      0.00000000      0.00000000      0.00000000</v>
  </separator>
  <separator name="orbital magnetization" >
   <i type="logical" name="NUCIND"> F  </i>
   <v name="MAGPOS">      0.00000000      0.00000000      0.00000000</v>
   <i type="logical" name="LNICSALL"> T  </i>
   <i type="logical" name="ORBITALMAG"> F  </i>
   <i type="logical" name="LMAGBLOCH"> F  </i>
   <i type="logical" name="LCHIMAG"> F  </i>
   <i type="logical" name="LGAUGE"> T  </i>
   <i type="int" name="MAGATOM">     0</i>
   <v name="MAGDIPOL">      0.00000000      0.00000000      0.00000000</v>
   <v name="AVECCONST">      0.00000000      0.00000000      0.00000000</v>
  </separator>
  <separator name="response functions" >
   <i type="logical" name="LFINITE_TEMPERATURE"> F  </i>
   <i type="logical" name="LADDER"> F  </i>
   <i type="logical" name="LRPAFORCE"> F  </i>
   <i type="logical" name="LFXC"> F  </i>
   <i type="logical" name="LHARTREE"> T  </i>
   <i type="int" name="IBSE">     0</i>
   <v type="int" name="KPOINT">    -1     0     0     0</v>
   <i type="logical" name="LTCTC"> F  </i>
   <i type="logical" name="LTCTE"> F  </i>
   <i type="logical" name="LTETE"> F  </i>
   <i type="logical" name="LTRIPLET"> F  </i>
   <i type="logical" name="LFXCEPS"> F  </i>
   <i type="logical" name="LFXHEG"> F  </i>
   <i type="int" name="NATURALO">     2</i>
   <i type="logical" name="LHOLEGF"> F  </i>
   <i type="logical" name="L2ORDER"> F  </i>
   <i type="logical" name="LDMP1"> F  </i>
   <i type="logical" name="LMP2LT"> F  </i>
   <i type="logical" name="LSMP2LT"> F  </i>
   <i type="logical" name="LGWLF"> F  </i>
   <i name="ENCUTGW">     -2.00000000</i>
   <i name="ENCUTGWSOFT">     -2.00000000</i>
   <i name="ENCUTLF">     -1.00000000</i>
   <i type="logical" name="LESF_SPLINES"> F  </i>
   <i type="int" name="LMAXMP2">    -1</i>
   <i name="SCISSOR">      0.00000000</i>
   <i type="int" name="NOMEGA">     0</i>
   <i type="int" name="NOMEGAR">     0</i>
   <i type="int" name="NBANDSGW">    -1</i>
   <i type="int" name="NBANDSO">    -1</i>
   <i type="int" name="NBANDSV">    -1</i>
   <i type="int" name="NELM">   200</i>
   <i type="int" name="NELMHF">     1</i>
   <i type="int" name="DIM">     3</i>
   <i type="int" name="IESPILON">     4</i>
   <i type="int" name="ANTIRES">     0</i>
   <i name="OMEGAMAX">    -30.00000000</i>
   <i name="OMEGAMIN">    -30.00000000</i>
   <i name="OMEGATL">   -200.00000000</i>
   <i type="int" name="OMEGAGRID">     0</i>
   <i name="CSHIFT">     -0.10000000</i>
   <i type="logical" name="LSELFENERGY"> F  </i>
   <i type="logical" name="LSPECTRAL"> F  </i>
   <i type="logical" name="LSPECTRALGW"> F  </i>
   <i type="logical" name="LSINGLES"> F  </i>
   <i type="logical" name="LFERMIGW"> F  </i>
   <i type="logical" name="ODDONLYGW"> F  </i>
   <i type="logical" name="EVENONLYGW"> F  </i>
   <i type="int" name="NKREDLFX">     1</i>
   <i type="int" name="NKREDLFY">     1</i>
   <i type="int" name="NKREDLFZ">     1</i>
   <i type="int" name="MAXMEM">  2800</i>
   <i type="int" name="TELESCOPE">     0</i>
   <i type="int" name="NTAUPAR">    -1</i>
   <i type="int" name="NOMEGAPAR">    -1</i>
   <i name="LAMBDA">      1.00000000</i>
  </separator>
  <separator name="External order field" >
   <i name="OFIELD_KAPPA">      0.00000000</i>
   <v name="OFIELD_K">      0.00000000      0.00000000      0.00000000</v>
   <i name="OFIELD_Q6_NEAR">      0.00000000</i>
   <i name="OFIELD_Q6_FAR">      0.00000000</i>
   <i name="OFIELD_A">      0.00000000</i>
  </separator>
  <separator name="solvation model" >
   <i type="logical" name="LSOL"> F  </i>
  </separator>
 </parameters>
 <atominfo>
  <atoms>       2 </atoms>
  <types>       1 </types>
  <array name="atoms" >
   <dimension dim="1">ion</dimension>
   <field type="string">element</field>
   <field type="int">atomtype</field>
   <set>
    <rc><c>Si</c><c>   1</c></rc>
    <rc><c>Si</c><c>   1</c></rc>
   </set>
  </array>
  <array name="atomtypes" >
   <dimension dim="1">type</dimension>
   <field type="int">atomspertype</field>
   <field type="string">element</field>
   <field>mass</field>
   <field>valence</field>
   <field type="string">pseudopotential</field>
   <set>
    <rc><c>   2</c><c>Si</c><c>     28.08500000</c><c>      4.00000000</c><c>  PAW_PBE Si 05Jan2001                  </c></rc>
   </set>
  </array>
 </atominfo>
 <structure name="initialpos" >
  <crystal>
   <varray name="basis" >
    <v>       0.00000000       2.71799987       2.71799987 </v>
    <v>       2.71799987       0.00000000       2.71799987 </v>
    <v>       2.71799987       2.71799987       0.00000000 </v>
   </varray>
   <i name="volume">     40.15857470 </i>
   <varray name="rec_basis" >
    <v>      -0.18395880       0.18395880       0.18395880 </v>
    <v>       0.18395880      -0.18395880       0.18395880 </v>
    <v>       0.18395880       0.18395880      -0.18395880 </v>
   </varray>
  </crystal>
  <varray name="positions" >
   <v>       0.00000000       0.00000000       0.00000000 </v>
   <v>       0.25000000       0.25000000       0.25000000 </v>
  </varray>
 </structure>
 <calculation>
  <scstep>
   <time name="dav">    0.19    0.19</time>
   <time name="total">    0.39    0.40</time>
   <energy>
    <i name="alphaZ">      3.35302047 </i>
    <i name="ewald">   -228.31125823 </i>
    <i name="hartreedc">    -11.05085757 </i>
    <i name="XCdc">    -17.46705488 </i>
    <i name="pawpsdc">    174.95707044 </i>
    <i name="pawaedc">   -140.38057629 </i>
    <i name="eentropy">      0.00000000 </i>
    <i name="bandstr">     23.50881361 </i>
    <i name="atom">    205.15160006 </i>
    <i name="e_fr_energy">      9.76075762 </i>
    <i name="e_wo_entrp">      9.76075762 </i>
    <i name="e_0_energy">      9.76075762 </i>
   </energy>
  </scstep>
  <scstep>
   <time name="dav">    0.25    0.25</time>
   <time name="total">    0.25    0.26</time>
   <energy>
    <i name="e_fr_energy">    -11.39361196 </i>
    <i name="e_wo_entrp">    -11.39361196 </i>
    <i name="e_0_energy">    -11.39361196 </i>
   </energy>
  </scstep>
  <scstep>
   <time name="dav">    0.23    0.23</time>
   <time name="total">    0.23    0.24</time>
   <energy>
    <i name="e_fr_energy">    -11.71301442 </i>
    <i name="e_wo_entrp">    -11.71301442 </i>
    <i name="e_0_energy">    -11.71301442 </i>
   </energy>
  </scstep>
  <scstep>
   <time name="dav">    0.27    0.27</time>
   <time name="total">    0.27    0.27</time>
   <energy>
    <i name="e_fr_energy">    -11.71421465 </i>
    <i name="e_wo_entrp">    -11.71421465 </i>
    <i name="e_0_energy">    -11.71421465 </i>
   </energy>
  </scstep>
  <scstep>
   <time name="dav">    0.22    0.22</time>
   <time name="total">    0.25    0.25</time>
   <energy>
    <i name="e_fr_energy">    -11.71421638 </i>
    <i name="e_wo_entrp">    -11.71421638 </i>
    <i name="e_0_energy">    -11.71421638 </i>
   </energy>
  </scstep>
  <scstep>
   <time name="diag">    0.31    0.31</time>
   <time name="diis">    0.08    0.08</time>
   <time name="orth">    0.01    0.01</time>
   <time name="total">    0.62    0.62</time>
   <energy>
    <i name="e_fr_energy">    -11.56127306 </i>
    <i name="e_wo_entrp">    -11.56127306 </i>
    <i name="e_0_energy">    -11.56127306 </i>
   </energy>
  </scstep>
  <scstep>
   <time name="diag">    0.27    0.27</time>
   <time name="diis">    0.09    0.09</time>
   <time name="orth">    0.01    0.01</time>
   <time name="total">    0.59    0.59</time>
   <energy>
    <i name="e_fr_energy">    -11.49140713 </i>
    <i name="e_wo_entrp">    -11.49140713 </i>
    <i name="e_0_energy">    -11.49140713 </i>
   </energy>
  </scstep>
  <scstep>
   <time name="diag">    0.27    0.27</time>
   <time name="diis">    0.09    0.09</time>
   <time name="orth">    0.01    0.01</time>
   <time name="total">    0.59    0.59</time>
   <energy>
    <i name="e_fr_energy">    -11.49234013 </i>
    <i name="e_wo_entrp">    -11.49234013 </i>
    <i name="e_0_energy">    -11.49234013 </i>
   </energy>
  </scstep>
  <scstep>
   <time name="diag">    0.27    0.27</time>
   <time name="diis">    0.10    0.10</time>
   <time name="orth">    0.01    0.01</time>
   <time name="total">    0.61    0.61</time>
   <energy>
    <i name="e_fr_energy">    -11.49253004 </i>
    <i name="e_wo_entrp">    -11.49253004 </i>
    <i name="e_0_energy">    -11.49253004 </i>
   </energy>
  </scstep>
  <scstep>
   <time name="diag">    0.28    0.28</time>
   <time name="diis">    0.10    0.10</time>
   <time name="orth">    0.01    0.01</time>
   <time name="total">    0.61    0.61</time>
   <energy>
    <i name="e_fr_energy">    -11.49256871 </i>
    <i name="e_wo_entrp">    -11.49256871 </i>
    <i name="e_0_energy">    -11.49256871 </i>
   </energy>
  </scstep>
  <scstep>
   <time name="diag">    0.26    0.26</time>
   <time name="diis">    0.10    0.10</time>
   <time name="orth">    0.01    0.01</time>
   <time name="total">    0.59    0.60</time>
   <energy>
    <i name="e_fr_energy">    -11.49257944 </i>
    <i name="e_wo_entrp">    -11.49257944 </i>
    <i name="e_0_energy">    -11.49257944 </i>
   </energy>
  </scstep>
  <scstep>
   <time name="diag">    0.26    0.26</time>
   <time name="diis">    0.08    0.08</time>
   <time name="orth">    0.01    0.01</time>
   <time name="total">    0.55    0.56</time>
   <energy>
    <i name="alphaZ">      3.35302047 </i>
    <i name="ewald">   -228.31125823 </i>
    <i name="hartreedc">    -14.65002491 </i>
    <i name="XCdc">    -16.86144707 </i>
    <i name="pawpsdc">    867.01981798 </i>
    <i name="pawaedc">   -832.65582967 </i>
    <i name="eentropy">      0.00000000 </i>
    <i name="bandstr">      5.46154019 </i>
    <i name="atom">    205.15160006 </i>
    <i name="e_fr_energy">    -11.49258117 </i>
    <i name="e_wo_entrp">    -11.49258117 </i>
    <i name="e_0_energy">    -11.49258117 </i>
   </energy>
  </scstep>
  <structure>
   <crystal>
    <varray name="basis" >
     <v>       0.00000000       2.71799987       2.71799987 </v>
     <v>       2.71799987       0.00000000       2.71799987 </v>
     <v>       2.71799987       2.71799987       0.00000000 </v>
    </varray>
    <i name="volume">     40.15857470 </i>
    <varray name="rec_basis" >
     <v>      -0.18395880       0.18395880       0.18395880 </v>
     <v>       0.18395880      -0.18395880       0.18395880 </v>
     <v>       0.18395880       0.18395880      -0.18395880 </v>
    </varray>
   </crystal>
   <varray name="positions" >
    <v>       0.00000000       0.00000000       0.00000000 </v>
    <v>       0.25000000       0.25000000       0.25000000 </v>
   </varray>
  </structure>
  <varray name="forces" >
   <v>      -0.00000000      -0.00000000      -0.00000000 </v>
   <v>       0.00000000       0.00000000       0.00000000 </v>
  </varray>
  <varray name="stress" >
   <v>      -0.15481820      -0.00000000      -0.00000000 </v>
   <v>      -0.00000000      -0.15481820      -0.00000000 </v>
   <v>      -0.00000000      -0.00000000      -0.15481820 </v>
  </varray>
  <energy>
   <i name="e_fr_energy">    -11.49258117 </i>
   <i name="e_wo_entrp">    -11.49258117 </i>
   <i name="e_0_energy">    -11.49258117 </i>
  </energy>
  <time name="totalsc">    6.60    6.63</time>
  <eigenvalues>
   <array>
    <dimension dim="1">band</dimension>
    <dimension dim="2">kpoint</dimension>
    <dimension dim="3">spin</dimension>
    <field>eigene</field>
    <field>occ</field>
    <set>
     <set comment="spin 1">
      <set comment="kpoint 1">
       <r>   -6.2090    1.0000 </r>
       <r>    5.7613    1.0000 </r>
       <r>    5.7613    1.0000 </r>
       <r>    5.7613    1.0000 </r>
       <r>    8.2771    0.0000 </r>
       <r>    8.2771    0.0000 </r>
       <r>    8.2771    0.0000 </r>
       <r>    9.0522    0.0000 </r>
      </set>
      <set comment="kpoint 2">
       <r>   -6.0780    1.0000 </r>
       <r>    4.6049    1.0000 </r>
       <r>    5.5607    1.0000 </r>
       <r>    5.5607    1.0000 </r>
       <r>    8.2748    0.0000 </r>
       <r>    8.5714    0.0000 </r>
       <r>    8.5714    0.0000 </r>
       <r>    9.9832    0.0000 </r>
      </set>
      <set comment="kpoint 3">
       <r>   -5.6908    1.0000 </r>
       <r>    2.7350    1.0000 </r>
       <r>    5.1781    1.0000 </r>
       <r>    5.1781    1.0000 </r>
       <r>    7.9074    0.0000 </r>
       <r>    9.0784    0.0000 </r>
       <r>    9.0784    0.0000 </r>
       <r>   11.7329    0.0000 </r>
      </set>
      <set comment="kpoint 4">
       <r>   -5.0738    1.0000 </r>
       <r>    0.9443    1.0000 </r>
       <r>    4.8433    1.0000 </r>
       <r>    4.8433    1.0000 </r>
       <r>    7.5402    0.0000 </r>
       <r>    9.2395    0.0000 </r>
       <r>    9.2395    0.0000 </r>
       <r>   13.2717    0.0000 </r>
      </set>
      <set comment="kpoint 5">
       <r>   -4.3229    1.0000 </r>
       <r>   -0.5370    1.0000 </r>
       <r>    4.6316    1.0000 </r>
       <r>    4.6316    1.0000 </r>
       <r>    7.2989    0.0000 </r>
       <r>    9.1137    0.0000 </r>
       <r>    9.1137    0.0000 </r>
       <r>   13.3921    0.0000 </r>
      </set>
      <set comment="kpoint 6">
       <r>   -3.8666    1.0000 </r>
       <r>   -1.2402    1.0000 </r>
       <r>    4.5603    1.0000 </r>
       <r>    4.5603    1.0000 </r>
       <r>    7.2164    0.0000 </r>
       <r>    9.0351    0.0000 </r>
       <r>    9.0351    0.0000 </r>
       <r>   13.2706    0.0000 </r>
      </set>
      <set comment="kpoint 7">
       <r>   -6.0340    1.0000 </r>
       <r>    4.8177    1.0000 </r>
       <r>    5.1774    1.0000 </r>
       <r>    5.1774    1.0000 </r>
       <r>    7.8815    0.0000 </r>
       <r>    9.0741    0.0000 </r>
       <r>    9.0741    0.0000 </r>
       <r>    9.8832    0.0000 </r>
      </set>
      <set comment="kpoint 8">
       <r>   -5.7310    1.0000 </r>
       <r>    3.2978    1.0000 </r>
       <r>    4.7401    1.0000 </r>
       <r>    4.9112    1.0000 </r>
       <r>    7.9364    0.0000 </r>
       <r>    9.1206    0.0000 </r>
       <r>    9.7281    0.0000 </r>
       <r>   10.6668    0.0000 </r>
      </set>
      <set comment="kpoint 9">
       <r>   -5.1862    1.0000 </r>
       <r>    1.5315    1.0000 </r>
       <r>    4.4213    1.0000 </r>
       <r>    4.4738    1.0000 </r>
       <r>    8.0647    0.0000 </r>
       <r>    9.0959    0.0000 </r>
       <r>   10.0014    0.0000 </r>
       <r>   10.9895    0.0000 </r>
      </set>
      <set comment="kpoint 10">
       <r>   -4.4594    1.0000 </r>
       <r>   -0.0470    1.0000 </r>
       <r>    4.0602    1.0000 </r>
       <r>    4.2753    1.0000 </r>
       <r>    7.9196    0.0000 </r>
       <r>    9.0400    0.0000 </r>
       <r>    9.8122    0.0000 </r>
       <r>   12.0596    0.0000 </r>
      </set>
      <set comment="kpoint 11">
       <r>   -3.8130    1.0000 </r>
       <r>   -1.0908    1.0000 </r>
       <r>    3.7682    1.0000 </r>
       <r>    4.3103    1.0000 </r>
       <r>    7.8345    0.0000 </r>
       <r>    9.0002    0.0000 </r>
       <r>    9.5394    0.0000 </r>
       <r>   13.4285    0.0000 </r>
      </set>
      <set comment="kpoint 12">
       <r>   -3.9822    1.0000 </r>
       <r>   -0.8399    1.0000 </r>
       <r>    3.6382    1.0000 </r>
       <r>    4.5122    1.0000 </r>
       <r>    7.8993    0.0000 </r>
       <r>    9.1300    0.0000 </r>
       <r>    9.3836    0.0000 </r>
       <r>   13.6579    0.0000 </r>
      </set>
      <set comment="kpoint 13">
       <r>   -4.7161    1.0000 </r>
       <r>    0.4488    1.0000 </r>
       <r>    3.6965    1.0000 </r>
       <r>    4.8490    1.0000 </r>
       <r>    8.1078    0.0000 </r>
       <r>    9.3189    0.0000 </r>
       <r>    9.3870    0.0000 </r>
       <r>   12.6770    0.0000 </r>
      </set>
      <set comment="kpoint 14">
       <r>   -5.3941    1.0000 </r>
       <r>    2.1038    1.0000 </r>
       <r>    3.9707    1.0000 </r>
       <r>    5.2573    1.0000 </r>
       <r>    8.4231    0.0000 </r>
       <r>    9.0834    0.0000 </r>
       <r>    9.4119    0.0000 </r>
       <r>   11.6366    0.0000 </r>
      </set>
      <set comment="kpoint 15">
       <r>   -5.8610    1.0000 </r>
       <r>    3.7204    1.0000 </r>
       <r>    4.5831    1.0000 </r>
       <r>    5.5859    1.0000 </r>
       <r>    8.6356    0.0000 </r>
       <r>    8.6920    0.0000 </r>
       <r>    8.8140    0.0000 </r>
       <r>   10.8943    0.0000 </r>
      </set>
      <set comment="kpoint 16">
       <r>   -5.5126    1.0000 </r>
       <r>    3.1337    1.0000 </r>
       <r>    4.2610    1.0000 </r>
       <r>    4.2610    1.0000 </r>
       <r>    7.1368    0.0000 </r>
       <r>    9.5525    0.0000 </r>
       <r>   10.6147    0.0000 </r>
       <r>   10.6147    0.0000 </r>
      </set>
      <set comment="kpoint 17">
       <r>   -5.0460    1.0000 </r>
       <r>    1.8844    1.0000 </r>
       <r>    3.7463    1.0000 </r>
       <r>    3.9122    1.0000 </r>
       <r>    7.2342    0.0000 </r>
       <r>    9.1127    0.0000 </r>
       <r>   10.8646    0.0000 </r>
       <r>   11.2018    0.0000 </r>
      </set>
      <set comment="kpoint 18">
       <r>   -4.3687    1.0000 </r>
       <r>    0.4414    1.0000 </r>
       <r>    3.1110    1.0000 </r>
       <r>    3.7532    1.0000 </r>
       <r>    7.4421    0.0000 </r>
       <r>    9.7538    0.0000 </r>
       <r>   10.6349    0.0000 </r>
       <r>   11.1443    0.0000 </r>
      </set>
      <set comment="kpoint 19">
       <r>   -3.6329    1.0000 </r>
       <r>   -0.7501    1.0000 </r>
       <r>    2.5977    1.0000 </r>
       <r>    3.7987    1.0000 </r>
       <r>    7.5042    0.0000 </r>
       <r>   10.3886    0.0000 </r>
       <r>   10.8078    0.0000 </r>
       <r>   11.3291    0.0000 </r>
      </set>
      <set comment="kpoint 20">
       <r>   -3.4779    1.0000 </r>
       <r>   -0.9609    1.0000 </r>
       <r>    2.2962    1.0000 </r>
       <r>    4.0393    1.0000 </r>
       <r>    7.7248    0.0000 </r>
       <r>   10.2888    0.0000 </r>
       <r>   10.5031    0.0000 </r>
       <r>   13.2441    0.0000 </r>
      </set>
      <set comment="kpoint 21">
       <r>   -4.1368    1.0000 </r>
       <r>    0.0335    1.0000 </r>
       <r>    2.2724    1.0000 </r>
       <r>    4.4397    1.0000 </r>
       <r>    8.1333    0.0000 </r>
       <r>   10.2367    0.0000 </r>
       <r>   10.2928    0.0000 </r>
       <r>   12.3822    0.0000 </r>
      </set>
      <set comment="kpoint 22">
       <r>   -4.8576    1.0000 </r>
       <r>    1.2769    1.0000 </r>
       <r>    2.7250    1.0000 </r>
       <r>    4.9138    1.0000 </r>
       <r>    8.5851    0.0000 </r>
       <r>    9.7048    0.0000 </r>
       <r>    9.9978    0.0000 </r>
       <r>   11.4037    0.0000 </r>
      </set>
      <set comment="kpoint 23">
       <r>   -4.6576    1.0000 </r>
       <r>    1.3441    1.0000 </r>
       <r>    3.5179    1.0000 </r>
       <r>    3.5179    1.0000 </r>
       <r>    6.5227    0.0000 </r>
       <r>    8.0614    0.0000 </r>
       <r>   12.3670    0.0000 </r>
       <r>   12.3670    0.0000 </r>
      </set>
      <set comment="kpoint 24">
       <r>   -4.0434    1.0000 </r>
       <r>    0.3384    1.0000 </r>
       <r>    2.8789    1.0000 </r>
       <r>    3.3130    1.0000 </r>
       <r>    6.7103    0.0000 </r>
       <r>    7.8973    0.0000 </r>
       <r>   12.6588    0.0000 </r>
       <r>   12.7800    0.0000 </r>
      </set>
      <set comment="kpoint 25">
       <r>   -3.2899    1.0000 </r>
       <r>   -0.6702    1.0000 </r>
       <r>    2.0368    1.0000 </r>
       <r>    3.3204    1.0000 </r>
       <r>    6.8823    0.0000 </r>
       <r>    9.0490    0.0000 </r>
       <r>   12.4699    0.0000 </r>
       <r>   12.5208    0.0000 </r>
      </set>
      <set comment="kpoint 26">
       <r>   -2.8658    1.0000 </r>
       <r>   -1.1504    1.0000 </r>
       <r>    1.4767    1.0000 </r>
       <r>    3.5376    1.0000 </r>
       <r>    7.1175    0.0000 </r>
       <r>   10.8535    0.0000 </r>
       <r>   12.1201    0.0000 </r>
       <r>   12.3100    0.0000 </r>
      </set>
      <set comment="kpoint 27">
       <r>   -3.4074    1.0000 </r>
       <r>   -0.5586    1.0000 </r>
       <r>    1.4493    1.0000 </r>
       <r>    3.9365    1.0000 </r>
       <r>    7.5702    0.0000 </r>
       <r>   11.4582    0.0000 </r>
       <r>   11.7196    0.0000 </r>
       <r>   12.5237    0.0000 </r>
      </set>
      <set comment="kpoint 28">
       <r>   -3.4928    1.0000 </r>
       <r>   -0.4181    1.0000 </r>
       <r>    3.0522    1.0000 </r>
       <r>    3.0522    1.0000 </r>
       <r>    6.2324    0.0000 </r>
       <r>    6.9541    0.0000 </r>
       <r>   14.2166    0.0000 </r>
       <r>   14.2166    0.0000 </r>
      </set>
      <set comment="kpoint 29">
       <r>   -2.7620    1.0000 </r>
       <r>   -1.2587    1.0000 </r>
       <r>    2.4512    1.0000 </r>
       <r>    3.0038    1.0000 </r>
       <r>    6.4645    0.0000 </r>
       <r>    7.2313    0.0000 </r>
       <r>   14.4557    0.0000 </r>
       <r>   14.5493    0.0000 </r>
      </set>
      <set comment="kpoint 30">
       <r>   -2.2808    1.0000 </r>
       <r>   -1.6814    1.0000 </r>
       <r>    1.6526    1.0000 </r>
       <r>    3.1720    1.0000 </r>
       <r>    6.6784    0.0000 </r>
       <r>    8.8216    0.0000 </r>
       <r>   13.8016    0.0000 </r>
       <r>   14.3848    0.0000 </r>
      </set>
      <set comment="kpoint 31">
       <r>   -2.0587    1.0000 </r>
       <r>   -2.0587    1.0000 </r>
       <r>    2.8945    1.0000 </r>
       <r>    2.8945    1.0000 </r>
       <r>    6.3557    0.0000 </r>
       <r>    6.3557    0.0000 </r>
       <r>   15.8006    0.0000 </r>
       <r>   15.8006    0.0000 </r>
      </set>
      <set comment="kpoint 32">
       <r>   -5.3469    1.0000 </r>
       <r>    2.3792    1.0000 </r>
       <r>    3.6550    1.0000 </r>
       <r>    4.7839    1.0000 </r>
       <r>    8.0377    0.0000 </r>
       <r>    9.4406    0.0000 </r>
       <r>   10.2659    0.0000 </r>
       <r>   10.3786    0.0000 </r>
      </set>
      <set comment="kpoint 33">
       <r>   -4.7339    1.0000 </r>
       <r>    0.9659    1.0000 </r>
       <r>    3.0638    1.0000 </r>
       <r>    4.4052    1.0000 </r>
       <r>    8.3861    0.0000 </r>
       <r>    9.3140    0.0000 </r>
       <r>   10.3850    0.0000 </r>
       <r>   10.8253    0.0000 </r>
      </set>
      <set comment="kpoint 34">
       <r>   -3.9834    1.0000 </r>
       <r>   -0.4039    1.0000 </r>
       <r>    2.8338    1.0000 </r>
       <r>    4.0519    1.0000 </r>
       <r>    8.4391    0.0000 </r>
       <r>    8.9655    0.0000 </r>
       <r>   10.7620    0.0000 </r>
       <r>   11.7301    0.0000 </r>
      </set>
      <set comment="kpoint 35">
       <r>   -3.5197    1.0000 </r>
       <r>   -1.0872    1.0000 </r>
       <r>    2.7747    1.0000 </r>
       <r>    3.9129    1.0000 </r>
       <r>    8.4736    0.0000 </r>
       <r>    8.7691    0.0000 </r>
       <r>   10.7194    0.0000 </r>
       <r>   13.4665    0.0000 </r>
      </set>
      <set comment="kpoint 36">
       <r>   -4.5072    1.0000 </r>
       <r>    0.9865    1.0000 </r>
       <r>    2.9249    1.0000 </r>
       <r>    3.6588    1.0000 </r>
       <r>    7.4535    0.0000 </r>
       <r>    8.7150    0.0000 </r>
       <r>   10.9076    0.0000 </r>
       <r>   12.2529    0.0000 </r>
      </set>
      <set comment="kpoint 37">
       <r>   -3.7844    1.0000 </r>
       <r>   -0.1178    1.0000 </r>
       <r>    2.3000    1.0000 </r>
       <r>    3.3250    1.0000 </r>
       <r>    7.8296    0.0000 </r>
       <r>    9.4229    0.0000 </r>
       <r>   10.5228    0.0000 </r>
       <r>   12.6417    0.0000 </r>
      </set>
      <set comment="kpoint 38">
       <r>   -3.1293    1.0000 </r>
       <r>   -0.9869    1.0000 </r>
       <r>    1.8884    1.0000 </r>
       <r>    3.2689    1.0000 </r>
       <r>    8.0101    0.0000 </r>
       <r>   10.0500    0.0000 </r>
       <r>   11.1928    0.0000 </r>
       <r>   12.5704    0.0000 </r>
      </set>
      <set comment="kpoint 39">
       <r>   -3.3321    1.0000 </r>
       <r>   -0.7255    1.0000 </r>
       <r>    1.7349    1.0000 </r>
       <r>    3.5113    1.0000 </r>
       <r>    8.3572    0.0000 </r>
       <r>    9.7958    0.0000 </r>
       <r>   11.6296    0.0000 </r>
       <r>   12.4235    0.0000 </r>
      </set>
      <set comment="kpoint 40">
       <r>   -4.0717    1.0000 </r>
       <r>    0.2280    1.0000 </r>
       <r>    2.0355    1.0000 </r>
       <r>    3.9563    1.0000 </r>
       <r>    8.8640    0.0000 </r>
       <r>    9.3488    0.0000 </r>
       <r>   10.3859    0.0000 </r>
       <r>   11.9615    0.0000 </r>
      </set>
      <set comment="kpoint 41">
       <r>   -3.3734    1.0000 </r>
       <r>   -0.5026    1.0000 </r>
       <r>    2.5128    1.0000 </r>
       <r>    2.8437    1.0000 </r>
       <r>    7.1516    0.0000 </r>
       <r>    7.7292    0.0000 </r>
       <r>   12.4520    0.0000 </r>
       <r>   14.2032    0.0000 </r>
      </set>
      <set comment="kpoint 42">
       <r>   -2.6314    1.0000 </r>
       <r>   -1.2779    1.0000 </r>
       <r>    1.7979    1.0000 </r>
       <r>    2.7511    1.0000 </r>
       <r>    7.4986    0.0000 </r>
       <r>    8.9514    0.0000 </r>
       <r>   12.0429    0.0000 </r>
       <r>   13.8253    0.0000 </r>
      </set>
      <set comment="kpoint 43">
       <r>   -2.6343    1.0000 </r>
       <r>   -1.2533    1.0000 </r>
       <r>    1.3759    1.0000 </r>
       <r>    3.0231    1.0000 </r>
       <r>    7.8297    0.0000 </r>
       <r>   10.7790    0.0000 </r>
       <r>   11.6544    0.0000 </r>
       <r>   11.9624    0.0000 </r>
      </set>
      <set comment="kpoint 44">
       <r>   -2.0041    1.0000 </r>
       <r>   -2.0041    1.0000 </r>
       <r>    2.4707    1.0000 </r>
       <r>    2.4707    1.0000 </r>
       <r>    7.2226    0.0000 </r>
       <r>    7.2226    0.0000 </r>
       <r>   14.1837    0.0000 </r>
       <r>   14.1837    0.0000 </r>
      </set>
      <set comment="kpoint 45">
       <r>   -3.0495    1.0000 </r>
       <r>   -0.8008    1.0000 </r>
       <r>    1.7387    1.0000 </r>
       <r>    2.7364    1.0000 </r>
       <r>    9.0743    0.0000 </r>
       <r>    9.4300    0.0000 </r>
       <r>   10.1284    0.0000 </r>
       <r>   13.4694    0.0000 </r>
      </set>
      <set comment="kpoint 46">
       <r>   -2.5352    1.0000 </r>
       <r>   -1.3112    1.0000 </r>
       <r>    1.5786    1.0000 </r>
       <r>    2.4819    1.0000 </r>
       <r>    9.3362    0.0000 </r>
       <r>    9.6736    0.0000 </r>
       <r>   11.0758    0.0000 </r>
       <r>   11.5323    0.0000 </r>
      </set>
      <set comment="kpoint 47">
       <r>   -1.9077    1.0000 </r>
       <r>   -1.9077    1.0000 </r>
       <r>    1.9444    1.0000 </r>
       <r>    1.9444    1.0000 </r>
       <r>    9.1020    0.0000 </r>
       <r>    9.1020    0.0000 </r>
       <r>   11.6134    0.0000 </r>
       <r>   11.6134    0.0000 </r>
      </set>
     </set>
     <set comment="spin 2">
      <set comment="kpoint 1">
       <r>   -6.2090    1.0000 </r>
       <r>    5.7613    1.0000 </r>
       <r>    5.7613    1.0000 </r>
       <r>    5.7613    1.0000 </r>
       <r>    8.2771    0.0000 </r>
       <r>    8.2771    0.0000 </r>
       <r>    8.2771    0.0000 </r>
       <r>    9.0522    0.0000 </r>
      </set>
      <set comment="kpoint 2">
       <r>   -6.0780    1.0000 </r>
       <r>    4.6049    1.0000 </r>
       <r>    5.5607    1.0000 </r>
       <r>    5.5607    1.0000 </r>
       <r>    8.2748    0.0000 </r>
       <r>    8.5714    0.0000 </r>
       <r>    8.5714    0.0000 </r>
       <r>    9.9832    0.0000 </r>
      </set>
      <set comment="kpoint 3">
       <r>   -5.6908    1.0000 </r>
       <r>    2.7350    1.0000 </r>
       <r>    5.1781    1.0000 </r>
       <r>    5.1781    1.0000 </r>
       <r>    7.9074    0.0000 </r>
       <r>    9.0784    0.0000 </r>
       <r>    9.0784    0.0000 </r>
       <r>   11.7329    0.0000 </r>
      </set>
      <set comment="kpoint 4">
       <r>   -5.0738    1.0000 </r>
       <r>    0.9443    1.0000 </r>
       <r>    4.8433    1.0000 </r>
       <r>    4.8433    1.0000 </r>
       <r>    7.5403    0.0000 </r>
       <r>    9.2395    0.0000 </r>
       <r>    9.2395    0.0000 </r>
       <r>   13.2781    0.0000 </r>
      </set>
      <set comment="kpoint 5">
       <r>   -4.3229    1.0000 </r>
       <r>   -0.5370    1.0000 </r>
       <r>    4.6316    1.0000 </r>
       <r>    4.6316    1.0000 </r>
       <r>    7.2989    0.0000 </r>
       <r>    9.1137    0.0000 </r>
       <r>    9.1137    0.0000 </r>
       <r>   13.3921    0.0000 </r>
      </set>
      <set comment="kpoint 6">
       <r>   -3.8666    1.0000 </r>
       <r>   -1.2402    1.0000 </r>
       <r>    4.5603    1.0000 </r>
       <r>    4.5603    1.0000 </r>
       <r>    7.2164    0.0000 </r>
       <r>    9.0351    0.0000 </r>
       <r>    9.0351    0.0000 </r>
       <r>   13.2706    0.0000 </r>
      </set>
      <set comment="kpoint 7">
       <r>   -6.0340    1.0000 </r>
       <r>    4.8177    1.0000 </r>
       <r>    5.1774    1.0000 </r>
       <r>    5.1774    1.0000 </r>
       <r>    7.8816    0.0000 </r>
       <r>    9.0741    0.0000 </r>
       <r>    9.0741    0.0000 </r>
       <r>    9.8832    0.0000 </r>
      </set>
      <set comment="kpoint 8">
       <r>   -5.7310    1.0000 </r>
       <r>    3.2978    1.0000 </r>
       <r>    4.7401    1.0000 </r>
       <r>    4.9112    1.0000 </r>
       <r>    7.9364    0.0000 </r>
       <r>    9.1206    0.0000 </r>
       <r>    9.7281    0.0000 </r>
       <r>   10.6668    0.0000 </r>
      </set>
      <set comment="kpoint 9">
       <r>   -5.1862    1.0000 </r>
       <r>    1.5315    1.0000 </r>
       <r>    4.4213    1.0000 </r>
       <r>    4.4738    1.0000 </r>
       <r>    8.0647    0.0000 </r>
       <r>    9.0960    0.0000 </r>
       <r>   10.0014    0.0000 </r>
       <r>   10.9895    0.0000 </r>
      </set>
      <set comment="kpoint 10">
       <r>   -4.4594    1.0000 </r>
       <r>   -0.0470    1.0000 </r>
       <r>    4.0602    1.0000 </r>
       <r>    4.2753    1.0000 </r>
       <r>    7.9196    0.0000 </r>
       <r>    9.0400    0.0000 </r>
       <r>    9.8122    0.0000 </r>
       <r>   12.0596    0.0000 </r>
      </set>
      <set comment="kpoint 11">
       <r>   -3.8130    1.0000 </r>
       <r>   -1.0908    1.0000 </r>
       <r>    3.7682    1.0000 </r>
       <r>    4.3103    1.0000 </r>
       <r>    7.8345    0.0000 </r>
       <r>    9.0002    0.0000 </r>
       <r>    9.5394    0.0000 </r>
       <r>   13.4285    0.0000 </r>
      </set>
      <set comment="kpoint 12">
       <r>   -3.9822    1.0000 </r>
       <r>   -0.8399    1.0000 </r>
       <r>    3.6382    1.0000 </r>
       <r>    4.5122    1.0000 </r>
       <r>    7.8993    0.0000 </r>
       <r>    9.1300    0.0000 </r>
       <r>    9.3836    0.0000 </r>
       <r>   13.6581    0.0000 </r>
      </set>
      <set comment="kpoint 13">
       <r>   -4.7161    1.0000 </r>
       <r>    0.4488    1.0000 </r>
       <r>    3.6965    1.0000 </r>
       <r>    4.8490    1.0000 </r>
       <r>    8.1079    0.0000 </r>
       <r>    9.3189    0.0000 </r>
       <r>    9.3871    0.0000 </r>
       <r>   12.6749    0.0000 </r>
      </set>
      <set comment="kpoint 14">
       <r>   -5.3941    1.0000 </r>
       <r>    2.1038    1.0000 </r>
       <r>    3.9707    1.0000 </r>
       <r>    5.2573    1.0000 </r>
       <r>    8.4231    0.0000 </r>
       <r>    9.0834    0.0000 </r>
       <r>    9.4119    0.0000 </r>
       <r>   11.6366    0.0000 </r>
      </set>
      <set comment="kpoint 15">
       <r>   -5.8610    1.0000 </r>
       <r>    3.7204    1.0000 </r>
       <r>    4.5831    1.0000 </r>
       <r>    5.5859    1.0000 </r>
       <r>    8.6356    0.0000 </r>
       <r>    8.6920    0.0000 </r>
       <r>    8.8140    0.0000 </r>
       <r>   10.8943    0.0000 </r>
      </set>
      <set comment="kpoint 16">
       <r>   -5.5126    1.0000 </r>
       <r>    3.1337    1.0000 </r>
       <r>    4.2610    1.0000 </r>
       <r>    4.2610    1.0000 </r>
       <r>    7.1368    0.0000 </r>
       <r>    9.5525    0.0000 </r>
       <r>   10.6147    0.0000 </r>
       <r>   10.6147    0.0000 </r>
      </set>
      <set comment="kpoint 17">
       <r>   -5.0460    1.0000 </r>
       <r>    1.8844    1.0000 </r>
       <r>    3.7463    1.0000 </r>
       <r>    3.9122    1.0000 </r>
       <r>    7.2342    0.0000 </r>
       <r>    9.1127    0.0000 </r>
       <r>   10.8646    0.0000 </r>
       <r>   11.2018    0.0000 </r>
      </set>
      <set comment="kpoint 18">
       <r>   -4.3687    1.0000 </r>
       <r>    0.4414    1.0000 </r>
       <r>    3.1110    1.0000 </r>
       <r>    3.7532    1.0000 </r>
       <r>    7.4421    0.0000 </r>
       <r>    9.7538    0.0000 </r>
       <r>   10.6349    0.0000 </r>
       <r>   11.1443    0.0000 </r>
      </set>
      <set comment="kpoint 19">
       <r>   -3.6329    1.0000 </r>
       <r>   -0.7501    1.0000 </r>
       <r>    2.5977    1.0000 </r>
       <r>    3.7987    1.0000 </r>
       <r>    7.5042    0.0000 </r>
       <r>   10.3886    0.0000 </r>
       <r>   10.8078    0.0000 </r>
       <r>   11.3291    0.0000 </r>
      </set>
      <set comment="kpoint 20">
       <r>   -3.4779    1.0000 </r>
       <r>   -0.9609    1.0000 </r>
       <r>    2.2962    1.0000 </r>
       <r>    4.0393    1.0000 </r>
       <r>    7.7248    0.0000 </r>
       <r>   10.2888    0.0000 </r>
       <r>   10.5031    0.0000 </r>
       <r>   13.2441    0.0000 </r>
      </set>
      <set comment="kpoint 21">
       <r>   -4.1368    1.0000 </r>
       <r>    0.0335    1.0000 </r>
       <r>    2.2724    1.0000 </r>
       <r>    4.4397    1.0000 </r>
       <r>    8.1334    0.0000 </r>
       <r>   10.2368    0.0000 </r>
       <r>   10.2928    0.0000 </r>
       <r>   12.3823    0.0000 </r>
      </set>
      <set comment="kpoint 22">
       <r>   -4.8576    1.0000 </r>
       <r>    1.2769    1.0000 </r>
       <r>    2.7250    1.0000 </r>
       <r>    4.9138    1.0000 </r>
       <r>    8.5851    0.0000 </r>
       <r>    9.7048    0.0000 </r>
       <r>    9.9978    0.0000 </r>
       <r>   11.4037    0.0000 </r>
      </set>
      <set comment="kpoint 23">
       <r>   -4.6576    1.0000 </r>
       <r>    1.3441    1.0000 </r>
       <r>    3.5179    1.0000 </r>
       <r>    3.5179    1.0000 </r>
       <r>    6.5228    0.0000 </r>
       <r>    8.0614    0.0000 </r>
       <r>   12.3670    0.0000 </r>
       <r>   12.3670    0.0000 </r>
      </set>
      <set comment="kpoint 24">
       <r>   -4.0434    1.0000 </r>
       <r>    0.3384    1.0000 </r>
       <r>    2.8789    1.0000 </r>
       <r>    3.3130    1.0000 </r>
       <r>    6.7103    0.0000 </r>
       <r>    7.8973    0.0000 </r>
       <r>   12.6588    0.0000 </r>
       <r>   12.7800    0.0000 </r>
      </set>
      <set comment="kpoint 25">
       <r>   -3.2899    1.0000 </r>
       <r>   -0.6702    1.0000 </r>
       <r>    2.0368    1.0000 </r>
       <r>    3.3204    1.0000 </r>
       <r>    6.8823    0.0000 </r>
       <r>    9.0490    0.0000 </r>
       <r>   12.4700    0.0000 </r>
       <r>   12.5208    0.0000 </r>
      </set>
      <set comment="kpoint 26">
       <r>   -2.8658    1.0000 </r>
       <r>   -1.1504    1.0000 </r>
       <r>    1.4767    1.0000 </r>
       <r>    3.5376    1.0000 </r>
       <r>    7.1175    0.0000 </r>
       <r>   10.8535    0.0000 </r>
       <r>   12.1201    0.0000 </r>
       <r>   12.3100    0.0000 </r>
      </set>
      <set comment="kpoint 27">
       <r>   -3.4074    1.0000 </r>
       <r>   -0.5586    1.0000 </r>
       <r>    1.4493    1.0000 </r>
       <r>    3.9365    1.0000 </r>
       <r>    7.5702    0.0000 </r>
       <r>   11.4582    0.0000 </r>
       <r>   11.7196    0.0000 </r>
       <r>   12.5237    0.0000 </r>
      </set>
      <set comment="kpoint 28">
       <r>   -3.4928    1.0000 </r>
       <r>   -0.4181    1.0000 </r>
       <r>    3.0522    1.0000 </r>
       <r>    3.0522    1.0000 </r>
       <r>    6.2324    0.0000 </r>
       <r>    6.9541    0.0000 </r>
       <r>   14.2166    0.0000 </r>
       <r>   14.2166    0.0000 </r>
      </set>
      <set comment="kpoint 29">
       <r>   -2.7620    1.0000 </r>
       <r>   -1.2587    1.0000 </r>
       <r>    2.4512    1.0000 </r>
       <r>    3.0038    1.0000 </r>
       <r>    6.4645    0.0000 </r>
       <r>    7.2313    0.0000 </r>
       <r>   14.4558    0.0000 </r>
       <r>   14.5493    0.0000 </r>
      </set>
      <set comment="kpoint 30">
       <r>   -2.2808    1.0000 </r>
       <r>   -1.6814    1.0000 </r>
       <r>    1.6526    1.0000 </r>
       <r>    3.1720    1.0000 </r>
       <r>    6.6784    0.0000 </r>
       <r>    8.8216    0.0000 </r>
       <r>   13.8015    0.0000 </r>
       <r>   14.3707    0.0000 </r>
      </set>
      <set comment="kpoint 31">
       <r>   -2.0587    1.0000 </r>
       <r>   -2.0587    1.0000 </r>
       <r>    2.8945    1.0000 </r>
       <r>    2.8945    1.0000 </r>
       <r>    6.3557    0.0000 </r>
       <r>    6.3557    0.0000 </r>
       <r>   15.8006    0.0000 </r>
       <r>   15.8007    0.0000 </r>
      </set>
      <set comment="kpoint 32">
       <r>   -5.3469    1.0000 </r>
       <r>    2.3792    1.0000 </r>
       <r>    3.6550    1.0000 </r>
       <r>    4.7839    1.0000 </r>
       <r>    8.0377    0.0000 </r>
       <r>    9.4406    0.0000 </r>
       <r>   10.2659    0.0000 </r>
       <r>   10.3786    0.0000 </r>
      </set>
      <set comment="kpoint 33">
       <r>   -4.7339    1.0000 </r>
       <r>    0.9659    1.0000 </r>
       <r>    3.0638    1.0000 </r>
       <r>    4.4052    1.0000 </r>
       <r>    8.3861    0.0000 </r>
       <r>    9.3140    0.0000 </r>
       <r>   10.3850    0.0000 </r>
       <r>   10.8253    0.0000 </r>
      </set>
      <set comment="kpoint 34">
       <r>   -3.9834    1.0000 </r>
       <r>   -0.4039    1.0000 </r>
       <r>    2.8338    1.0000 </r>
       <r>    4.0519    1.0000 </r>
       <r>    8.4391    0.0000 </r>
       <r>    8.9655    0.0000 </r>
       <r>   10.7620    0.0000 </r>
       <r>   11.7301    0.0000 </r>
      </set>
      <set comment="kpoint 35">
       <r>   -3.5197    1.0000 </r>
       <r>   -1.0872    1.0000 </r>
       <r>    2.7747    1.0000 </r>
       <r>    3.9129    1.0000 </r>
       <r>    8.4736    0.0000 </r>
       <r>    8.7691    0.0000 </r>
       <r>   10.7194    0.0000 </r>
       <r>   13.4662    0.0000 </r>
      </set>
      <set comment="kpoint 36">
       <r>   -4.5072    1.0000 </r>
       <r>    0.9865    1.0000 </r>
       <r>    2.9249    1.0000 </r>
       <r>    3.6588    1.0000 </r>
       <r>    7.4536    0.0000 </r>
       <r>    8.7150    0.0000 </r>
       <r>   10.9076    0.0000 </r>
       <r>   12.2529    0.0000 </r>
      </set>
      <set comment="kpoint 37">
       <r>   -3.7844    1.0000 </r>
       <r>   -0.1178    1.0000 </r>
       <r>    2.3000    1.0000 </r>
       <r>    3.3250    1.0000 </r>
       <r>    7.8296    0.0000 </r>
       <r>    9.4229    0.0000 </r>
       <r>   10.5228    0.0000 </r>
       <r>   12.6417    0.0000 </r>
      </set>
      <set comment="kpoint 38">
       <r>   -3.1293    1.0000 </r>
       <r>   -0.9869    1.0000 </r>
       <r>    1.8884    1.0000 </r>
       <r>    3.2689    1.0000 </r>
       <r>    8.0101    0.0000 </r>
       <r>   10.0500    0.0000 </r>
       <r>   11.1928    0.0000 </r>
       <r>   12.5704    0.0000 </r>
      </set>
      <set comment="kpoint 39">
       <r>   -3.3321    1.0000 </r>
       <r>   -0.7255    1.0000 </r>
       <r>    1.7349    1.0000 </r>
       <r>    3.5113    1.0000 </r>
       <r>    8.3572    0.0000 </r>
       <r>    9.7958    0.0000 </r>
       <r>   11.6296    0.0000 </r>
       <r>   12.4235    0.0000 </r>
      </set>
      <set comment="kpoint 40">
       <r>   -4.0717    1.0000 </r>
       <r>    0.2280    1.0000 </r>
       <r>    2.0355    1.0000 </r>
       <r>    3.9563    1.0000 </r>
       <r>    8.8640    0.0000 </r>
       <r>    9.3488    0.0000 </r>
       <r>   10.3859    0.0000 </r>
       <r>   11.9615    0.0000 </r>
      </set>
      <set comment="kpoint 41">
       <r>   -3.3734    1.0000 </r>
       <r>   -0.5026    1.0000 </r>
       <r>    2.5128    1.0000 </r>
       <r>    2.8437    1.0000 </r>
       <r>    7.1516    0.0000 </r>
       <r>    7.7292    0.0000 </r>
       <r>   12.4520    0.0000 </r>
       <r>   14.2032    0.0000 </r>
      </set>
      <set comment="kpoint 42">
       <r>   -2.6314    1.0000 </r>
       <r>   -1.2779    1.0000 </r>
       <r>    1.7979    1.0000 </r>
       <r>    2.7511    1.0000 </r>
       <r>    7.4986    0.0000 </r>
       <r>    8.9514    0.0000 </r>
       <r>   12.0429    0.0000 </r>
       <r>   13.8250    0.0000 </r>
      </set>
      <set comment="kpoint 43">
       <r>   -2.6343    1.0000 </r>
       <r>   -1.2533    1.0000 </r>
       <r>    1.3759    1.0000 </r>
       <r>    3.0231    1.0000 </r>
       <r>    7.8297    0.0000 </r>
       <r>   10.7790    0.0000 </r>
       <r>   11.6544    0.0000 </r>
       <r>   11.9624    0.0000 </r>
      </set>
      <set comment="kpoint 44">
       <r>   -2.0041    1.0000 </r>
       <r>   -2.0041    1.0000 </r>
       <r>    2.4707    1.0000 </r>
       <r>    2.4707    1.0000 </r>
       <r>    7.2226    0.0000 </r>
       <r>    7.2226    0.0000 </r>
       <r>   14.1837    0.0000 </r>
       <r>   14.1837    0.0000 </r>
      </set>
      <set comment="kpoint 45">
       <r>   -3.0495    1.0000 </r>
       <r>   -0.8008    1.0000 </r>
       <r>    1.7387    1.0000 </r>
       <r>    2.7364    1.0000 </r>
       <r>    9.0743    0.0000 </r>
       <r>    9.4300    0.0000 </r>
       <r>   10.1284    0.0000 </r>
       <r>   13.4693    0.0000 </r>
      </set>
      <set comment="kpoint 46">
       <r>   -2.5352    1.0000 </r>
       <r>   -1.3112    1.0000 </r>
       <r>    1.5786    1.0000 </r>
       <r>    2.4819    1.0000 </r>
       <r>    9.3362    0.0000 </r>
       <r>    9.6736    0.0000 </r>
       <r>   11.0758    0.0000 </r>
       <r>   11.5323    0.0000 </r>
      </set>
      <set comment="kpoint 47">
       <r>   -1.9077    1.0000 </r>
       <r>   -1.9077    1.0000 </r>
       <r>    1.9444    1.0000 </r>
       <r>    1.9444    1.0000 </r>
       <r>    9.1020    0.0000 </r>
       <r>    9.1020    0.0000 </r>
       <r>   11.6134    0.0000 </r>
       <r>   11.6134    0.0000 </r>
      </set>
     </set>
    </set>
   </array>
  </eigenvalues>
  <separator name="orbital magnetization" >
   <v name="MAGDIPOLOUT">      0.00000000      0.00000000      0.00000000</v>
  </separator>
  <dos>
   <i name="efermi">      6.23221635 </i>
   <total>
    <array>
     <dimension dim="1">gridpoints</dimension>
     <dimension dim="2">spin</dimension>
     <field>energy</field>
     <field>total</field>
     <field>integrated</field>
     <set>
      <set comment="spin 1">
       <r>    -8.2090     0.0000     0.0000 </r>
       <r>    -8.1224     0.0000     0.0000 </r>
       <r>    -8.0357     0.0000     0.0000 </r>
       <r>    -7.9490     0.0000     0.0000 </r>
       <r>    -7.8623     0.0000     0.0000 </r>
       <r>    -7.7756     0.0000     0.0000 </r>
       <r>    -7.6889     0.0000     0.0000 </r>
       <r>    -7.6022     0.0000     0.0000 </r>
       <r>    -7.5155     0.0000     0.0000 </r>
       <r>    -7.4288     0.0000     0.0000 </r>
       <r>    -7.3421     0.0000     0.0000 </r>
       <r>    -7.2554     0.0000     0.0000 </r>
       <r>    -7.1687     0.0000     0.0000 </r>
       <r>    -7.0820     0.0000     0.0000 </r>
       <r>    -6.9953     0.0000     0.0000 </r>
       <r>    -6.9086     0.0000     0.0000 </r>
       <r>    -6.8219     0.0000     0.0000 </r>
       <r>    -6.7352     0.0000     0.0000 </r>
       <r>    -6.6485     0.0000     0.0000 </r>
       <r>    -6.5618     0.0000     0.0000 </r>
       <r>    -6.4751     0.0000     0.0000 </r>
       <r>    -6.3884     0.0000     0.0000 </r>
       <r>    -6.3017     0.0000     0.0000 </r>
       <r>    -6.2150     0.0000     0.0000 </r>
       <r>    -6.1283     0.0260     0.0007 </r>
       <r>    -6.0416     0.0587     0.0052 </r>
       <r>    -5.9549     0.0764     0.0111 </r>
       <r>    -5.8682     0.0968     0.0186 </r>
       <r>    -5.7815     0.1124     0.0277 </r>
       <r>    -5.6948     0.1184     0.0377 </r>
       <r>    -5.6081     0.1305     0.0485 </r>
       <r>    -5.5214     0.1430     0.0603 </r>
       <r>    -5.4347     0.1559     0.0733 </r>
       <r>    -5.3480     0.1648     0.0873 </r>
       <r>    -5.2613     0.1735     0.1020 </r>
       <r>    -5.1746     0.1821     0.1174 </r>
       <r>    -5.0879     0.1913     0.1335 </r>
       <r>    -5.0012     0.2017     0.1506 </r>
       <r>    -4.9145     0.2126     0.1685 </r>
       <r>    -4.8278     0.2236     0.1874 </r>
       <r>    -4.7411     0.2321     0.2072 </r>
       <r>    -4.6544     0.2418     0.2277 </r>
       <r>    -4.5677     0.2526     0.2492 </r>
       <r>    -4.4810     0.2640     0.2715 </r>
       <r>    -4.3943     0.2766     0.2950 </r>
       <r>    -4.3076     0.2912     0.3196 </r>
       <r>    -4.2209     0.3075     0.3455 </r>
       <r>    -4.1342     0.3254     0.3729 </r>
       <r>    -4.0475     0.3468     0.4020 </r>
       <r>    -3.9608     0.3791     0.4333 </r>
       <r>    -3.8741     0.4859     0.4701 </r>
       <r>    -3.7874     0.4285     0.5112 </r>
       <r>    -3.7007     0.4245     0.5482 </r>
       <r>    -3.6140     0.4215     0.5849 </r>
       <r>    -3.5273     0.3920     0.6204 </r>
       <r>    -3.4406     0.3813     0.6534 </r>
       <r>    -3.3539     0.3840     0.6867 </r>
       <r>    -3.2672     0.3692     0.7194 </r>
       <r>    -3.1805     0.3461     0.7505 </r>
       <r>    -3.0938     0.3234     0.7794 </r>
       <r>    -3.0071     0.3101     0.8068 </r>
       <r>    -2.9204     0.2986     0.8332 </r>
       <r>    -2.8337     0.2882     0.8586 </r>
       <r>    -2.7470     0.2757     0.8831 </r>
       <r>    -2.6603     0.2640     0.9065 </r>
       <r>    -2.5736     0.2654     0.9307 </r>
       <r>    -2.4869     0.2128     0.9513 </r>
       <r>    -2.4002     0.1671     0.9677 </r>
       <r>    -2.3135     0.1248     0.9804 </r>
       <r>    -2.2268     0.0862     0.9895 </r>
       <r>    -2.1401     0.0524     0.9954 </r>
       <r>    -2.0534     0.0234     0.9987 </r>
       <r>    -1.9667     0.0117     1.0000 </r>
       <r>    -1.8800     0.0241     1.0014 </r>
       <r>    -1.7933     0.0519     1.0046 </r>
       <r>    -1.7066     0.0841     1.0105 </r>
       <r>    -1.6199     0.1201     1.0193 </r>
       <r>    -1.5332     0.1591     1.0314 </r>
       <r>    -1.4465     0.2010     1.0470 </r>
       <r>    -1.3598     0.2459     1.0663 </r>
       <r>    -1.2731     0.3111     1.0901 </r>
       <r>    -1.1864     0.3514     1.1182 </r>
       <r>    -1.0997     0.4256     1.1514 </r>
       <r>    -1.0130     0.7929     1.2056 </r>
       <r>    -0.9263     0.7848     1.2808 </r>
       <r>    -0.8396     0.5773     1.3391 </r>
       <r>    -0.7529     0.4572     1.3835 </r>
       <r>    -0.6662     0.3945     1.4200 </r>
       <r>    -0.5795     0.3578     1.4525 </r>
       <r>    -0.4928     0.3331     1.4824 </r>
       <r>    -0.4061     0.3125     1.5104 </r>
       <r>    -0.3194     0.2940     1.5367 </r>
       <r>    -0.2327     0.2763     1.5614 </r>
       <r>    -0.1460     0.2593     1.5846 </r>
       <r>    -0.0593     0.2431     1.6064 </r>
       <r>     0.0274     0.2284     1.6268 </r>
       <r>     0.1141     0.2090     1.6458 </r>
       <r>     0.2008     0.1964     1.6633 </r>
       <r>     0.2875     0.1894     1.6800 </r>
       <r>     0.3742     0.1830     1.6961 </r>
       <r>     0.4609     0.1765     1.7117 </r>
       <r>     0.5476     0.1699     1.7267 </r>
       <r>     0.6343     0.1634     1.7412 </r>
       <r>     0.7210     0.1568     1.7551 </r>
       <r>     0.8077     0.1502     1.7684 </r>
       <r>     0.8944     0.1436     1.7811 </r>
       <r>     0.9811     0.1292     1.7932 </r>
       <r>     1.0678     0.1209     1.8040 </r>
       <r>     1.1545     0.1147     1.8142 </r>
       <r>     1.2412     0.1103     1.8240 </r>
       <r>     1.3279     0.1071     1.8334 </r>
       <r>     1.4146     0.1635     1.8433 </r>
       <r>     1.5013     0.3430     1.8687 </r>
       <r>     1.5880     0.4864     1.9045 </r>
       <r>     1.6747     0.6157     1.9523 </r>
       <r>     1.7614     0.7197     2.0108 </r>
       <r>     1.8480     0.6072     2.0707 </r>
       <r>     1.9347     0.5064     2.1177 </r>
       <r>     2.0214     0.4981     2.1612 </r>
       <r>     2.1081     0.4952     2.2042 </r>
       <r>     2.1948     0.4959     2.2471 </r>
       <r>     2.2815     0.5044     2.2904 </r>
       <r>     2.3682     0.5129     2.3345 </r>
       <r>     2.4549     0.6068     2.3797 </r>
       <r>     2.5416     0.5614     2.4320 </r>
       <r>     2.6283     0.5884     2.4817 </r>
       <r>     2.7150     0.6311     2.5345 </r>
       <r>     2.8017     0.6960     2.5946 </r>
       <r>     2.8884     0.7186     2.6554 </r>
       <r>     2.9751     0.8084     2.7207 </r>
       <r>     3.0618     0.7444     2.7897 </r>
       <r>     3.1485     0.7313     2.8536 </r>
       <r>     3.2352     0.7171     2.9164 </r>
       <r>     3.3219     0.7125     2.9781 </r>
       <r>     3.4086     0.7078     3.0397 </r>
       <r>     3.4953     0.6969     3.1007 </r>
       <r>     3.5820     0.6829     3.1605 </r>
       <r>     3.6687     0.6686     3.2190 </r>
       <r>     3.7554     0.6629     3.2768 </r>
       <r>     3.8421     0.6506     3.3336 </r>
       <r>     3.9288     0.6528     3.3900 </r>
       <r>     4.0155     0.6542     3.4467 </r>
       <r>     4.1022     0.6418     3.5030 </r>
       <r>     4.1889     0.6241     3.5579 </r>
       <r>     4.2756     0.6036     3.6112 </r>
       <r>     4.3623     0.5999     3.6631 </r>
       <r>     4.4490     0.5800     3.7145 </r>
       <r>     4.5357     0.5178     3.7625 </r>
       <r>     4.6224     0.4034     3.8019 </r>
       <r>     4.7091     0.3668     3.8352 </r>
       <r>     4.7958     0.3200     3.8652 </r>
       <r>     4.8825     0.2720     3.8906 </r>
       <r>     4.9692     0.2370     3.9127 </r>
       <r>     5.0559     0.2047     3.9318 </r>
       <r>     5.1426     0.1755     3.9482 </r>
       <r>     5.2293     0.1484     3.9623 </r>
       <r>     5.3160     0.1208     3.9739 </r>
       <r>     5.4027     0.0990     3.9834 </r>
       <r>     5.4894     0.0836     3.9913 </r>
       <r>     5.5761     0.0405     3.9978 </r>
       <r>     5.6628     0.0100     3.9997 </r>
       <r>     5.7495     0.0001     4.0000 </r>
       <r>     5.8362     0.0000     4.0000 </r>
       <r>     5.9229     0.0000     4.0000 </r>
       <r>     6.0096     0.0000     4.0000 </r>
       <r>     6.0963     0.0000     4.0000 </r>
       <r>     6.1830     0.0000     4.0000 </r>
       <r>     6.2697     0.0035     4.0000 </r>
       <r>     6.3564     0.0388     4.0016 </r>
       <r>     6.4431     0.0675     4.0066 </r>
       <r>     6.5298     0.0892     4.0131 </r>
       <r>     6.6165     0.1186     4.0221 </r>
       <r>     6.7032     0.1451     4.0336 </r>
       <r>     6.7899     0.1738     4.0474 </r>
       <r>     6.8766     0.2010     4.0637 </r>
       <r>     6.9633     0.2284     4.0823 </r>
       <r>     7.0500     0.2595     4.1034 </r>
       <r>     7.1367     0.2949     4.1274 </r>
       <r>     7.2234     0.3345     4.1546 </r>
       <r>     7.3101     0.3715     4.1854 </r>
       <r>     7.3968     0.4030     4.2190 </r>
       <r>     7.4835     0.4324     4.2552 </r>
       <r>     7.5702     0.4798     4.2946 </r>
       <r>     7.6569     0.5405     4.3387 </r>
       <r>     7.7436     0.6126     4.3886 </r>
       <r>     7.8303     0.7088     4.4457 </r>
       <r>     7.9170     0.7985     4.5113 </r>
       <r>     8.0037     0.9223     4.5860 </r>
       <r>     8.0904     1.0105     4.6706 </r>
       <r>     8.1771     1.0316     4.7593 </r>
       <r>     8.2638     0.9970     4.8477 </r>
       <r>     8.3505     0.8486     4.9273 </r>
       <r>     8.4372     0.6076     4.9921 </r>
       <r>     8.5239     0.4161     5.0347 </r>
[...]
       </set>
       <set comment="band 5">
        <r>  0.0394  0.0211  0.0386  0.0159  0.0000  0.0000  0.0000  0.0000  0.0000 </r>
        <r>  0.0394  0.0211  0.0386  0.0159  0.0000  0.0000  0.0000  0.0000  0.0000 </r>
       </set>
       <set comment="band 6">
        <r>  0.0251  0.0390  0.0157  0.0176  0.0000  0.0000  0.0000  0.0000  0.0000 </r>
        <r>  0.0251  0.0390  0.0157  0.0176  0.0000  0.0000  0.0000  0.0000  0.0000 </r>
       </set>
       <set comment="band 7">
        <r>  0.0482  0.0414  0.0227  0.0464  0.0000  0.0000  0.0000  0.0000  0.0000 </r>
        <r>  0.0482  0.0414  0.0227  0.0464  0.0000  0.0000  0.0000  0.0000  0.0000 </r>
       </set>
       <set comment="band 8">
        <r>  0.0131  0.0468  0.0189  0.0725  0.0000  0.0000  0.0000  0.0000  0.0000 </r>
        <r>  0.0131  0.0468  0.0189  0.0725  0.0000  0.0000  0.0000  0.0000  0.0000 </r>
       </set>
      </set>
      <set comment="kpoint 38">
       <set comment="band 1">
        <r>  0.2152  0.0024  0.0169  0.0063  0.0000  0.0000  0.0000  0.0000  0.0000 </r>
        <r>  0.2152  0.0024  0.0169  0.0063  0.0000  0.0000  0.0000  0.0000  0.0000 </r>
       </set>
       <set comment="band 2">
        <r>  0.1553  0.0146  0.0317  0.0253  0.0000  0.0000  0.0000  0.0000  0.0000 </r>
        <r>  0.1553  0.0146  0.0317  0.0253  0.0000  0.0000  0.0000  0.0000  0.0000 </r>
       </set>
       <set comment="band 3">
        <r>  0.0263  0.0407  0.0580  0.0494  0.0000  0.0000  0.0000  0.0000  0.0000 </r>
        <r>  0.0263  0.0407  0.0580  0.0494  0.0000  0.0000  0.0000  0.0000  0.0000 </r>
       </set>
       <set comment="band 4">
        <r>  0.0013  0.0958  0.0211  0.0691  0.0000  0.0000  0.0000  0.0000  0.0000 </r>
        <r>  0.0013  0.0958  0.0211  0.0691  0.0000  0.0000  0.0000  0.0000  0.0000 </r>
       </set>
       <set comment="band 5">
        <r>  0.0426  0.0246  0.0347  0.0097  0.0000  0.0000  0.0000  0.0000  0.0000 </r>
        <r>  0.0426  0.0246  0.0347  0.0097  0.0000  0.0000  0.0000  0.0000  0.0000 </r>
       </set>
       <set comment="band 6">
        <r>  0.0287  0.0556  0.0157  0.0231  0.0000  0.0000  0.0000  0.0000  0.0000 </r>
        <r>  0.0287  0.0556  0.0157  0.0231  0.0000  0.0000  0.0000  0.0000  0.0000 </r>
       </set>
       <set comment="band 7">
        <r>  0.0320  0.0271  0.0208  0.0489  0.0000  0.0000  0.0000  0.0000  0.0000 </r>
        <r>  0.0320  0.0272  0.0208  0.0489  0.0000  0.0000  0.0000  0.0000  0.0000 </r>
       </set>
       <set comment="band 8">
        <r>  0.0231  0.0456  0.0335  0.0532  0.0000  0.0000  0.0000  0.0000  0.0000 </r>
        <r>  0.0232  0.0456  0.0334  0.0532  0.0000  0.0000  0.0000  0.0000  0.0000 </r>
       </set>
      </set>
      <set comment="kpoint 39">
       <set comment="band 1">
        <r>  0.2130  0.0045  0.0063  0.0139  0.0000  0.0000  0.0000  0.0000  0.0000 </r>
        <r>  0.2130  0.0045  0.0063  0.0139  0.0000  0.0000  0.0000  0.0000  0.0000 </r>
       </set>
       <set comment="band 2">
        <r>  0.1586  0.0132  0.0364  0.0229  0.0000  0.0000  0.0000  0.0000  0.0000 </r>
        <r>  0.1586  0.0132  0.0364  0.0229  0.0000  0.0000  0.0000  0.0000  0.0000 </r>
       </set>
       <set comment="band 3">
        <r>  0.0210  0.0422  0.0704  0.0356  0.0000  0.0000  0.0000  0.0000  0.0000 </r>
        <r>  0.0210  0.0422  0.0704  0.0356  0.0000  0.0000  0.0000  0.0000  0.0000 </r>
       </set>
       <set comment="band 4">
        <r>  0.0032  0.0942  0.0159  0.0780  0.0000  0.0000  0.0000  0.0000  0.0000 </r>
        <r>  0.0032  0.0942  0.0159  0.0780  0.0000  0.0000  0.0000  0.0000  0.0000 </r>
       </set>
       <set comment="band 5">
        <r>  0.0444  0.0295  0.0368  0.0065  0.0000  0.0000  0.0000  0.0000  0.0000 </r>
        <r>  0.0444  0.0295  0.0368  0.0065  0.0000  0.0000  0.0000  0.0000  0.0000 </r>
       </set>
       <set comment="band 6">
        <r>  0.0311  0.0420  0.0256  0.0300  0.0000  0.0000  0.0000  0.0000  0.0000 </r>
        <r>  0.0311  0.0420  0.0256  0.0300  0.0000  0.0000  0.0000  0.0000  0.0000 </r>
       </set>
       <set comment="band 7">
        <r>  0.0320  0.0483  0.0274  0.0210  0.0000  0.0000  0.0000  0.0000  0.0000 </r>
        <r>  0.0319  0.0484  0.0275  0.0211  0.0000  0.0000  0.0000  0.0000  0.0000 </r>
       </set>
       <set comment="band 8">
        <r>  0.0113  0.0213  0.0439  0.0427  0.0000  0.0000  0.0000  0.0000  0.0000 </r>
        <r>  0.0117  0.0210  0.0437  0.0419  0.0000  0.0000  0.0000  0.0000  0.0000 </r>
       </set>
      </set>
      <set comment="kpoint 40">
       <set comment="band 1">
        <r>  0.2080  0.0047  0.0021  0.0137  0.0000  0.0000  0.0000  0.0000  0.0000 </r>
        <r>  0.2080  0.0047  0.0021  0.0137  0.0000  0.0000  0.0000  0.0000  0.0000 </r>
       </set>
       <set comment="band 2">
        <r>  0.1604  0.0143  0.0351  0.0314  0.0000  0.0000  0.0000  0.0000  0.0000 </r>
        <r>  0.1604  0.0143  0.0351  0.0314  0.0000  0.0000  0.0000  0.0000  0.0000 </r>
       </set>
       <set comment="band 3">
        <r>  0.0133  0.0453  0.0814  0.0275  0.0000  0.0000  0.0000  0.0000  0.0000 </r>
        <r>  0.0133  0.0453  0.0814  0.0275  0.0000  0.0000  0.0000  0.0000  0.0000 </r>
       </set>
       <set comment="band 4">
        <r>  0.0049  0.0978  0.0160  0.0799  0.0000  0.0000  0.0000  0.0000  0.0000 </r>
        <r>  0.0049  0.0978  0.0160  0.0799  0.0000  0.0000  0.0000  0.0000  0.0000 </r>
       </set>
       <set comment="band 5">
        <r>  0.0486  0.0318  0.0461  0.0054  0.0000  0.0000  0.0000  0.0000  0.0000 </r>
        <r>  0.0486  0.0318  0.0461  0.0054  0.0000  0.0000  0.0000  0.0000  0.0000 </r>
       </set>
       <set comment="band 6">
        <r>  0.0223  0.0374  0.0342  0.0425  0.0000  0.0000  0.0000  0.0000  0.0000 </r>
        <r>  0.0223  0.0374  0.0342  0.0425  0.0000  0.0000  0.0000  0.0000  0.0000 </r>
       </set>
       <set comment="band 7">
        <r>  0.0465  0.0287  0.0186  0.0186  0.0000  0.0000  0.0000  0.0000  0.0000 </r>
        <r>  0.0465  0.0287  0.0186  0.0186  0.0000  0.0000  0.0000  0.0000  0.0000 </r>
       </set>
       <set comment="band 8">
        <r>  0.0098  0.0431  0.0737  0.0218  0.0000  0.0000  0.0000  0.0000  0.0000 </r>
        <r>  0.0098  0.0431  0.0737  0.0218  0.0000  0.0000  0.0000  0.0000  0.0000 </r>
       </set>
      </set>
      <set comment="kpoint 41">
       <set comment="band 1">
        <r>  0.2019  0.0006  0.0279  0.0011  0.0000  0.0000  0.0000  0.0000  0.0000 </r>
        <r>  0.2019  0.0006  0.0279  0.0011  0.0000  0.0000  0.0000  0.0000  0.0000 </r>
       </set>
       <set comment="band 2">
        <r>  0.1867  0.0009  0.0543  0.0076  0.0000  0.0000  0.0000  0.0000  0.0000 </r>
        <r>  0.1867  0.0009  0.0543  0.0076  0.0000  0.0000  0.0000  0.0000  0.0000 </r>
       </set>
       <set comment="band 3">
        <r>  0.0071  0.0707  0.0113  0.0902  0.0000  0.0000  0.0000  0.0000  0.0000 </r>
        <r>  0.0071  0.0707  0.0113  0.0902  0.0000  0.0000  0.0000  0.0000  0.0000 </r>
       </set>
       <set comment="band 4">
        <r>  0.0000  0.0953  0.0174  0.0699  0.0000  0.0000  0.0000  0.0000  0.0000 </r>
        <r>  0.0000  0.0953  0.0174  0.0699  0.0000  0.0000  0.0000  0.0000  0.0000 </r>
       </set>
       <set comment="band 5">
        <r>  0.0423  0.0199  0.0358  0.0165  0.0000  0.0000  0.0000  0.0000  0.0000 </r>
        <r>  0.0423  0.0199  0.0358  0.0165  0.0000  0.0000  0.0000  0.0000  0.0000 </r>
       </set>
       <set comment="band 6">
        <r>  0.0411  0.0172  0.0223  0.0088  0.0000  0.0000  0.0000  0.0000  0.0000 </r>
        <r>  0.0411  0.0172  0.0223  0.0088  0.0000  0.0000  0.0000  0.0000  0.0000 </r>
       </set>
       <set comment="band 7">
        <r>  0.0261  0.0660  0.0204  0.0393  0.0000  0.0000  0.0000  0.0000  0.0000 </r>
        <r>  0.0261  0.0660  0.0204  0.0393  0.0000  0.0000  0.0000  0.0000  0.0000 </r>
       </set>
       <set comment="band 8">
        <r>  0.0014  0.0581  0.0040  0.1038  0.0000  0.0000  0.0000  0.0000  0.0000 </r>
        <r>  0.0014  0.0581  0.0040  0.1038  0.0000  0.0000  0.0000  0.0000  0.0000 </r>
       </set>
      </set>
      <set comment="kpoint 42">
       <set comment="band 1">
        <r>  0.2056  0.0009  0.0292  0.0046  0.0000  0.0000  0.0000  0.0000  0.0000 </r>
        <r>  0.2056  0.0009  0.0292  0.0046  0.0000  0.0000  0.0000  0.0000  0.0000 </r>
       </set>
       <set comment="band 2">
        <r>  0.1914  0.0022  0.0403  0.0111  0.0000  0.0000  0.0000  0.0000  0.0000 </r>
        <r>  0.1914  0.0022  0.0403  0.0111  0.0000  0.0000  0.0000  0.0000  0.0000 </r>
       </set>
       <set comment="band 3">
        <r>  0.0036  0.0636  0.0331  0.0615  0.0000  0.0000  0.0000  0.0000  0.0000 </r>
        <r>  0.0036  0.0636  0.0331  0.0615  0.0000  0.0000  0.0000  0.0000  0.0000 </r>
       </set>
       <set comment="band 4">
        <r>  0.0023  0.0861  0.0139  0.0790  0.0000  0.0000  0.0000  0.0000  0.0000 </r>
        <r>  0.0023  0.0861  0.0139  0.0790  0.0000  0.0000  0.0000  0.0000  0.0000 </r>
       </set>
       <set comment="band 5">
        <r>  0.0425  0.0232  0.0290  0.0104  0.0000  0.0000  0.0000  0.0000  0.0000 </r>
        <r>  0.0425  0.0232  0.0290  0.0104  0.0000  0.0000  0.0000  0.0000  0.0000 </r>
       </set>
       <set comment="band 6">
        <r>  0.0293  0.0391  0.0167  0.0244  0.0000  0.0000  0.0000  0.0000  0.0000 </r>
        <r>  0.0293  0.0391  0.0167  0.0244  0.0000  0.0000  0.0000  0.0000  0.0000 </r>
       </set>
       <set comment="band 7">
        <r>  0.0306  0.0512  0.0285  0.0350  0.0000  0.0000  0.0000  0.0000  0.0000 </r>
        <r>  0.0306  0.0512  0.0285  0.0350  0.0000  0.0000  0.0000  0.0000  0.0000 </r>
       </set>
       <set comment="band 8">
        <r>  0.0206  0.0636  0.0300  0.0413  0.0000  0.0000  0.0000  0.0000  0.0000 </r>
        <r>  0.0207  0.0636  0.0299  0.0413  0.0000  0.0000  0.0000  0.0000  0.0000 </r>
       </set>
      </set>
      <set comment="kpoint 43">
       <set comment="band 1">
        <r>  0.2137  0.0030  0.0156  0.0125  0.0000  0.0000  0.0000  0.0000  0.0000 </r>
        <r>  0.2137  0.0030  0.0156  0.0125  0.0000  0.0000  0.0000  0.0000  0.0000 </r>
       </set>
       <set comment="band 2">
        <r>  0.1845  0.0042  0.0394  0.0132  0.0000  0.0000  0.0000  0.0000  0.0000 </r>
        <r>  0.1845  0.0042  0.0394  0.0132  0.0000  0.0000  0.0000  0.0000  0.0000 </r>
       </set>
       <set comment="band 3">
        <r>  0.0016  0.0548  0.0534  0.0440  0.0000  0.0000  0.0000  0.0000  0.0000 </r>
        <r>  0.0016  0.0548  0.0534  0.0440  0.0000  0.0000  0.0000  0.0000  0.0000 </r>
       </set>
       <set comment="band 4">
        <r>  0.0033  0.0867  0.0128  0.0818  0.0000  0.0000  0.0000  0.0000  0.0000 </r>
        <r>  0.0033  0.0867  0.0128  0.0818  0.0000  0.0000  0.0000  0.0000  0.0000 </r>
       </set>
       <set comment="band 5">
        <r>  0.0428  0.0274  0.0305  0.0074  0.0000  0.0000  0.0000  0.0000  0.0000 </r>
        <r>  0.0428  0.0274  0.0305  0.0074  0.0000  0.0000  0.0000  0.0000  0.0000 </r>
       </set>
       <set comment="band 6">
        <r>  0.0049  0.0754  0.0007  0.0093  0.0000  0.0000  0.0000  0.0000  0.0000 </r>
        <r>  0.0049  0.0754  0.0007  0.0093  0.0000  0.0000  0.0000  0.0000  0.0000 </r>
       </set>
       <set comment="band 7">
        <r>  0.0375  0.0123  0.0487  0.0688  0.0000  0.0000  0.0000  0.0000  0.0000 </r>
        <r>  0.0375  0.0123  0.0487  0.0688  0.0000  0.0000  0.0000  0.0000  0.0000 </r>
       </set>
       <set comment="band 8">
        <r>  0.0370  0.0463  0.0276  0.0203  0.0000  0.0000  0.0000  0.0000  0.0000 </r>
        <r>  0.0370  0.0464  0.0276  0.0203  0.0000  0.0000  0.0000  0.0000  0.0000 </r>
       </set>
      </set>
      <set comment="kpoint 44">
       <set comment="band 1">
        <r>  0.1779  0.0000  0.0454  0.0032  0.0000  0.0000  0.0000  0.0000  0.0000 </r>
        <r>  0.2155  0.0000  0.0375  0.0026  0.0000  0.0000  0.0000  0.0000  0.0000 </r>
       </set>
       <set comment="band 2">
        <r>  0.2155  0.0000  0.0375  0.0026  0.0000  0.0000  0.0000  0.0000  0.0000 </r>
        <r>  0.1779  0.0000  0.0454  0.0032  0.0000  0.0000  0.0000  0.0000  0.0000 </r>
       </set>
       <set comment="band 3">
        <r>  0.0034  0.0980  0.0095  0.0662  0.0000  0.0000  0.0000  0.0000  0.0000 </r>
        <r>  0.0023  0.0669  0.0140  0.0970  0.0000  0.0000  0.0000  0.0000  0.0000 </r>
       </set>
       <set comment="band 4">
        <r>  0.0023  0.0669  0.0140  0.0970  0.0000  0.0000  0.0000  0.0000  0.0000 </r>
        <r>  0.0034  0.0980  0.0095  0.0662  0.0000  0.0000  0.0000  0.0000  0.0000 </r>
       </set>
       <set comment="band 5">
        <r>  0.0424  0.0192  0.0269  0.0128  0.0000  0.0000  0.0000  0.0000  0.0000 </r>
        <r>  0.0440  0.0199  0.0259  0.0123  0.0000  0.0000  0.0000  0.0000  0.0000 </r>
       </set>
       <set comment="band 6">
        <r>  0.0440  0.0199  0.0259  0.0123  0.0000  0.0000  0.0000  0.0000  0.0000 </r>
        <r>  0.0424  0.0192  0.0269  0.0128  0.0000  0.0000  0.0000  0.0000  0.0000 </r>
       </set>
       <set comment="band 7">
        <r>  0.0280  0.1151  0.0092  0.0145  0.0000  0.0000  0.0000  0.0000  0.0000 </r>
        <r>  0.0063  0.0259  0.0408  0.0644  0.0000  0.0000  0.0000  0.0000  0.0000 </r>
       </set>
       <set comment="band 8">
        <r>  0.0063  0.0259  0.0407  0.0644  0.0000  0.0000  0.0000  0.0000  0.0000 </r>
        <r>  0.0280  0.1151  0.0092  0.0144  0.0000  0.0000  0.0000  0.0000  0.0000 </r>
       </set>
      </set>
      <set comment="kpoint 45">
       <set comment="band 1">
        <r>  0.2078  0.0021  0.0223  0.0055  0.0000  0.0000  0.0000  0.0000  0.0000 </r>
        <r>  0.2078  0.0021  0.0223  0.0055  0.0000  0.0000  0.0000  0.0000  0.0000 </r>
       </set>
       <set comment="band 2">
        <r>  0.1872  0.0032  0.0316  0.0254  0.0000  0.0000  0.0000  0.0000  0.0000 </r>
        <r>  0.1872  0.0032  0.0316  0.0254  0.0000  0.0000  0.0000  0.0000  0.0000 </r>
       </set>
       <set comment="band 3">
        <r>  0.0075  0.0569  0.0265  0.0715  0.0000  0.0000  0.0000  0.0000  0.0000 </r>
        <r>  0.0075  0.0569  0.0265  0.0715  0.0000  0.0000  0.0000  0.0000  0.0000 </r>
       </set>
       <set comment="band 4">
        <r>  0.0017  0.0827  0.0510  0.0383  0.0000  0.0000  0.0000  0.0000  0.0000 </r>
        <r>  0.0017  0.0827  0.0510  0.0383  0.0000  0.0000  0.0000  0.0000  0.0000 </r>
       </set>
       <set comment="band 5">
        <r>  0.0273  0.0429  0.0268  0.0272  0.0000  0.0000  0.0000  0.0000  0.0000 </r>
        <r>  0.0273  0.0429  0.0268  0.0272  0.0000  0.0000  0.0000  0.0000  0.0000 </r>
       </set>
       <set comment="band 6">
        <r>  0.0074  0.0687  0.0035  0.0022  0.0000  0.0000  0.0000  0.0000  0.0000 </r>
        <r>  0.0074  0.0687  0.0035  0.0022  0.0000  0.0000  0.0000  0.0000  0.0000 </r>
       </set>
       <set comment="band 7">
        <r>  0.0679  0.0115  0.0336  0.0504  0.0000  0.0000  0.0000  0.0000  0.0000 </r>
        <r>  0.0679  0.0115  0.0336  0.0504  0.0000  0.0000  0.0000  0.0000  0.0000 </r>
       </set>
       <set comment="band 8">
        <r>  0.0187  0.0382  0.0507  0.0216  0.0000  0.0000  0.0000  0.0000  0.0000 </r>
        <r>  0.0187  0.0382  0.0507  0.0216  0.0000  0.0000  0.0000  0.0000  0.0000 </r>
       </set>
      </set>
      <set comment="kpoint 46">
       <set comment="band 1">
        <r>  0.2123  0.0010  0.0158  0.0158  0.0000  0.0000  0.0000  0.0000  0.0000 </r>
        <r>  0.2123  0.0010  0.0158  0.0158  0.0000  0.0000  0.0000  0.0000  0.0000 </r>
       </set>
       <set comment="band 2">
        <r>  0.1886  0.0032  0.0258  0.0258  0.0000  0.0000  0.0000  0.0000  0.0000 </r>
        <r>  0.1886  0.0032  0.0258  0.0258  0.0000  0.0000  0.0000  0.0000  0.0000 </r>
       </set>
       <set comment="band 3">
        <r>  0.0058  0.0568  0.0482  0.0482  0.0000  0.0000  0.0000  0.0000  0.0000 </r>
        <r>  0.0058  0.0568  0.0482  0.0482  0.0000  0.0000  0.0000  0.0000  0.0000 </r>
       </set>
       <set comment="band 4">
        <r>  0.0010  0.0789  0.0447  0.0447  0.0000  0.0000  0.0000  0.0000  0.0000 </r>
        <r>  0.0010  0.0789  0.0447  0.0447  0.0000  0.0000  0.0000  0.0000  0.0000 </r>
       </set>
       <set comment="band 5">
        <r>  0.0065  0.0726  0.0070  0.0070  0.0000  0.0000  0.0000  0.0000  0.0000 </r>
        <r>  0.0065  0.0726  0.0070  0.0070  0.0000  0.0000  0.0000  0.0000  0.0000 </r>
       </set>
       <set comment="band 6">
        <r>  0.0471  0.0328  0.0291  0.0291  0.0000  0.0000  0.0000  0.0000  0.0000 </r>
        <r>  0.0471  0.0328  0.0291  0.0291  0.0000  0.0000  0.0000  0.0000  0.0000 </r>
       </set>
       <set comment="band 7">
        <r>  0.0256  0.0543  0.0171  0.0171  0.0000  0.0000  0.0000  0.0000  0.0000 </r>
        <r>  0.0256  0.0543  0.0171  0.0171  0.0000  0.0000  0.0000  0.0000  0.0000 </r>
       </set>
       <set comment="band 8">
        <r>  0.0439  0.0093  0.0522  0.0521  0.0000  0.0000  0.0000  0.0000  0.0000 </r>
        <r>  0.0439  0.0093  0.0522  0.0521  0.0000  0.0000  0.0000  0.0000  0.0000 </r>
       </set>
      </set>
      <set comment="kpoint 47">
       <set comment="band 1">
        <r>  0.0878  0.0000  0.0460  0.0206  0.0000  0.0000  0.0000  0.0000  0.0000 </r>
        <r>  0.3198  0.0000  0.0126  0.0057  0.0000  0.0000  0.0000  0.0000  0.0000 </r>
       </set>
       <set comment="band 2">
        <r>  0.3198  0.0000  0.0126  0.0057  0.0000  0.0000  0.0000  0.0000  0.0000 </r>
        <r>  0.0878  0.0000  0.0460  0.0206  0.0000  0.0000  0.0000  0.0000  0.0000 </r>
       </set>
       <set comment="band 3">
        <r>  0.0008  0.0682  0.0339  0.0593  0.0000  0.0000  0.0000  0.0000  0.0000 </r>
        <r>  0.0009  0.0715  0.0323  0.0566  0.0000  0.0000  0.0000  0.0000  0.0000 </r>
       </set>
       <set comment="band 4">
        <r>  0.0009  0.0715  0.0323  0.0566  0.0000  0.0000  0.0000  0.0000  0.0000 </r>
        <r>  0.0008  0.0682  0.0339  0.0593  0.0000  0.0000  0.0000  0.0000  0.0000 </r>
       </set>
       <set comment="band 5">
        <r>  0.0129  0.0240  0.0242  0.0279  0.0000  0.0000  0.0000  0.0000  0.0000 </r>
        <r>  0.0398  0.0739  0.0079  0.0091  0.0000  0.0000  0.0000  0.0000  0.0000 </r>
       </set>
       <set comment="band 6">
        <r>  0.0398  0.0739  0.0079  0.0091  0.0000  0.0000  0.0000  0.0000  0.0000 </r>
        <r>  0.0129  0.0240  0.0242  0.0279  0.0000  0.0000  0.0000  0.0000  0.0000 </r>
       </set>
       <set comment="band 7">
        <r>  0.0392  0.0421  0.0329  0.0283  0.0000  0.0000  0.0000  0.0000  0.0000 </r>
        <r>  0.0316  0.0340  0.0407  0.0350  0.0000  0.0000  0.0000  0.0000  0.0000 </r>
       </set>
       <set comment="band 8">
        <r>  0.0316  0.0340  0.0407  0.0350  0.0000  0.0000  0.0000  0.0000  0.0000 </r>
        <r>  0.0392  0.0421  0.0329  0.0283  0.0000  0.0000  0.0000  0.0000  0.0000 </r>
       </set>
      </set>
     </set>
    </set>
   </array>
  </projected>
 </calculation>
 <structure name="finalpos" >
  <crystal>
   <varray name="basis" >
    <v>       0.00000000       2.71799987       2.71799987 </v>
    <v>       2.71799987       0.00000000       2.71799987 </v>
    <v>       2.71799987       2.71799987       0.00000000 </v>
   </varray>
   <i name="volume">     40.15857470 </i>
   <varray name="rec_basis" >
    <v>      -0.18395880       0.18395880       0.18395880 </v>
    <v>       0.18395880      -0.18395880       0.18395880 </v>
    <v>       0.18395880       0.18395880      -0.18395880 </v>
   </varray>
  </crystal>
  <varray name="positions" >
   <v>       0.00000000       0.00000000       0.00000000 </v>
   <v>       0.25000000       0.25000000       0.25000000 </v>
  </varray>
 </structure>
</modeling>
