 vasp.6.2.1 16May21 (build Oct 27 2021 18:14:32) complex

 executed on             LinuxIFC date 2021.11.23  17:36:16
 running on    4 total cores
 distrk:  each k-point on    4 cores,    1 groups
 distr:  one band on NCORE=   4 cores,    1 groups


--------------------------------------------------------------------------------------------------------


 INCAR:
   ALGO = Normal
   EDIFF = 1e-05
   EDIFFG = -0.02
   ENAUG = 1360.0
   ENCUT = 680.0
   IBRION = -1
   ICHARG = 11
   ISIF = 3
   ISMEAR = -5
   ISPIN = 1
   ISYM = 2
   LAECHG = True
   LASPH = True
   LCHARG = False
   LELF = True
   LMIXTAU = True
   LORBIT = 11
   LREAL = Auto
   LVTOT = True
   LWAVE = False
   NBANDS = 10
   NCORE = 4
   NEDOS = 4352
   NELM = 200
   NSW = 0
   PREC = Accurate
   SIGMA = 0.05

 POTCAR:    PAW_PBE Si 05Jan2001
 WARNING: For LVTOT=.TRUE., VASP.5.x writes the TOTAL local potential to the
     file LOCPOT. If you want only the Hartree contributions, use LVHAR=.TRUE.
     instead.

 POTCAR:    PAW_PBE Si 05Jan2001
   VRHFIN =Si: s2p2
   LEXCH  = PE
   EATOM  =   103.0669 eV,    7.5752 Ry

   TITEL  = PAW_PBE Si 05Jan2001
   LULTRA =        F    use ultrasoft PP ?
   IUNSCR =        1    unscreen: 0-lin 1-nonlin 2-no
   RPACOR =    1.500    partial core radius
   POMASS =   28.085; ZVAL   =    4.000    mass and valenz
   RCORE  =    1.900    outmost cutoff radius
   RWIGS  =    2.480; RWIGS  =    1.312    wigner-seitz radius (au A)
   ENMAX  =  245.345; ENMIN  =  184.009 eV
   ICORE  =        2    local potential
   LCOR   =        T    correct aug charges
   LPAW   =        T    paw PP
   EAUG   =  322.069
   DEXC   =    0.000
   RMAX   =    1.950    core radius for proj-oper
   RAUG   =    1.300    factor for augmentation sphere
   RDEP   =    1.993    radius for radial grids
   RDEPT  =    1.837    core radius for aug-charge

   Atomic configuration
    6 entries
     n  l   j            E        occ.
     1  0  0.50     -1785.8828   2.0000
     2  0  0.50      -139.4969   2.0000
     2  1  1.50       -95.5546   6.0000
     3  0  0.50       -10.8127   2.0000
     3  1  0.50        -4.0811   2.0000
     3  2  1.50        -4.0817   0.0000
   Description
     l       E           TYP  RCUT    TYP  RCUT
     0    -10.8127223     23  1.900
     0     -7.6451159     23  1.900
     1     -4.0811372     23  1.900
     1      2.4879257     23  1.900
     2     -4.0817478      7  1.900
  local pseudopotential read in
  partial core-charges read in
  partial kinetic energy density read in
  atomic valenz-charges read in
  non local Contribution for L=           0  read in
    real space projection operators read in
  non local Contribution for L=           0  read in
    real space projection operators read in
  non local Contribution for L=           1  read in
    real space projection operators read in
  non local Contribution for L=           1  read in
    real space projection operators read in
    PAW grid and wavefunctions read in

   number of l-projection  operators is LMAX  =           4
   number of lm-projection operators is LMMAX =           8

 -----------------------------------------------------------------------------
|                                                                             |
|               ----> ADVICE to this user running VASP <----                  |
|                                                                             |
|     You have a (more or less) 'small supercell' and for smaller cells       |
|     it is recommended to use the reciprocal-space projection scheme!        |
|     The real-space optimization is not efficient for small cells and it     |
|     is also less accurate ...                                               |
|     Therefore, set LREAL=.FALSE. in the INCAR file.                         |
|                                                                             |
 -----------------------------------------------------------------------------

 Optimization of the real space projectors (new method)

 maximal supplied QI-value         = 19.84
 optimisation between [QCUT,QGAM] = [ 13.29, 26.59] = [ 49.49,197.96] Ry
 Optimized for a Real-space Cutoff    1.12 Angstroem

   l    n(q)    QCUT    max X(q) W(low)/X(q) W(high)/X(q)  e(spline)
   0      9    13.294   159.560    0.23E-03    0.88E-04    0.53E-07
   0      9    13.294   115.863    0.22E-03    0.87E-04    0.52E-07
   1      8    13.294    88.339    0.81E-04    0.17E-03    0.12E-06
   1      8    13.294    48.592    0.79E-04    0.17E-03    0.12E-06
  PAW_PBE Si 05Jan2001                  :
 energy of atom  1       EATOM= -103.0669
 kinetic energy error for atom=    0.0003 (will be added to EATOM!!)


 POSCAR: Si2
  positions in direct lattice
  No initial velocities read in
 exchange correlation table for  LEXCH =        8
   RHO(1)=    0.500       N(1)  =     2000
   RHO(2)=  100.500       N(2)  =     4000



--------------------------------------------------------------------------------------------------------


 ion  position               nearest neighbor table
   1  0.246  0.250  0.252-   2 2.36   2 2.36   2 2.37   2 2.38
   2  0.000  0.000  0.000-   1 2.36   1 2.36   1 2.37   1 2.38

  LATTYP: Found a face centered cubic cell.
 ALAT       =     5.4687280757

  Lattice vectors:

 A1 = (   3.3488980000,   0.0000000000,   1.9334870000)
 A2 = (   1.1162990000,   3.1573720000,   1.9334870000)
 A3 = (   0.0000000000,   0.0000000000,   3.8669750000)


Analysis of symmetry for initial positions (statically):
=====================================================================
 Subroutine PRICEL returns:
 Original cell was already a primitive cell.


 Routine SETGRP: Setting up the symmetry group for a
 face centered cubic supercell.


 Subroutine GETGRP returns: Found  4 space group operations
 (whereof  2 operations were pure point group operations)
 out of a pool of 48 trial point group operations.


The static configuration has the point symmetry C_1h.
 The point group associated with its full space group is C_2h.


Analysis of symmetry for dynamics (positions and initial velocities):
=====================================================================
 Subroutine PRICEL returns:
 Original cell was already a primitive cell.


 Routine SETGRP: Setting up the symmetry group for a
 face centered cubic supercell.


 Subroutine GETGRP returns: Found  4 space group operations
 (whereof  2 operations were pure point group operations)
 out of a pool of 48 trial point group operations.


The dynamic configuration has the point symmetry C_1h.
 The point group associated with its full space group is C_2h.


 Subroutine INISYM returns: Found  4 space group operations
 (whereof  2 operations are pure point group operations),
 and found     1 'primitive' translations


----------------------------------------------------------------------------------------

                                     Primitive cell

  volume of cell :      40.8883

  direct lattice vectors                    reciprocal lattice vectors
     3.348898000  0.000000000  1.933487000     0.298605691 -0.105573000  0.000000000
     1.116299000  3.157372000  1.933487000     0.000000000  0.316719094  0.000000000
     0.000000000  0.000000000  3.866975000    -0.149302807 -0.105573020  0.258600069

  length of vectors
     3.866974243  3.866974707  3.866975000     0.316719145  0.316719094  0.316719096

  position of ions in fractional coordinates (direct lattice)
     0.245521000  0.250000000  0.252240000
     0.000000000  0.000000000  0.000000000

  ion indices of the primitive-cell ions
   primitive index   ion index
                 1           1
                 2           2

----------------------------------------------------------------------------------------



 KPOINTS: pymatgen with grid density = 607 / numbe

Automatic generation of k-mesh.
 Grid dimensions read from file:
 generate k-points for:    6    6    6

 Generating k-lattice:

  Cartesian coordinates                     Fractional coordinates (reciprocal lattice)
     0.049767615 -0.017595500  0.000000000     0.166666667 -0.000000000  0.000000000
     0.000000000  0.052786516  0.000000000     0.000000000  0.166666667  0.000000000
    -0.024883801 -0.017595503  0.043100011     0.000000000  0.000000000  0.166666667

  Length of vectors
     0.052786524  0.052786516  0.052786516

  Shift w.r.t. Gamma in fractional coordinates (k-lattice)
     0.000000000  0.000000000  0.000000000

 TETIRR: Found    324 inequivalent tetrahedra from     1296

 Subroutine IBZKPT returns following result:
 ===========================================

 Found     68 irreducible k-points:

 Following reciprocal coordinates:
            Coordinates               Weight
  0.000000  0.000000  0.000000      1.000000
  0.166667  0.000000  0.000000      2.000000
 -0.000000  0.166667  0.000000      2.000000
  0.000000  0.000000  0.166667      4.000000
  0.333333  0.000000  0.000000      2.000000
  0.000000  0.333333  0.000000      2.000000
  0.000000  0.000000  0.333333      4.000000
  0.500000  0.000000  0.000000      1.000000
  0.000000  0.500000  0.000000      1.000000
 -0.000000  0.000000  0.500000      2.000000
  0.166667  0.166667  0.000000      2.000000
  0.000000  0.166667  0.166667      4.000000
  0.333333  0.166667  0.000000      2.000000
  0.000000  0.333333  0.166667      4.000000
  0.166667  0.000000  0.333333      4.000000
  0.166667  0.166667 -0.166667      4.000000
  0.333333  0.166667  0.333333      4.000000
  0.166667  0.333333  0.000000      2.000000
  0.166667 -0.166667 -0.166667      4.000000
  0.500000  0.166667  0.000000      2.000000
  0.000000  0.500000  0.166667      4.000000
  0.166667  0.000000  0.500000      4.000000
  0.166667  0.166667 -0.333333      4.000000
  0.500000  0.333333  0.500000      4.000000
  0.166667  0.500000  0.000000      2.000000
  0.333333 -0.166667 -0.166667      4.000000
 -0.333333  0.166667  0.000000      2.000000
  0.000000 -0.333333  0.166667      4.000000
  0.166667 -0.000000 -0.333333      4.000000
  0.166667  0.166667  0.500000      4.000000
 -0.333333  0.500000 -0.333333      4.000000
  0.166667 -0.333333  0.000000      2.000000
  0.500000 -0.166667 -0.166667      4.000000
 -0.166667  0.166667  0.000000      2.000000
  0.000000 -0.166667  0.166667      4.000000
  0.166667  0.000000 -0.166667      4.000000
  0.166667  0.166667  0.333333      2.000000
  0.333333  0.333333  0.000000      2.000000
  0.000000  0.333333  0.333333      4.000000
  0.500000  0.333333  0.000000      2.000000
  0.000000  0.500000  0.333333      4.000000
  0.333333  0.000000  0.500000      4.000000
  0.333333  0.333333 -0.166667      4.000000
  0.500000  0.166667  0.500000      4.000000
  0.333333  0.500000  0.000000      2.000000
  0.166667 -0.333333 -0.333333      4.000000
 -0.333333  0.333333  0.000000      2.000000
  0.000000 -0.333333  0.333333      4.000000
  0.333333 -0.000000 -0.333333      4.000000
  0.333333  0.333333 -0.333333      2.000000
  0.500000  0.500000  0.000000      1.000000
 -0.000000  0.500000  0.500000      2.000000
  0.500000  0.333333  0.166667      4.000000
  0.166667  0.500000  0.333333      4.000000
  0.333333  0.166667  0.500000      4.000000
  0.500000  0.166667  0.333333      4.000000
  0.166667 -0.333333 -0.166667      4.000000
  0.166667  0.333333 -0.166667      4.000000
 -0.333333  0.333333  0.166667      4.000000
  0.166667 -0.333333  0.333333      2.000000
  0.333333  0.166667 -0.333333      4.000000
 -0.333333  0.333333  0.500000      4.000000
  0.166667  0.500000 -0.166667      4.000000
  0.333333 -0.166667 -0.333333      2.000000
  0.500000 -0.333333  0.333333      4.000000
 -0.333333  0.500000  0.166667      4.000000
  0.166667 -0.333333  0.500000      4.000000
  0.500000  0.166667 -0.333333      4.000000

 Following cartesian coordinates:
            Coordinates               Weight
  0.000000  0.000000  0.000000      1.000000
  0.049768 -0.017595  0.000000      2.000000
 -0.000000  0.052787  0.000000      2.000000
 -0.024884 -0.017596  0.043100      4.000000
  0.099535 -0.035191  0.000000      2.000000
 -0.000000  0.105573  0.000000      2.000000
 -0.049768 -0.035191  0.086200      4.000000
  0.149303 -0.052786  0.000000      1.000000
 -0.000000  0.158360  0.000000      1.000000
 -0.074651 -0.052787  0.129300      2.000000
  0.049768  0.035191  0.000000      2.000000
 -0.024884  0.035191  0.043100      4.000000
  0.099535  0.017596  0.000000      2.000000
 -0.024884  0.087978  0.043100      4.000000
  0.000000 -0.052787  0.086200      4.000000
  0.074651  0.052787 -0.043100      4.000000
  0.049768 -0.017595  0.086200      4.000000
  0.049768  0.087978  0.000000      2.000000
  0.074651 -0.052787 -0.043100      4.000000
  0.149303  0.000000  0.000000      2.000000
 -0.024884  0.140764  0.043100      4.000000
 -0.024884 -0.070382  0.129300      4.000000
  0.099535  0.070382 -0.086200      4.000000
  0.074651  0.000000  0.129300      4.000000
  0.049768  0.140764  0.000000      2.000000
  0.124419 -0.070382 -0.043100      4.000000
 -0.099535  0.087978  0.000000      2.000000
 -0.024884 -0.123169  0.043100      4.000000
  0.099535  0.017596 -0.086200      4.000000
 -0.024884 -0.017595  0.129300      4.000000
 -0.049768  0.228742 -0.086200      4.000000
  0.049768 -0.123169  0.000000      2.000000
  0.174187 -0.087978 -0.043100      4.000000
 -0.049768  0.070382  0.000000      2.000000
 -0.024884 -0.070382  0.043100      4.000000
  0.074651  0.000000 -0.043100      4.000000
  0.000000  0.000000  0.086200      2.000000
  0.099535  0.070382  0.000000      2.000000
 -0.049768  0.070382  0.086200      4.000000
  0.149303  0.052787  0.000000      2.000000
 -0.049768  0.123169  0.086200      4.000000
  0.024884 -0.087978  0.129300      4.000000
  0.124419  0.087978 -0.043100      4.000000
  0.074651 -0.052786  0.129300      4.000000
  0.099535  0.123169  0.000000      2.000000
  0.099535 -0.087978 -0.086200      4.000000
 -0.099535  0.140764  0.000000      2.000000
 -0.049768 -0.140764  0.086200      4.000000
  0.149303  0.000000 -0.086200      4.000000
  0.149303  0.105573 -0.086200      2.000000
  0.149303  0.105573  0.000000      1.000000
 -0.074651  0.105573  0.129300      2.000000
  0.124419  0.035191  0.043100      4.000000
  0.000000  0.105573  0.086200      4.000000
  0.024884 -0.035191  0.129300      4.000000
  0.099535 -0.035191  0.086200      4.000000
  0.074651 -0.105573 -0.043100      4.000000
  0.074651  0.105573 -0.043100      4.000000
 -0.124419  0.123169  0.043100      4.000000
  0.000000 -0.158360  0.086200      2.000000
  0.149303  0.052787 -0.086200      4.000000
 -0.174187  0.087978  0.129300      4.000000
  0.074651  0.158360 -0.043100      4.000000
  0.149303 -0.052787 -0.086200      2.000000
  0.099535 -0.193551  0.086200      4.000000
 -0.124419  0.175955  0.043100      4.000000
 -0.024884 -0.175955  0.129300      4.000000
  0.199070  0.035191 -0.086200      4.000000



--------------------------------------------------------------------------------------------------------




 Dimension of arrays:
   k-points           NKPTS =     68   k-points in BZ     NKDIM =     68   number of bands    NBANDS=     10
   number of dos      NEDOS =   4352   number of ions     NIONS =      2
   non local maximal  LDIM  =      4   non local SUM 2l+1 LMDIM =      8
   total plane-waves  NPLWV =  46656
   max r-space proj   IRMAX =   6824   max aug-charges    IRDMAX=  38346
   dimension x,y,z NGX =    36 NGY =   36 NGZ =   36
   dimension x,y,z NGXF=    72 NGYF=   72 NGZF=   72
   support grid    NGXF=    72 NGYF=   72 NGZF=   72
   ions per type =               2
   NGX,Y,Z   is equivalent  to a cutoff of  15.48, 15.48, 15.48 a.u.
   NGXF,Y,Z  is equivalent  to a cutoff of  30.95, 30.95, 30.95 a.u.

 SYSTEM =  unknown system
 POSCAR =  Si2

 Startparameter for this run:
   NWRITE =      2    write-flag & timer
   PREC   = accura    normal or accurate (medium, high low for compatibility)
   ISTART =      0    job   : 0-new  1-cont  2-samecut
   ICHARG =     11    charge: 1-file 2-atom 10-const
   ISPIN  =      1    spin polarized calculation?
   LNONCOLLINEAR =      F non collinear calculations
   LSORBIT =      F    spin-orbit coupling
   INIWAV =      1    electr: 0-lowe 1-rand  2-diag
   LASPH  =      T    aspherical Exc in radial PAW
 Electronic Relaxation 1
   ENCUT  =  680.0 eV  49.98 Ry    7.07 a.u.   8.22  8.22  8.22*2*pi/ulx,y,z
   ENINI  =  680.0     initial cutoff
   ENAUG  = 1360.0 eV  augmentation charge cutoff
   NELM   =    200;   NELMIN=  2; NELMDL= -5     # of ELM steps
   EDIFF  = 0.1E-04   stopping-criterion for ELM
   LREAL  =      T    real-space projection
   NLSPLINE    = F    spline interpolate recip. space projectors
   LCOMPAT=      F    compatible to vasp.4.4
   GGA_COMPAT  = T    GGA compatible to vasp.4.4-vasp.4.6
   LMAXPAW     = -100 max onsite density
   LMAXMIX     =    2 max onsite mixed and CHGCAR
   VOSKOWN=      0    Vosko Wilk Nusair interpolation
   ROPT   =   -0.00025
 Ionic relaxation
   EDIFFG = -.2E-01   stopping-criterion for IOM
   NSW    =      0    number of steps for IOM
   NBLOCK =      1;   KBLOCK =      1    inner block; outer block
   IBRION =     -1    ionic relax: 0-MD 1-quasi-New 2-CG
   NFREE  =      0    steps in history (QN), initial steepest desc. (CG)
   ISIF   =      3    stress and relaxation
   IWAVPR =     10    prediction:  0-non 1-charg 2-wave 3-comb
   ISYM   =      2    0-nonsym 1-usesym 2-fastsym
   LCORR  =      T    Harris-Foulkes like correction to forces

   POTIM  = 0.5000    time-step for ionic-motion
   TEIN   =    0.0    initial temperature
   TEBEG  =    0.0;   TEEND  =   0.0 temperature during run
   SMASS  =  -3.00    Nose mass-parameter (am)
   estimated Nose-frequenzy (Omega)   =  0.10E-29 period in steps = 0.13E+47 mass=  -0.342E-27a.u.
   SCALEE = 1.0000    scale energy and forces
   NPACO  =    256;   APACO  = 16.0  distance and # of slots for P.C.
   PSTRESS=    0.0 pullay stress

  Mass of Ions in am
   POMASS =  28.09
  Ionic Valenz
   ZVAL   =   4.00
  Atomic Wigner-Seitz radii
   RWIGS  =  -1.00
  virtual crystal weights
   VCA    =   1.00
   NELECT =       8.0000    total number of electrons
   NUPDOWN=      -1.0000    fix difference up-down

 DOS related values:
   EMIN   =  10.00;   EMAX   =-10.00  energy-range for DOS
   EFERMI =   0.00
   ISMEAR =    -5;   SIGMA  =   0.05  broadening in eV -4-tet -1-fermi 0-gaus

 Electronic relaxation 2 (details)
   IALGO  =     38    algorithm
   LDIAG  =      T    sub-space diagonalisation (order eigenvalues)
   LSUBROT=      F    optimize rotation matrix (better conditioning)
   TURBO    =      0    0=normal 1=particle mesh
   IRESTART =      0    0=no restart 2=restart with 2 vectors
   NREBOOT  =      0    no. of reboots
   NMIN     =      0    reboot dimension
   EREF     =   0.00    reference energy to select bands
   IMIX   =      4    mixing-type and parameters
     AMIX     =   0.40;   BMIX     =  1.00
     AMIX_MAG =   1.60;   BMIX_MAG =  1.00
     AMIN     =   0.10
     WC   =   100.;   INIMIX=   1;  MIXPRE=   1;  MAXMIX= -45

 Intra band minimization:
   WEIMIN = 0.0000     energy-eigenvalue tresh-hold
   EBREAK =  0.25E-06  absolut break condition
   DEPER  =   0.30     relativ break condition

   TIME   =   0.40     timestep for ELM

  volume/ion in A,a.u.               =      20.44       137.96
  Fermi-wavevector in a.u.,A,eV,Ry     =   0.950397  1.795990 12.289528  0.903255
  Thomas-Fermi vector in A             =   2.078770

 Write flags
   LWAVE        =      F    write WAVECAR
   LDOWNSAMPLE  =      F    k-point downsampling of WAVECAR
   LCHARG       =      F    write CHGCAR
   LVTOT        =      T    write LOCPOT, total local potential
   LVHAR        =      F    write LOCPOT, Hartree potential only
   LELF         =      T    write electronic localiz. function (ELF)
   LORBIT       =     11    0 simple, 1 ext, 2 COOP (PROOUT), +10 PAW based schemes


 Dipole corrections
   LMONO  =      F    monopole corrections only (constant potential shift)
   LDIPOL =      F    correct potential (dipole corrections)
   IDIPOL =      0    1-x, 2-y, 3-z, 4-all directions
   EPSILON=  1.0000000 bulk dielectric constant

 Exchange correlation treatment:
   GGA     =    --    GGA type
   LEXCH   =     8    internal setting for exchange type
   VOSKOWN=      0    Vosko Wilk Nusair interpolation
   LHFCALC =     F    Hartree Fock is set to
   LHFONE  =     F    Hartree Fock one center treatment
   AEXX    =    0.0000 exact exchange contribution

 Linear response parameters
   LEPSILON=     F    determine dielectric tensor
   LRPA    =     F    only Hartree local field effects (RPA)
   LNABLA  =     F    use nabla operator in PAW spheres
   LVEL    =     F    velocity operator in full k-point grid
   LINTERFAST=   F  fast interpolation
   KINTER  =     0    interpolate to denser k-point grid
   CSHIFT  =0.1000    complex shift for real part using Kramers Kronig
   OMEGAMAX=  -1.0    maximum frequency
   DEG_THRESHOLD= 0.2000000E-02 threshold for treating states as degnerate
   RTIME   =   -0.100 relaxation time in fs
  (WPLASMAI=    0.000 imaginary part of plasma frequency in eV, 0.658/RTIME)
   DFIELD  = 0.0000000 0.0000000 0.0000000 field for delta impulse in time

 Orbital magnetization related:
   ORBITALMAG=     F  switch on orbital magnetization
   LCHIMAG   =     F  perturbation theory with respect to B field
   DQ        =  0.001000  dq finite difference perturbation B field
   LLRAUG    =     F  two centre corrections for induced B field



--------------------------------------------------------------------------------------------------------


 Static calculation
 charge density and potential remain constant during run
 non-spin polarized calculation
 Variant of blocked Davidson
 Davidson routine will perform the subspace rotation
 perform sub-space diagonalisation
    after iterative eigenvector-optimisation
 no mixing
 using additional bands            6
 real space projection scheme for non local part
 use partial core corrections
 calculate Harris-corrections to forces
   (improved forces if not selfconsistent)
 use gradient corrections
 WARNING: stress and forces are not correct
  (second derivative of E(xc) not defined)
 use of overlap-Matrix (Vanderbilt PP)
 Fermi weights with tetrahedron method with Bloechl corrections


--------------------------------------------------------------------------------------------------------


  energy-cutoff  :      680.00
  volume of cell :       40.89
      direct lattice vectors                 reciprocal lattice vectors
     3.348898000  0.000000000  1.933487000     0.298605691 -0.105573000  0.000000000
     1.116299000  3.157372000  1.933487000     0.000000000  0.316719094  0.000000000
     0.000000000  0.000000000  3.866975000    -0.149302807 -0.105573020  0.258600069

  length of vectors
     3.866974243  3.866974707  3.866975000     0.316719145  0.316719094  0.316719096



 k-points in units of 2pi/SCALE and weight: pymatgen with grid density = 607 / numbe
   0.00000000  0.00000000  0.00000000       0.005
   0.04976762 -0.01759550  0.00000000       0.009
  -0.00000000  0.05278652  0.00000000       0.009
  -0.02488380 -0.01759550  0.04310001       0.019
   0.09953523 -0.03519100  0.00000000       0.009
  -0.00000000  0.10557303  0.00000000       0.009
  -0.04976760 -0.03519101  0.08620002       0.019
   0.14930285 -0.05278650  0.00000000       0.005
  -0.00000000  0.15835955  0.00000000       0.005
  -0.07465140 -0.05278651  0.12930003       0.009
   0.04976762  0.03519102  0.00000000       0.009
  -0.02488380  0.03519101  0.04310001       0.019
   0.09953523  0.01759552  0.00000000       0.009
  -0.02488380  0.08797753  0.04310001       0.019
   0.00000001 -0.05278651  0.08620002       0.019
   0.07465142  0.05278652 -0.04310001       0.019
   0.04976763 -0.01759549  0.08620002       0.019
   0.04976762  0.08797753  0.00000000       0.009
   0.07465142 -0.05278651 -0.04310001       0.019
   0.14930285  0.00000002  0.00000000       0.009
  -0.02488380  0.14076404  0.04310001       0.019
  -0.02488379 -0.07038201  0.12930003       0.019
   0.09953522  0.07038202 -0.08620002       0.019
   0.07465144  0.00000002  0.12930003       0.019
   0.04976762  0.14076405  0.00000000       0.009
   0.12441903 -0.07038201 -0.04310001       0.019
  -0.09953523  0.08797752  0.00000000       0.009
  -0.02488380 -0.12316853  0.04310001       0.019
   0.09953522  0.01759551 -0.08620002       0.019
  -0.02488379 -0.01759549  0.12930003       0.019
  -0.04976763  0.22874155 -0.08620002       0.019
   0.04976762 -0.12316853  0.00000000       0.009
   0.17418665 -0.08797751 -0.04310001       0.019
  -0.04976762  0.07038202  0.00000000       0.009
  -0.02488380 -0.07038202  0.04310001       0.019
   0.07465142  0.00000000 -0.04310001       0.019
   0.00000001  0.00000001  0.08620002       0.009
   0.09953523  0.07038203  0.00000000       0.009
  -0.04976760  0.07038202  0.08620002       0.019
   0.14930285  0.05278653  0.00000000       0.009
  -0.04976760  0.12316854  0.08620002       0.019
   0.02488383 -0.08797751  0.12930003       0.019
   0.12441903  0.08797753 -0.04310001       0.019
   0.07465144 -0.05278649  0.12930003       0.019
   0.09953523  0.12316855  0.00000000       0.009
   0.09953522 -0.08797752 -0.08620002       0.019
  -0.09953523  0.14076403  0.00000000       0.009
  -0.04976760 -0.14076404  0.08620002       0.019
   0.14930283  0.00000001 -0.08620002       0.019
   0.14930283  0.10557304 -0.08620002       0.009
   0.14930285  0.10557305  0.00000000       0.005
  -0.07465140  0.10557304  0.12930003       0.009
   0.12441904  0.03519103  0.04310001       0.019
   0.00000001  0.10557304  0.08620002       0.019
   0.02488383 -0.03519099  0.12930003       0.019
   0.09953524 -0.03519099  0.08620002       0.019
   0.07465142 -0.10557303 -0.04310001       0.019
   0.07465142  0.10557303 -0.04310001       0.019
  -0.12441903  0.12316853  0.04310001       0.019
   0.00000001 -0.15835954  0.08620002       0.009
   0.14930283  0.05278652 -0.08620002       0.019
  -0.17418663  0.08797752  0.12930003       0.019
   0.07465142  0.15835955 -0.04310001       0.019
   0.14930283 -0.05278651 -0.08620002       0.009
   0.09953524 -0.19355054  0.08620002       0.019
  -0.12441903  0.17595504  0.04310001       0.019
  -0.02488379 -0.17595504  0.12930003       0.019
   0.19907045  0.03519102 -0.08620002       0.019

 k-points in reciprocal lattice and weights: pymatgen with grid density = 607 / numbe
   0.00000000  0.00000000  0.00000000       0.005
   0.16666667  0.00000000  0.00000000       0.009
  -0.00000000  0.16666667  0.00000000       0.009
   0.00000000  0.00000000  0.16666667       0.019
   0.33333333  0.00000000  0.00000000       0.009
   0.00000000  0.33333333  0.00000000       0.009
   0.00000000  0.00000000  0.33333333       0.019
   0.50000000  0.00000000  0.00000000       0.005
   0.00000000  0.50000000  0.00000000       0.005
  -0.00000000  0.00000000  0.50000000       0.009
   0.16666667  0.16666667  0.00000000       0.009
   0.00000000  0.16666667  0.16666667       0.019
   0.33333333  0.16666667  0.00000000       0.009
   0.00000000  0.33333333  0.16666667       0.019
   0.16666667  0.00000000  0.33333333       0.019
   0.16666667  0.16666667 -0.16666667       0.019
   0.33333333  0.16666667  0.33333333       0.019
   0.16666667  0.33333333  0.00000000       0.009
   0.16666667 -0.16666667 -0.16666667       0.019
   0.50000000  0.16666667  0.00000000       0.009
   0.00000000  0.50000000  0.16666667       0.019
   0.16666667  0.00000000  0.50000000       0.019
   0.16666667  0.16666667 -0.33333333       0.019
   0.50000000  0.33333333  0.50000000       0.019
   0.16666667  0.50000000  0.00000000       0.009
   0.33333333 -0.16666667 -0.16666667       0.019
  -0.33333333  0.16666667  0.00000000       0.009
   0.00000000 -0.33333333  0.16666667       0.019
   0.16666667 -0.00000000 -0.33333333       0.019
   0.16666667  0.16666667  0.50000000       0.019
  -0.33333333  0.50000000 -0.33333333       0.019
   0.16666667 -0.33333333  0.00000000       0.009
   0.50000000 -0.16666667 -0.16666667       0.019
  -0.16666667  0.16666667  0.00000000       0.009
   0.00000000 -0.16666667  0.16666667       0.019
   0.16666667  0.00000000 -0.16666667       0.019
   0.16666667  0.16666667  0.33333333       0.009
   0.33333333  0.33333333  0.00000000       0.009
   0.00000000  0.33333333  0.33333333       0.019
   0.50000000  0.33333333  0.00000000       0.009
   0.00000000  0.50000000  0.33333333       0.019
   0.33333333  0.00000000  0.50000000       0.019
   0.33333333  0.33333333 -0.16666667       0.019
   0.50000000  0.16666667  0.50000000       0.019
   0.33333333  0.50000000  0.00000000       0.009
   0.16666667 -0.33333333 -0.33333333       0.019
  -0.33333333  0.33333333  0.00000000       0.009
   0.00000000 -0.33333333  0.33333333       0.019
   0.33333333 -0.00000000 -0.33333333       0.019
   0.33333333  0.33333333 -0.33333333       0.009
   0.50000000  0.50000000  0.00000000       0.005
  -0.00000000  0.50000000  0.50000000       0.009
   0.50000000  0.33333333  0.16666667       0.019
   0.16666667  0.50000000  0.33333333       0.019
   0.33333333  0.16666667  0.50000000       0.019
   0.50000000  0.16666667  0.33333333       0.019
   0.16666667 -0.33333333 -0.16666667       0.019
   0.16666667  0.33333333 -0.16666667       0.019
  -0.33333333  0.33333333  0.16666667       0.019
   0.16666667 -0.33333333  0.33333333       0.009
   0.33333333  0.16666667 -0.33333333       0.019
  -0.33333333  0.33333333  0.50000000       0.019
   0.16666667  0.50000000 -0.16666667       0.019
   0.33333333 -0.16666667 -0.33333333       0.009
   0.50000000 -0.33333333  0.33333333       0.019
  -0.33333333  0.50000000  0.16666667       0.019
   0.16666667 -0.33333333  0.50000000       0.019
   0.50000000  0.16666667 -0.33333333       0.019

 position of ions in fractional coordinates (direct lattice)
   0.24552100  0.25000000  0.25224000
   0.00000000  0.00000000  0.00000000

 position of ions in cartesian coordinates  (Angst):
   1.10129954  0.78934300  1.93348919
   0.00000000  0.00000000  0.00000000



--------------------------------------------------------------------------------------------------------


 k-point   1 :   0.0000 0.0000 0.0000  plane waves:    1639
 k-point   2 :   0.1667 0.0000 0.0000  plane waves:    1642
 k-point   3 :  -0.0000 0.1667 0.0000  plane waves:    1642
 k-point   4 :   0.0000 0.0000 0.1667  plane waves:    1642
 k-point   5 :   0.3333 0.0000 0.0000  plane waves:    1634
 k-point   6 :   0.0000 0.3333 0.0000  plane waves:    1634
 k-point   7 :   0.0000 0.0000 0.3333  plane waves:    1634
 k-point   8 :   0.5000 0.0000 0.0000  plane waves:    1676
 k-point   9 :   0.0000 0.5000 0.0000  plane waves:    1676
 k-point  10 :  -0.0000 0.0000 0.5000  plane waves:    1676
 k-point  11 :   0.1667 0.1667 0.0000  plane waves:    1647
 k-point  12 :   0.0000 0.1667 0.1667  plane waves:    1647
 k-point  13 :   0.3333 0.1667 0.0000  plane waves:    1651
 k-point  14 :   0.0000 0.3333 0.1667  plane waves:    1651
 k-point  15 :   0.1667 0.0000 0.3333  plane waves:    1651
 k-point  16 :   0.1667 0.1667-0.1667  plane waves:    1651
 k-point  17 :   0.3333 0.1667 0.3333  plane waves:    1651
 k-point  18 :   0.1667 0.3333 0.0000  plane waves:    1651
 k-point  19 :   0.1667-0.1667-0.1667  plane waves:    1651
 k-point  20 :   0.5000 0.1667 0.0000  plane waves:    1641
 k-point  21 :   0.0000 0.5000 0.1667  plane waves:    1641
 k-point  22 :   0.1667 0.0000 0.5000  plane waves:    1641
 k-point  23 :   0.1667 0.1667-0.3333  plane waves:    1641
 k-point  24 :   0.5000 0.3333 0.5000  plane waves:    1641
 k-point  25 :   0.1667 0.5000 0.0000  plane waves:    1641
 k-point  26 :   0.3333-0.1667-0.1667  plane waves:    1641
 k-point  27 :  -0.3333 0.1667 0.0000  plane waves:    1644
 k-point  28 :   0.0000-0.3333 0.1667  plane waves:    1644
 k-point  29 :   0.1667-0.0000-0.3333  plane waves:    1644
 k-point  30 :   0.1667 0.1667 0.5000  plane waves:    1644
 k-point  31 :  -0.3333 0.5000-0.3333  plane waves:    1644
 k-point  32 :   0.1667-0.3333 0.0000  plane waves:    1644
 k-point  33 :   0.5000-0.1667-0.1667  plane waves:    1644
 k-point  34 :  -0.1667 0.1667 0.0000  plane waves:    1636
 k-point  35 :   0.0000-0.1667 0.1667  plane waves:    1636
 k-point  36 :   0.1667 0.0000-0.1667  plane waves:    1636
 k-point  37 :   0.1667 0.1667 0.3333  plane waves:    1636
 k-point  38 :   0.3333 0.3333 0.0000  plane waves:    1644
 k-point  39 :   0.0000 0.3333 0.3333  plane waves:    1644
 k-point  40 :   0.5000 0.3333 0.0000  plane waves:    1646
 k-point  41 :   0.0000 0.5000 0.3333  plane waves:    1646
 k-point  42 :   0.3333 0.0000 0.5000  plane waves:    1646
 k-point  43 :   0.3333 0.3333-0.1667  plane waves:    1646
 k-point  44 :   0.5000 0.1667 0.5000  plane waves:    1646
 k-point  45 :   0.3333 0.5000 0.0000  plane waves:    1646
 k-point  46 :   0.1667-0.3333-0.3333  plane waves:    1646
 k-point  47 :  -0.3333 0.3333 0.0000  plane waves:    1652
 k-point  48 :   0.0000-0.3333 0.3333  plane waves:    1652
 k-point  49 :   0.3333-0.0000-0.3333  plane waves:    1652
 k-point  50 :   0.3333 0.3333-0.3333  plane waves:    1652
 k-point  51 :   0.5000 0.5000 0.0000  plane waves:    1660
 k-point  52 :  -0.0000 0.5000 0.5000  plane waves:    1660
 k-point  53 :   0.5000 0.3333 0.1667  plane waves:    1646
 k-point  54 :   0.1667 0.5000 0.3333  plane waves:    1646
 k-point  55 :   0.3333 0.1667 0.5000  plane waves:    1646
 k-point  56 :   0.5000 0.1667 0.3333  plane waves:    1646
 k-point  57 :   0.1667-0.3333-0.1667  plane waves:    1646
 k-point  58 :   0.1667 0.3333-0.1667  plane waves:    1646
 k-point  59 :  -0.3333 0.3333 0.1667  plane waves:    1652
 k-point  60 :   0.1667-0.3333 0.3333  plane waves:    1652
 k-point  61 :   0.3333 0.1667-0.3333  plane waves:    1652
 k-point  62 :  -0.3333 0.3333 0.5000  plane waves:    1652
 k-point  63 :   0.1667 0.5000-0.1667  plane waves:    1652
 k-point  64 :   0.3333-0.1667-0.3333  plane waves:    1652
 k-point  65 :   0.5000-0.3333 0.3333  plane waves:    1652
 k-point  66 :  -0.3333 0.5000 0.1667  plane waves:    1646
 k-point  67 :   0.1667-0.3333 0.5000  plane waves:    1646
 k-point  68 :   0.5000 0.1667-0.3333  plane waves:    1646

 maximum and minimum number of plane-waves per node :       430      391

 maximum number of plane-waves:      1676
 maximum index in each direction:
   IXMAX=    8   IYMAX=    8   IZMAX=    8
   IXMIN=   -8   IYMIN=   -8   IZMIN=   -8


 real space projection operators:
  total allocation   :        824.75 KBytes
  max/ min on nodes  :        208.75        203.25


 parallel 3D FFT for wavefunctions:
    minimum data exchange during FFTs selected (reduces bandwidth)
 parallel 3D FFT for charge:
    minimum data exchange during FFTs selected (reduces bandwidth)


 total amount of memory used by VASP MPI-rank0    43803. kBytes
=======================================================================

   base      :      30000. kBytes
   nonlr-proj:        481. kBytes
   fftplans  :       3554. kBytes
   grid      :       5033. kBytes
   one-center:          3. kBytes
   wavefun   :       4732. kBytes

     INWAV:  cpu time    0.0000: real time    0.0000
 initial charge density was supplied:
 number of electron       8.0000000 magnetization
 keeping initial charge density in first step


--------------------------------------------------------------------------------------------------------


 Maximum index for non-local projection operator         1641
 Maximum index for augmentation-charges         9303 (set IRDMAX)


--------------------------------------------------------------------------------------------------------


 First call to EWALD:  gamma=   0.514
 Maximum number of real-space cells 3x 3x 3
 Maximum number of reciprocal cells 3x 3x 3

    FEWALD:  cpu time    0.0012: real time    0.0012


--------------------------------------- Iteration      1(   1)  ---------------------------------------


    POTLOK:  cpu time    0.0427: real time    0.0482
    SETDIJ:  cpu time    0.0384: real time    0.0384
     EDDAV:  cpu time    1.1880: real time    1.1943
 BZINTS: Fermi energy:   10.279257;    8.000000 electrons
         Band energy: 0.239165E+02;  BLOECHL correction:   -0.273424
       DOS:  cpu time    0.0083: real time    0.0083
    --------------------------------------------
      LOOP:  cpu time    1.2775: real time    1.2893

 eigenvalue-minimisations  :  1360
 total energy-change (2. order) : 0.8093265E+01  (-0.3768129E+03)
 number of electron       8.0000000 magnetization
 augmentation part        8.0000000 magnetization

 Free energy of the ion-electron system (eV)
  ---------------------------------------------------
  alpha Z        PSCENC =         3.29317992
  Ewald energy   TEWEN  =      -226.94227289
  -Hartree energ DENC   =       -15.23309021
  -exchange      EXHF   =         0.00000000
  -V(xc)+E(xc)   XCENC  =       -18.05404300
  PAW double counting   =       831.07142985     -796.09163852
  entropy T*S    EENTRO =         0.00000000
  eigenvalues    EBANDS =        23.91647846
  atomic energy  EATOM  =       206.13322186
  Solvation  Ediel_sol  =         0.00000000
  ---------------------------------------------------
  free energy    TOTEN  =         8.09326547 eV

  energy without entropy =        8.09326547  energy(sigma->0) =        8.09326547


--------------------------------------------------------------------------------------------------------




--------------------------------------- Iteration      1(   2)  ---------------------------------------


     EDDAV:  cpu time    1.7103: real time    1.7249
 BZINTS: Fermi energy:    6.394332;    8.000000 electrons
         Band energy: 0.560617E+01;  BLOECHL correction:   -0.000000
       DOS:  cpu time    0.0052: real time    0.0053
    --------------------------------------------
      LOOP:  cpu time    1.7155: real time    1.7302

 eigenvalue-minimisations  :  1876
 total energy-change (2. order) :-0.1831030E+02  (-0.1776692E+02)
 number of electron       8.0000000 magnetization
 augmentation part        8.0000000 magnetization

 Free energy of the ion-electron system (eV)
  ---------------------------------------------------
  alpha Z        PSCENC =         3.29317992
  Ewald energy   TEWEN  =      -226.94227289
  -Hartree energ DENC   =       -15.23309021
  -exchange      EXHF   =         0.00000000
  -V(xc)+E(xc)   XCENC  =       -18.05404300
  PAW double counting   =       831.07142985     -796.09163852
  entropy T*S    EENTRO =         0.00000000
  eigenvalues    EBANDS =         5.60617367
  atomic energy  EATOM  =       206.13322186
  Solvation  Ediel_sol  =         0.00000000
  ---------------------------------------------------
  free energy    TOTEN  =       -10.21703932 eV

  energy without entropy =      -10.21703932  energy(sigma->0) =      -10.21703932


--------------------------------------------------------------------------------------------------------




--------------------------------------- Iteration      1(   3)  ---------------------------------------


     EDDAV:  cpu time    1.4787: real time    1.4852
 BZINTS: Fermi energy:    6.343651;    8.000000 electrons
         Band energy: 0.500206E+01;  BLOECHL correction:   -0.000000
       DOS:  cpu time    0.0064: real time    0.0064
    --------------------------------------------
      LOOP:  cpu time    1.4851: real time    1.4916

 eigenvalue-minimisations  :  1684
 total energy-change (2. order) :-0.6041097E+00  (-0.6013695E+00)
 number of electron       8.0000000 magnetization
 augmentation part        8.0000000 magnetization

 Free energy of the ion-electron system (eV)
  ---------------------------------------------------
  alpha Z        PSCENC =         3.29317992
  Ewald energy   TEWEN  =      -226.94227289
  -Hartree energ DENC   =       -15.23309021
  -exchange      EXHF   =         0.00000000
  -V(xc)+E(xc)   XCENC  =       -18.05404300
  PAW double counting   =       831.07142985     -796.09163852
  entropy T*S    EENTRO =         0.00000000
  eigenvalues    EBANDS =         5.00206394
  atomic energy  EATOM  =       206.13322186
  Solvation  Ediel_sol  =         0.00000000
  ---------------------------------------------------
  free energy    TOTEN  =       -10.82114905 eV

  energy without entropy =      -10.82114905  energy(sigma->0) =      -10.82114905


--------------------------------------------------------------------------------------------------------




--------------------------------------- Iteration      1(   4)  ---------------------------------------


     EDDAV:  cpu time    1.5223: real time    1.5344
 BZINTS: Fermi energy:    6.342354;    8.000000 electrons
         Band energy: 0.499722E+01;  BLOECHL correction:    0.000000
       DOS:  cpu time    0.0075: real time    0.0075
    --------------------------------------------
      LOOP:  cpu time    1.5298: real time    1.5419

 eigenvalue-minimisations  :  1710
 total energy-change (2. order) :-0.4845890E-02  (-0.4845118E-02)
 number of electron       8.0000000 magnetization
 augmentation part        8.0000000 magnetization

 Free energy of the ion-electron system (eV)
  ---------------------------------------------------
  alpha Z        PSCENC =         3.29317992
  Ewald energy   TEWEN  =      -226.94227289
  -Hartree energ DENC   =       -15.23309021
  -exchange      EXHF   =         0.00000000
  -V(xc)+E(xc)   XCENC  =       -18.05404300
  PAW double counting   =       831.07142985     -796.09163852
  entropy T*S    EENTRO =         0.00000000
  eigenvalues    EBANDS =         4.99721805
  atomic energy  EATOM  =       206.13322186
  Solvation  Ediel_sol  =         0.00000000
  ---------------------------------------------------
  free energy    TOTEN  =       -10.82599494 eV

  energy without entropy =      -10.82599494  energy(sigma->0) =      -10.82599494


--------------------------------------------------------------------------------------------------------




--------------------------------------- Iteration      1(   5)  ---------------------------------------


     EDDAV:  cpu time    1.5148: real time    1.5213
 BZINTS: Fermi energy:    6.342735;    8.000000 electrons
         Band energy: 0.499718E+01;  BLOECHL correction:   -0.000000
       DOS:  cpu time    0.0060: real time    0.0060
    --------------------------------------------
      LOOP:  cpu time    1.5208: real time    1.5274

 eigenvalue-minimisations  :  1692
 total energy-change (2. order) :-0.3665614E-04  (-0.3664831E-04)
 number of electron       8.0000000 magnetization
 augmentation part        8.0000000 magnetization

 Free energy of the ion-electron system (eV)
  ---------------------------------------------------
  alpha Z        PSCENC =         3.29317992
  Ewald energy   TEWEN  =      -226.94227289
  -Hartree energ DENC   =       -15.23309021
  -exchange      EXHF   =         0.00000000
  -V(xc)+E(xc)   XCENC  =       -18.05404300
  PAW double counting   =       831.07142985     -796.09163852
  entropy T*S    EENTRO =         0.00000000
  eigenvalues    EBANDS =         4.99718139
  atomic energy  EATOM  =       206.13322186
  Solvation  Ediel_sol  =         0.00000000
  ---------------------------------------------------
  free energy    TOTEN  =       -10.82603159 eV

  energy without entropy =      -10.82603159  energy(sigma->0) =      -10.82603159


--------------------------------------------------------------------------------------------------------




--------------------------------------- Iteration      1(   6)  ---------------------------------------


     EDDAV:  cpu time    1.5948: real time    1.6041
 BZINTS: Fermi energy:    6.342706;    8.000000 electrons
         Band energy: 0.499718E+01;  BLOECHL correction:   -0.000000
       DOS:  cpu time    0.0062: real time    0.0062
    --------------------------------------------
      LOOP:  cpu time    1.6010: real time    1.6104

 eigenvalue-minimisations  :  1760
 total energy-change (2. order) :-0.3385413E-06  (-0.3402984E-06)
 number of electron       8.0000000 magnetization
 augmentation part        8.0000000 magnetization

 Free energy of the ion-electron system (eV)
  ---------------------------------------------------
  alpha Z        PSCENC =         3.29317992
  Ewald energy   TEWEN  =      -226.94227289
  -Hartree energ DENC   =       -15.23309021
  -exchange      EXHF   =         0.00000000
  -V(xc)+E(xc)   XCENC  =       -18.05404300
  PAW double counting   =       831.07142985     -796.09163852
  entropy T*S    EENTRO =         0.00000000
  eigenvalues    EBANDS =         4.99718106
  atomic energy  EATOM  =       206.13322186
  Solvation  Ediel_sol  =         0.00000000
  ---------------------------------------------------
  free energy    TOTEN  =       -10.82603193 eV

  energy without entropy =      -10.82603193  energy(sigma->0) =      -10.82603193


--------------------------------------------------------------------------------------------------------




 average (electrostatic) potential at core
  the test charge radii are     0.9892
  (the norm of the test charge is              1.0000)
       1 -83.4714       2 -83.4714



 E-fermi :   6.3427     XC(G=0):  -9.3224     alpha+bet :-11.7317

 Fermi energy:         6.3427059055

 k-point     1 :       0.0000    0.0000    0.0000
  band No.  band energies     occupation
      1      -6.1925      2.00000
      2       5.5657      2.00000
      3       5.6030      2.00000
      4       5.7044      2.00000
      5       8.1302      0.00000
      6       8.1896      0.00000
      7       8.2122      0.00000
      8       8.7576      0.00000
      9      13.3294      0.00000
     10      13.3300      0.00000

 k-point     2 :       0.1667    0.0000    0.0000
  band No.  band energies     occupation
      1      -5.8394      2.00000
      2       3.3053      2.00000
      3       5.1402      2.00000
      4       5.1741      2.00000
      5       7.8823      0.00000
      6       8.7996      0.00000
      7       8.8258      0.00000
      8      10.9195      0.00000
      9      12.7225      0.00000
     10      12.7273      0.00000

 k-point     3 :      -0.0000    0.1667    0.0000
  band No.  band energies     occupation
      1      -5.8378      2.00000
      2       3.2595      2.00000
      3       5.1327      2.00000
      4       5.2339      2.00000
      5       7.9072      0.00000
      6       8.7753      0.00000
      7       8.8518      0.00000
      8      10.9023      0.00000
      9      12.6986      0.00000
     10      12.7115      0.00000

 k-point     4 :       0.0000    0.0000    0.1667
  band No.  band energies     occupation
      1      -5.8370      2.00000
      2       3.2368      2.00000
      3       5.1519      2.00000
      4       5.2403      2.00000
      5       7.9203      0.00000
      6       8.7803      0.00000
      7       8.8472      0.00000
      8      10.8937      0.00000
      9      12.6899      0.00000
     10      12.7005      0.00000

 k-point     5 :       0.3333    0.0000    0.0000
  band No.  band energies     occupation
      1      -4.8512      2.00000
      2       0.3961      2.00000
      3       4.6087      2.00000
      4       4.6402      2.00000
      5       7.2957      0.00000
      6       9.0844      0.00000
      7       9.1204      0.00000
      8      13.3972      0.00000
      9      13.6041      0.00000
     10      13.6184      0.00000

 k-point     6 :       0.0000    0.3333    0.0000
  band No.  band energies     occupation
      1      -4.8423      2.00000
      2       0.3530      2.00000
      3       4.5943      2.00000
      4       4.6881      2.00000
      5       7.3146      0.00000
      6       9.0705      0.00000
      7       9.1776      0.00000
      8      13.4034      0.00000
      9      13.5546      0.00000
     10      13.5997      0.00000

 k-point     7 :       0.0000    0.0000    0.3333
  band No.  band energies     occupation
      1      -4.8378      2.00000
      2       0.3315      2.00000
      3       4.6083      2.00000
      4       4.6903      2.00000
      5       7.3245      0.00000
      6       9.0877      0.00000
      7       9.1822      0.00000
      8      13.4077      0.00000
      9      13.5395      0.00000
     10      13.5777      0.00000

 k-point     8 :       0.5000    0.0000    0.0000
  band No.  band energies     occupation
      1      -3.9410      2.00000
      2      -1.1869      2.00000
      3       4.4153      2.00000
      4       4.4466      2.00000
      5       7.0716      0.00000
      6       8.9291      0.00000
      7       8.9661      0.00000
      8      13.3024      0.00000
      9      16.1708      0.00000
     10      16.1747      0.00000

 k-point     9 :       0.0000    0.5000    0.0000
  band No.  band energies     occupation
      1      -3.9136      2.00000
      2      -1.2463      2.00000
      3       4.3986      2.00000
      4       4.4920      2.00000
      5       7.0888      0.00000
      6       8.9145      0.00000
      7       9.0248      0.00000
      8      13.3231      0.00000
      9      16.1172      0.00000
     10      16.1234      0.00000

 k-point    10 :      -0.0000    0.0000    0.5000
  band No.  band energies     occupation
      1      -3.8994      2.00000
      2      -1.2764      2.00000
      3       4.4112      2.00000
      4       4.4930      2.00000
      5       7.0977      0.00000
      6       8.9322      0.00000
      7       9.0295      0.00000
      8      13.3338      0.00000
      9      16.0886      0.00000
     10      16.0925      0.00000

 k-point    11 :       0.1667    0.1667    0.0000
  band No.  band energies     occupation
      1      -5.7170      2.00000
      2       3.5690      2.00000
      3       4.4253      2.00000
      4       4.4917      2.00000
      5       7.3348      0.00000
      6       9.8332      0.00000
      7       9.9156      0.00000
      8       9.9326      0.00000
      9      12.1316      0.00000
     10      13.8594      0.00000

 k-point    12 :       0.0000    0.1667    0.1667
  band No.  band energies     occupation
      1      -5.7170      2.00000
      2       3.5670      2.00000
      3       4.4422      2.00000
      4       4.4771      2.00000
      5       7.3349      0.00000
      6       9.8321      0.00000
      7       9.9203      0.00000
      8       9.9277      0.00000
      9      12.1321      0.00000
     10      13.8598      0.00000

 k-point    13 :       0.3333    0.1667    0.0000
  band No.  band energies     occupation
      1      -4.9211      2.00000
      2       1.2554      2.00000
      3       3.6544      2.00000
      4       3.8886      2.00000
      5       7.5686      0.00000
      6       9.6539      0.00000
      7      10.1091      0.00000
      8      10.6416      0.00000
      9      14.6012      0.00000
     10      14.6789      0.00000

 k-point    14 :       0.0000    0.3333    0.1667
  band No.  band energies     occupation
      1      -4.9177      2.00000
      2       1.2276      2.00000
      3       3.6348      2.00000
      4       3.9327      2.00000
      5       7.5999      0.00000
      6       9.6342      0.00000
      7      10.1088      0.00000
      8      10.6409      0.00000
      9      14.5824      0.00000
     10      14.6694      0.00000

 k-point    15 :       0.1667    0.0000    0.3333
  band No.  band energies     occupation
      1      -4.9135      2.00000
      2       1.1871      2.00000
      3       3.7169      2.00000
      4       3.8964      2.00000
      5       7.5793      0.00000
      6       9.6034      0.00000
      7      10.1572      0.00000
      8      10.6944      0.00000
      9      14.5575      0.00000
     10      14.6090      0.00000

 k-point    16 :       0.1667    0.1667   -0.1667
  band No.  band energies     occupation
      1      -4.9157      2.00000
      2       1.2103      2.00000
      3       3.6403      2.00000
      4       3.9434      2.00000
      5       7.6107      0.00000
      6       9.6215      0.00000
      7      10.1173      0.00000
      8      10.6467      0.00000
      9      14.5762      0.00000
     10      14.6500      0.00000

 k-point    17 :       0.3333    0.1667    0.3333
  band No.  band energies     occupation
      1      -4.9149      2.00000
      2       1.2022      2.00000
      3       3.6640      2.00000
      4       3.9301      2.00000
      5       7.6001      0.00000
      6       9.6158      0.00000
      7      10.1288      0.00000
      8      10.6639      0.00000
      9      14.5644      0.00000
     10      14.6420      0.00000

 k-point    18 :       0.1667    0.3333    0.0000
  band No.  band energies     occupation
      1      -4.9156      2.00000
      2       1.2048      2.00000
      3       3.7132      2.00000
      4       3.8830      2.00000
      5       7.5684      0.00000
      6       9.6159      0.00000
      7      10.1508      0.00000
      8      10.6875      0.00000
      9      14.5681      0.00000
     10      14.6229      0.00000

 k-point    19 :       0.1667   -0.1667   -0.1667
  band No.  band energies     occupation
      1      -4.9218      2.00000
      2       1.2632      2.00000
      3       3.6287      2.00000
      4       3.9047      2.00000
      5       7.5793      0.00000
      6       9.6599      0.00000
      7      10.0954      0.00000
      8      10.6255      0.00000
      9      14.6080      0.00000
     10      14.6930      0.00000

 k-point    20 :       0.5000    0.1667    0.0000
  band No.  band energies     occupation
      1      -3.7761      2.00000
      2      -0.8468      2.00000
      3       2.8847      2.00000
      4       3.8568      2.00000
      5       7.6317      0.00000
      6       9.6676      0.00000
      7      10.2174      0.00000
      8      12.0163      0.00000
      9      14.9602      0.00000
     10      16.0594      0.00000

 k-point    21 :       0.0000    0.5000    0.1667
  band No.  band energies     occupation
      1      -3.7543      2.00000
      2      -0.8989      2.00000
      3       2.8717      2.00000
      4       3.9005      2.00000
      5       7.6748      0.00000
      6       9.6822      0.00000
      7      10.2065      0.00000
      8      11.9763      0.00000
      9      14.9840      0.00000
     10      16.0322      0.00000

 k-point    22 :       0.1667    0.0000    0.5000
  band No.  band energies     occupation
      1      -3.7419      2.00000
      2      -0.9334      2.00000
      3       2.9318      2.00000
      4       3.8615      2.00000
      5       7.6461      0.00000
      6       9.6900      0.00000
      7      10.2720      0.00000
      8      11.9930      0.00000
      9      14.9529      0.00000
     10      16.0003      0.00000

 k-point    23 :       0.1667    0.1667   -0.3333
  band No.  band energies     occupation
      1      -3.7430      2.00000
      2      -0.9262      2.00000
      3       2.8756      2.00000
      4       3.9122      2.00000
      5       7.6898      0.00000
      6       9.6916      0.00000
      7      10.2092      0.00000
      8      11.9610      0.00000
      9      14.9900      0.00000
     10      16.0154      0.00000

 k-point    24 :       0.5000    0.3333    0.5000
  band No.  band energies     occupation
      1      -3.7426      2.00000
      2      -0.9287      2.00000
      3       2.8936      2.00000
      4       3.8963      2.00000
      5       7.6748      0.00000
      6       9.6901      0.00000
      7      10.2317      0.00000
      8      11.9713      0.00000
      9      14.9775      0.00000
     10      16.0106      0.00000

 k-point    25 :       0.1667    0.5000    0.0000
  band No.  band energies     occupation
      1      -3.7533      2.00000
      2      -0.9060      2.00000
      3       2.9288      2.00000
      4       3.8485      2.00000
      5       7.6314      0.00000
      6       9.6822      0.00000
      7      10.2677      0.00000
      8      12.0082      0.00000
      9      14.9469      0.00000
     10      16.0168      0.00000

 k-point    26 :       0.3333   -0.1667   -0.1667
  band No.  band energies     occupation
      1      -3.7763      2.00000
      2      -0.8445      2.00000
      3       2.8658      2.00000
      4       3.8739      2.00000
      5       7.6464      0.00000
      6       9.6676      0.00000
      7      10.1964      0.00000
      8      12.0061      0.00000
      9      14.9726      0.00000
     10      16.0646      0.00000

 k-point    27 :      -0.3333    0.1667    0.0000
  band No.  band energies     occupation
      1      -4.1439      2.00000
      2      -0.2647      2.00000
      3       2.6217      2.00000
      4       4.3186      2.00000
      5       8.0184      0.00000
      6       9.6835      0.00000
      7       9.8386      0.00000
      8      12.8307      0.00000
      9      12.9464      0.00000
     10      14.9613      0.00000

 k-point    28 :       0.0000   -0.3333    0.1667
  band No.  band energies     occupation
      1      -4.1263      2.00000
      2      -0.3225      2.00000
      3       2.6183      2.00000
      4       4.3711      2.00000
      5       8.0598      0.00000
      6       9.6989      0.00000
      7       9.8185      0.00000
      8      12.8177      0.00000
      9      12.9427      0.00000
     10      14.9343      0.00000

 k-point    29 :       0.1667   -0.0000   -0.3333
  band No.  band energies     occupation
      1      -4.1257      2.00000
      2      -0.3306      2.00000
      3       2.6589      2.00000
      4       4.3270      2.00000
      5       8.0344      0.00000
      6       9.7104      0.00000
      7       9.8836      0.00000
      8      12.8001      0.00000
      9      12.8980      0.00000
     10      14.9363      0.00000

 k-point    30 :       0.1667    0.1667    0.5000
  band No.  band energies     occupation
      1      -4.1185      2.00000
      2      -0.3485      2.00000
      3       2.6235      2.00000
      4       4.3861      2.00000
      5       8.0749      0.00000
      6       9.7137      0.00000
      7       9.8123      0.00000
      8      12.8129      0.00000
      9      12.9309      0.00000
     10      14.9231      0.00000

 k-point    31 :      -0.3333    0.5000   -0.3333
  band No.  band energies     occupation
      1      -4.1209      2.00000
      2      -0.3424      2.00000
      3       2.6346      2.00000
      4       4.3672      2.00000
      5       8.0607      0.00000
      6       9.7085      0.00000
      7       9.8407      0.00000
      8      12.8053      0.00000
      9      12.9232      0.00000
     10      14.9277      0.00000

 k-point    32 :       0.1667   -0.3333    0.0000
  band No.  band energies     occupation
      1      -4.1334      2.00000
      2      -0.3047      2.00000
      3       2.6546      2.00000
      4       4.3110      2.00000
      5       8.0199      0.00000
      6       9.7003      0.00000
      7       9.8849      0.00000
      8      12.8082      0.00000
      9      12.9068      0.00000
     10      14.9468      0.00000

 k-point    33 :       0.5000   -0.1667   -0.1667
  band No.  band energies     occupation
      1      -4.1415      2.00000
      2      -0.2707      2.00000
      3       2.6097      2.00000
      4       4.3385      2.00000
      5       8.0320      0.00000
      6       9.6848      0.00000
      7       9.8145      0.00000
      8      12.8348      0.00000
      9      12.9572      0.00000
     10      14.9574      0.00000

 k-point    34 :      -0.1667    0.1667    0.0000
  band No.  band energies     occupation
      1      -5.2637      2.00000
      2       1.9671      2.00000
      3       3.2585      2.00000
      4       5.0204      2.00000
      5       8.5780      0.00000
      6       9.1923      0.00000
      7       9.4147      0.00000
      8      11.2058      0.00000
      9      11.7435      0.00000
     10      14.9240      0.00000

 k-point    35 :       0.0000   -0.1667    0.1667
  band No.  band energies     occupation
      1      -5.2588      2.00000
      2       1.9058      2.00000
      3       3.2676      2.00000
      4       5.0918      2.00000
      5       8.6080      0.00000
      6       9.1435      0.00000
      7       9.4434      0.00000
      8      11.2045      0.00000
      9      11.7418      0.00000
     10      14.8596      0.00000

 k-point    36 :       0.1667    0.0000   -0.1667
  band No.  band energies     occupation
      1      -5.2621      2.00000
      2       1.9462      2.00000
      3       3.2621      2.00000
      4       5.0440      2.00000
      5       8.5889      0.00000
      6       9.1750      0.00000
      7       9.4243      0.00000
      8      11.2053      0.00000
      9      11.7432      0.00000
     10      14.9025      0.00000

 k-point    37 :       0.1667    0.1667    0.3333
  band No.  band energies     occupation
      1      -5.2572      2.00000
      2       1.8852      2.00000
      3       3.2719      2.00000
      4       5.1142      2.00000
      5       8.6205      0.00000
      6       9.1246      0.00000
      7       9.4536      0.00000
      8      11.2039      0.00000
      9      11.7408      0.00000
     10      14.8381      0.00000

 k-point    38 :       0.3333    0.3333    0.0000
  band No.  band energies     occupation
      1      -4.3226      2.00000
      2       0.6334      2.00000
      3       3.2324      2.00000
      4       3.2788      2.00000
      5       6.3785      0.00000
      6       7.6428      0.00000
      7      12.7946      0.00000
      8      12.7967      0.00000
      9      15.2359      0.00000
     10      15.4437      0.00000

 k-point    39 :       0.0000    0.3333    0.3333
  band No.  band energies     occupation
      1      -4.3225      2.00000
      2       0.6326      2.00000
      3       3.2442      2.00000
      4       3.2680      2.00000
      5       6.3790      0.00000
      6       7.6420      0.00000
      7      12.7949      0.00000
      8      12.7959      0.00000
      9      15.2364      0.00000
     10      15.4443      0.00000

 k-point    40 :       0.5000    0.3333    0.0000
  band No.  band energies     occupation
      1      -3.1946      2.00000
      2      -0.8685      2.00000
      3       2.0814      2.00000
      4       3.0988      2.00000
      5       6.6889     -0.00000
      6       8.3714      0.00000
      7      12.9811      0.00000
      8      12.9895      0.00000
      9      16.0966      0.00000
     10      16.2552      0.00000

 k-point    41 :       0.0000    0.5000    0.3333
  band No.  band energies     occupation
      1      -3.1831      2.00000
      2      -0.8903      2.00000
      3       2.0559      2.00000
      4       3.1333      2.00000
      5       6.7319      0.00000
      6       8.3302      0.00000
      7      12.9646      0.00000
      8      13.0079      0.00000
      9      16.1104      0.00000
     10      16.2545      0.00000

 k-point    42 :       0.3333    0.0000    0.5000
  band No.  band energies     occupation
      1      -3.1749      2.00000
      2      -0.9152      2.00000
      3       2.1020      2.00000
      4       3.1083      2.00000
      5       6.6998      0.00000
      6       8.3561      0.00000
      7      12.9970      0.00000
      8      13.0376      0.00000
      9      16.0888      0.00000
     10      16.2129      0.00000

 k-point    43 :       0.3333    0.3333   -0.1667
  band No.  band energies     occupation
      1      -3.1773      2.00000
      2      -0.9024      2.00000
      3       2.0516      2.00000
      4       3.1436      2.00000
      5       6.7462     -0.00000
      6       8.3163      0.00000
      7      12.9768      0.00000
      8      13.0054      0.00000
      9      16.1169      0.00000
     10      16.2425      0.00000

 k-point    44 :       0.5000    0.1667    0.5000
  band No.  band energies     occupation
      1      -3.1763      2.00000
      2      -0.9071      2.00000
      3       2.0683      2.00000
      4       3.1325      2.00000
      5       6.7303      0.00000
      6       8.3298      0.00000
      7      12.9777      0.00000
      8      13.0218      0.00000
      9      16.1038      0.00000
     10      16.2379      0.00000

 k-point    45 :       0.3333    0.5000    0.0000
  band No.  band energies     occupation
      1      -3.1813      2.00000
      2      -0.9017      2.00000
      3       2.1059      2.00000
      4       3.0971      2.00000
      5       6.6858     -0.00000
      6       8.3703      0.00000
      7      12.9937      0.00000
      8      13.0311      0.00000
      9      16.0852      0.00000
     10      16.2209      0.00000

 k-point    46 :       0.1667   -0.3333   -0.3333
  band No.  band energies     occupation
      1      -3.1950      2.00000
      2      -0.8651      2.00000
      3       2.0651      2.00000
      4       3.1108      2.00000
      5       6.7045      0.00000
      6       8.3577      0.00000
      7      12.9689      0.00000
      8      12.9846      0.00000
      9      16.1064      0.00000
     10      16.2647      0.00000

 k-point    47 :      -0.3333    0.3333    0.0000
  band No.  band energies     occupation
      1      -3.0175      2.00000
      2      -1.0513      2.00000
      3       1.3202      2.00000
      4       3.5273      2.00000
      5       7.1770      0.00000
      6      11.4336      0.00000
      7      12.0607      0.00000
      8      12.5642      0.00000
      9      12.9338      0.00000
     10      13.2567      0.00000

 k-point    48 :       0.0000   -0.3333    0.3333
  band No.  band energies     occupation
      1      -2.9845      2.00000
      2      -1.1098      2.00000
      3       1.3065      2.00000
      4       3.5678      2.00000
      5       7.2238      0.00000
      6      11.3818      0.00000
      7      12.0134      0.00000
      8      12.6040      0.00000
      9      12.9111      0.00000
     10      13.2862      0.00000

 k-point    49 :       0.3333   -0.0000   -0.3333
  band No.  band energies     occupation
      1      -3.0065      2.00000
      2      -1.0710      2.00000
      3       1.3159      2.00000
      4       3.5408      2.00000
      5       7.1928      0.00000
      6      11.4150      0.00000
      7      12.0443      0.00000
      8      12.5781      0.00000
      9      12.9280      0.00000
     10      13.2659      0.00000

 k-point    50 :       0.3333    0.3333   -0.3333
  band No.  band energies     occupation
      1      -2.9732      2.00000
      2      -1.1294      2.00000
      3       1.3023      2.00000
      4       3.5804      2.00000
      5       7.2401      0.00000
      6      11.3642      0.00000
      7      11.9970      0.00000
      8      12.6217      0.00000
      9      12.9031      0.00000
     10      13.2922      0.00000

 k-point    51 :       0.5000    0.5000    0.0000
  band No.  band energies     occupation
      1      -2.1621      2.00000
      2      -2.0846      2.00000
      3       2.8073      2.00000
      4       2.8492      2.00000
      5       6.3425      0.00000
      6       6.4019      0.00000
      7      15.5497      0.00000
      8      15.5689      0.00000
      9      16.5250      0.00000
     10      16.5343      0.00000

 k-point    52 :      -0.0000    0.5000    0.5000
  band No.  band energies     occupation
      1      -2.1427      2.00000
      2      -2.1045      2.00000
      3       2.8179      2.00000
      4       2.8394      2.00000
      5       6.3575      0.00000
      6       6.3867      0.00000
      7      15.5552      0.00000
      8      15.5644      0.00000
      9      16.5257      0.00000
     10      16.5312      0.00000

 k-point    53 :       0.5000    0.3333    0.1667
  band No.  band energies     occupation
      1      -3.9509      2.00000
      2       0.0330      2.00000
      3       2.1307      2.00000
      4       3.3641      2.00000
      5       8.4711      0.00000
      6       9.3385      0.00000
      7       9.7872      0.00000
      8      12.6078      0.00000
      9      14.5281      0.00000
     10      15.4326      0.00000

 k-point    54 :       0.1667    0.5000    0.3333
  band No.  band energies     occupation
      1      -3.9423      2.00000
      2      -0.0022      2.00000
      3       2.1325      2.00000
      4       3.3956      2.00000
      5       8.4598      0.00000
      6       9.3438      0.00000
      7       9.8132      0.00000
      8      12.6037      0.00000
      9      14.5237      0.00000
     10      15.4076      0.00000

 k-point    55 :       0.3333    0.1667    0.5000
  band No.  band energies     occupation
      1      -3.9380      2.00000
      2      -0.0197      2.00000
      3       2.1340      2.00000
      4       3.4102      2.00000
      5       8.4549      0.00000
      6       9.3463      0.00000
      7       9.8261      0.00000
      8      12.6024      0.00000
      9      14.5188      0.00000
     10      15.3967      0.00000

 k-point    56 :       0.5000    0.1667    0.3333
  band No.  band energies     occupation
      1      -3.9509      2.00000
      2       0.0326      2.00000
      3       2.1311      2.00000
      4       3.3642      2.00000
      5       8.4716      0.00000
      6       9.3374      0.00000
      7       9.7877      0.00000
      8      12.6071      0.00000
      9      14.5299      0.00000
     10      15.4314      0.00000

 k-point    57 :       0.1667   -0.3333   -0.1667
  band No.  band energies     occupation
      1      -3.9551      2.00000
      2       0.0505      2.00000
      3       2.1298      2.00000
      4       3.3488      2.00000
      5       8.4774      0.00000
      6       9.3336      0.00000
      7       9.7753      0.00000
      8      12.6097      0.00000
      9      14.5338      0.00000
     10      15.4417      0.00000

 k-point    58 :       0.1667    0.3333   -0.1667
  band No.  band energies     occupation
      1      -3.9424      2.00000
      2      -0.0018      2.00000
      3       2.1321      2.00000
      4       3.3955      2.00000
      5       8.4594      0.00000
      6       9.3448      0.00000
      7       9.8128      0.00000
      8      12.6044      0.00000
      9      14.5218      0.00000
     10      15.4087      0.00000

 k-point    59 :      -0.3333    0.3333    0.1667
  band No.  band energies     occupation
      1      -3.0149      2.00000
      2      -1.1011      2.00000
      3       1.6904      2.00000
      4       2.9040      2.00000
      5       8.9604      0.00000
      6       9.1245      0.00000
      7      11.7300      0.00000
      8      12.0545      0.00000
      9      13.0810      0.00000
     10      16.6175      0.00000

 k-point    60 :       0.1667   -0.3333    0.3333
  band No.  band energies     occupation
      1      -2.9800      2.00000
      2      -1.1643      2.00000
      3       1.6700      2.00000
      4       2.9569      2.00000
      5       9.0320      0.00000
      6       9.1113      0.00000
      7      11.6901      0.00000
      8      12.0342      0.00000
      9      13.0520      0.00000
     10      16.6637      0.00000

 k-point    61 :       0.3333    0.1667   -0.3333
  band No.  band energies     occupation
      1      -2.9733      2.00000
      2      -1.1827      2.00000
      3       1.7075      2.00000
      4       2.9284      2.00000
      5       8.9834      0.00000
      6       9.1589      0.00000
      7      11.6503      0.00000
      8      12.0699      0.00000
      9      13.1073      0.00000
     10      16.5987      0.00000

 k-point    62 :      -0.3333    0.3333    0.5000
  band No.  band energies     occupation
      1      -2.9765      2.00000
      2      -1.1791      2.00000
      3       1.7215      2.00000
      4       2.9127      2.00000
      5       8.9633      0.00000
      6       9.1699      0.00000
      7      11.6452      0.00000
      8      12.0841      0.00000
      9      13.1261      0.00000
     10      16.6167      0.00000

 k-point    63 :       0.1667    0.5000   -0.1667
  band No.  band energies     occupation
      1      -2.9897      2.00000
      2      -1.1526      2.00000
      3       1.7108      2.00000
      4       2.9101      2.00000
      5       8.9597      0.00000
      6       9.1572      0.00000
      7      11.6732      0.00000
      8      12.0738      0.00000
      9      13.1121      0.00000
     10      16.5940      0.00000

 k-point    64 :       0.3333   -0.1667   -0.3333
  band No.  band energies     occupation
      1      -3.0117      2.00000
      2      -1.1051      2.00000
      3       1.6768      2.00000
      4       2.9198      2.00000
      5       8.9838      0.00000
      6       9.1100      0.00000
      7      11.7356      0.00000
      8      12.0410      0.00000
      9      13.0612      0.00000
     10      16.6441      0.00000

 k-point    65 :       0.5000   -0.3333    0.3333
  band No.  band energies     occupation
      1      -2.9668      2.00000
      2      -1.1904      2.00000
      3       1.6803      2.00000
      4       2.9595      2.00000
      5       9.0324      0.00000
      6       9.1273      0.00000
      7      11.6615      0.00000
      8      12.0438      0.00000
      9      13.0670      0.00000
     10      16.6393      0.00000

 k-point    66 :      -0.3333    0.5000    0.1667
  band No.  band energies     occupation
      1      -2.0472      2.00000
      2      -1.9729      2.00000
      3       2.0395      2.00000
      4       2.0843      2.00000
      5       8.3434     -0.00000
      6       8.4022      0.00000
      7      12.2967      0.00000
      8      12.3229      0.00000
      9      16.0670      0.00000
     10      16.0776      0.00000

 k-point    67 :       0.1667   -0.3333    0.5000
  band No.  band energies     occupation
      1      -2.0304      2.00000
      2      -1.9902      2.00000
      3       2.0499      2.00000
      4       2.0745      2.00000
      5       8.3577      0.00000
      6       8.3876      0.00000
      7      12.2979      0.00000
      8      12.3222      0.00000
      9      16.0677      0.00000
     10      16.0756      0.00000

 k-point    68 :       0.5000    0.1667   -0.3333
  band No.  band energies     occupation
      1      -2.0367      2.00000
      2      -1.9838      2.00000
      3       2.0468      2.00000
      4       2.0774      2.00000
      5       8.3561      0.00000
      6       8.3894      0.00000
      7      12.2858      0.00000
      8      12.3339      0.00000
      9      16.0645      0.00000
     10      16.0803      0.00000


--------------------------------------------------------------------------------------------------------


 soft charge-density along one line, spin component           1
         0         1         2         3         4         5         6         7         8         9
 total charge-density along one line

 pseudopotential strength for first ion, spin component:           1
 18.436  25.722  -0.000   0.000  -0.001  -0.000   0.000  -0.001
 25.722  35.891  -0.000   0.000  -0.001  -0.000   0.000  -0.001
 -0.000  -0.000   4.181   0.000   0.000   7.790   0.000   0.000
  0.000   0.000   0.000   4.181   0.000   0.000   7.791   0.000
 -0.001  -0.001   0.000   0.000   4.181   0.000   0.000   7.790
 -0.000  -0.000   7.790   0.000   0.000  14.528   0.000   0.000
  0.000   0.000   0.000   7.791   0.000   0.000  14.528   0.000
 -0.001  -0.001   0.000   0.000   7.790   0.000   0.000  14.528
 total augmentation occupancy for first ion, spin component:           1
  2.000   0.000   0.000   0.000   0.000   0.000   0.000   0.000
  0.000   0.000   0.000   0.000   0.000   0.000   0.000   0.000
  0.000   0.000   0.667  -0.000   0.000   0.000   0.000   0.000
  0.000   0.000  -0.000   0.667  -0.000   0.000   0.000   0.000
  0.000   0.000   0.000  -0.000   0.667   0.000   0.000   0.000
  0.000   0.000   0.000   0.000   0.000   0.000   0.000   0.000
  0.000   0.000   0.000   0.000   0.000   0.000   0.000   0.000
  0.000   0.000   0.000   0.000   0.000   0.000   0.000   0.000


------------------------ aborting loop because EDIFF is reached ----------------------------------------





 total charge

# of ion       s       p       d       tot
------------------------------------------
    1        0.748   0.931   0.000   1.679
    2        0.748   0.931   0.000   1.679
--------------------------------------------------
tot          1.496   1.862   0.000   3.359

    CHARGE:  cpu time    0.0401: real time    0.0403
    FORLOC:  cpu time    0.0024: real time    0.0024
    FORNL :  cpu time    0.3057: real time    0.3066
    STRESS:  cpu time    0.8705: real time    0.8743
    FORCOR:  cpu time    0.0449: real time    0.0452
    FORHAR:  cpu time    0.0117: real time    0.0118
    OFIELD:  cpu time    0.0003: real time    0.0003

  FORCE on cell =-STRESS in cart. coord.  units (eV):
  Direction    XX          YY          ZZ          XY          YZ          ZX
  --------------------------------------------------------------------------------------
  Alpha Z     3.29318     3.29318     3.29318
  Ewald     -76.59536   -75.64997   -74.69705     0.66532    -0.00008    -0.00011
  Hartree     4.96924     5.07731     5.18613     0.07634     0.00000     0.00000
  E(xc)     -25.24783   -25.25588   -25.26406    -0.00566     0.00000     0.00000
  Local     -28.53056   -29.52997   -30.53602    -0.70292     0.00005     0.00006
  n-local    77.18241    77.37660    77.57142     0.13568     0.03313     0.58816
  augment   -11.61259   -11.62109   -11.62976    -0.00598    -0.00000    -0.00000
  Kinetic    56.44908    56.32445    56.20012    -0.08752     0.13063     0.54682
  Fock        0.00000     0.00000     0.00000     0.00000     0.00000     0.00000
  -------------------------------------------------------------------------------------
  Total      -0.09242     0.01462     0.12397     0.07525    -0.00000     0.00000
  in kB      -3.62152     0.57297     4.85749     2.94879    -0.00000     0.00000
  external pressure =        0.60 kB  Pullay stress =        0.00 kB


 VOLUME and BASIS-vectors are now :
 -----------------------------------------------------------------------------
  energy-cutoff  :      680.00
  volume of cell :       40.89
      direct lattice vectors                 reciprocal lattice vectors
     3.348898000  0.000000000  1.933487000     0.298605691 -0.105573000  0.000000000
     1.116299000  3.157372000  1.933487000     0.000000000  0.316719094  0.000000000
     0.000000000  0.000000000  3.866975000    -0.149302807 -0.105573020  0.258600069

  length of vectors
     3.866974243  3.866974707  3.866975000     0.316719145  0.316719094  0.316719096


 FORCES acting on ions
    electron-ion (+dipol)            ewald-force                    non-local-force                 convergence-correction
 -----------------------------------------------------------------------------------------------
   -.343E+00 -.618E-02 -.106E-03   0.347E+00 0.511E-02 -.333E-04   0.191E+00 0.417E-02 -.289E-07   0.505E-04 0.321E-04 -.188E-08
   0.343E+00 0.615E-02 0.111E-04   -.347E+00 -.511E-02 0.333E-04   -.191E+00 -.417E-02 0.289E-07   -.505E-04 -.321E-04 0.385E-09
 -----------------------------------------------------------------------------------------------
   -.901E-04 -.331E-04 -.946E-04   0.000E+00 -.107E-15 0.149E-15   0.000E+00 0.867E-18 0.951E-17   -.827E-09 -.580E-09 -.150E-08


 POSITION                                       TOTAL-FORCE (eV/Angst)
 -----------------------------------------------------------------------------------
      1.10130      0.78934      1.93349         0.194340      0.003151     -0.000000
      0.00000      0.00000      0.00000        -0.194340     -0.003151      0.000000
 -----------------------------------------------------------------------------------
    total drift:                               -0.000090     -0.000033     -0.000095


--------------------------------------------------------------------------------------------------------



  FREE ENERGIE OF THE ION-ELECTRON SYSTEM (eV)
  ---------------------------------------------------
  free  energy   TOTEN  =       -10.82603193 eV

  energy  without entropy=      -10.82603193  energy(sigma->0) =      -10.82603193



--------------------------------------------------------------------------------------------------------


    POTLOK:  cpu time    0.0862: real time    0.0867


--------------------------------------------------------------------------------------------------------


     LOOP+:  cpu time   10.5424: real time   10.6093
    4ORBIT:  cpu time    0.0000: real time    0.0000



 total charge

# of ion       s       p       d       tot
------------------------------------------
    1        0.748   0.931   0.000   1.679
    2        0.748   0.931   0.000   1.679
--------------------------------------------------
tot          1.496   1.862   0.000   3.359

 BZINTS: Fermi energy:    6.342706;    8.000000 electrons
         Band energy: 0.499718E+01;  BLOECHL correction:   -0.000000

 total amount of memory used by VASP MPI-rank0    43803. kBytes
=======================================================================

   base      :      30000. kBytes
   nonlr-proj:        481. kBytes
   fftplans  :       3554. kBytes
   grid      :       5033. kBytes
   one-center:          3. kBytes
   wavefun   :       4732. kBytes



 General timing and accounting informations for this job:
 ========================================================

                  Total CPU time used (sec):       14.402
                            User time (sec):       13.108
                          System time (sec):        1.294
                         Elapsed time (sec):       14.488

                   Maximum memory used (kb):    45793280.
                   Average memory used (kb):          N/A

                          Minor page faults:        15509
                          Major page faults:           45
                 Voluntary context switches:           11
