<?xml version="1.0" encoding="ISO-8859-1"?>
<modeling>
 <generator>
  <i name="program" type="string">vasp </i>
  <i name="version" type="string">6.2.1  </i>
  <i name="subversion" type="string">16May21 (build Oct 27 2021 18:14:32) complex                          parallel </i>
  <i name="platform" type="string">LinuxIFC </i>
  <i name="date" type="string">2021 11 23 </i>
  <i name="time" type="string">17:36:16 </i>
 </generator>
 <incar>
  <i type="string" name="PREC">Accurate</i>
  <i type="string" name="ALGO">Normal</i>
  <i type="int" name="ISPIN">     1</i>
  <i type="int" name="ICHARG">    11</i>
  <i type="int" name="NELM">   200</i>
  <i type="int" name="IBRION">    -1</i>
  <i name="EDIFF">      0.00001000</i>
  <i name="EDIFFG">     -0.02000000</i>
  <i type="int" name="NSW">     0</i>
  <i type="int" name="ISIF">     3</i>
  <i type="int" name="ISYM">     2</i>
  <i name="ENCUT">    680.00000000</i>
  <i name="ENAUG">   1360.00000000</i>
  <i type="int" name="NBANDS">    10</i>
  <i type="int" name="NEDOS">  4352</i>
  <i type="string" name="LREAL">Auto</i>
  <i type="int" name="ISMEAR">    -5</i>
  <i name="SIGMA">      0.05000000</i>
  <i type="logical" name="LWAVE"> F  </i>
  <i type="logical" name="LCHARG"> F  </i>
  <i type="logical" name="LVTOT"> T  </i>
  <i type="int" name="LORBIT">    11</i>
  <i type="logical" name="LELF"> T  </i>
  <i type="logical" name="LASPH"> T  </i>
  <i type="logical" name="LAECHG"> T  </i>
  <i type="logical" name="LMIXTAU"> T  </i>
 </incar>
 <primitive_cell>
  <structure name="primitive_cell" >
   <crystal>
    <varray name="basis" >
     <v>       3.34889800       0.00000000       1.93348700 </v>
     <v>       1.11629900       3.15737200       1.93348700 </v>
     <v>       0.00000000       0.00000000       3.86697500 </v>
    </varray>
    <i name="volume">     40.88829843 </i>
    <varray name="rec_basis" >
     <v>       0.29860569      -0.10557300       0.00000000 </v>
     <v>       0.00000000       0.31671909       0.00000000 </v>
     <v>      -0.14930281      -0.10557302       0.25860007 </v>
    </varray>
   </crystal>
   <varray name="positions" >
    <v>       0.24552100       0.25000000       0.25224000 </v>
    <v>       0.00000000       0.00000000       0.00000000 </v>
   </varray>
  </structure>
  <varray name="primitive_index" >
   <v type="int" >        1 </v>
   <v type="int" >        2 </v>
  </varray>
 </primitive_cell>
 <kpoints>
  <generation param="Gamma">
   <v type="int" name="divisions">       6        6        6 </v>
   <v name="usershift">      0.00000000       0.00000000       0.00000000 </v>
   <v name="genvec1">      0.16666667      -0.00000000       0.00000000 </v>
   <v name="genvec2">      0.00000000       0.16666667       0.00000000 </v>
   <v name="genvec3">      0.00000000       0.00000000       0.16666667 </v>
   <v name="shift">      0.00000000       0.00000000       0.00000000 </v>
  </generation>
  <varray name="kpointlist" >
   <v>       0.00000000       0.00000000       0.00000000 </v>
   <v>       0.16666667       0.00000000       0.00000000 </v>
   <v>      -0.00000000       0.16666667       0.00000000 </v>
   <v>       0.00000000       0.00000000       0.16666667 </v>
   <v>       0.33333333       0.00000000       0.00000000 </v>
   <v>       0.00000000       0.33333333       0.00000000 </v>
   <v>       0.00000000       0.00000000       0.33333333 </v>
   <v>       0.50000000       0.00000000       0.00000000 </v>
   <v>       0.00000000       0.50000000       0.00000000 </v>
   <v>      -0.00000000       0.00000000       0.50000000 </v>
   <v>       0.16666667       0.16666667       0.00000000 </v>
   <v>       0.00000000       0.16666667       0.16666667 </v>
   <v>       0.33333333       0.16666667       0.00000000 </v>
   <v>       0.00000000       0.33333333       0.16666667 </v>
   <v>       0.16666667       0.00000000       0.33333333 </v>
   <v>       0.16666667       0.16666667      -0.16666667 </v>
   <v>       0.33333333       0.16666667       0.33333333 </v>
   <v>       0.16666667       0.33333333       0.00000000 </v>
   <v>       0.16666667      -0.16666667      -0.16666667 </v>
   <v>       0.50000000       0.16666667       0.00000000 </v>
   <v>       0.00000000       0.50000000       0.16666667 </v>
   <v>       0.16666667       0.00000000       0.50000000 </v>
   <v>       0.16666667       0.16666667      -0.33333333 </v>
   <v>       0.50000000       0.33333333       0.50000000 </v>
   <v>       0.16666667       0.50000000       0.00000000 </v>
   <v>       0.33333333      -0.16666667      -0.16666667 </v>
   <v>      -0.33333333       0.16666667       0.00000000 </v>
   <v>       0.00000000      -0.33333333       0.16666667 </v>
   <v>       0.16666667      -0.00000000      -0.33333333 </v>
   <v>       0.16666667       0.16666667       0.50000000 </v>
   <v>      -0.33333333       0.50000000      -0.33333333 </v>
   <v>       0.16666667      -0.33333333       0.00000000 </v>
   <v>       0.50000000      -0.16666667      -0.16666667 </v>
   <v>      -0.16666667       0.16666667       0.00000000 </v>
   <v>       0.00000000      -0.16666667       0.16666667 </v>
   <v>       0.16666667       0.00000000      -0.16666667 </v>
   <v>       0.16666667       0.16666667       0.33333333 </v>
   <v>       0.33333333       0.33333333       0.00000000 </v>
   <v>       0.00000000       0.33333333       0.33333333 </v>
   <v>       0.50000000       0.33333333       0.00000000 </v>
   <v>       0.00000000       0.50000000       0.33333333 </v>
   <v>       0.33333333       0.00000000       0.50000000 </v>
   <v>       0.33333333       0.33333333      -0.16666667 </v>
   <v>       0.50000000       0.16666667       0.50000000 </v>
   <v>       0.33333333       0.50000000       0.00000000 </v>
   <v>       0.16666667      -0.33333333      -0.33333333 </v>
   <v>      -0.33333333       0.33333333       0.00000000 </v>
   <v>       0.00000000      -0.33333333       0.33333333 </v>
   <v>       0.33333333      -0.00000000      -0.33333333 </v>
   <v>       0.33333333       0.33333333      -0.33333333 </v>
   <v>       0.50000000       0.50000000       0.00000000 </v>
   <v>      -0.00000000       0.50000000       0.50000000 </v>
   <v>       0.50000000       0.33333333       0.16666667 </v>
   <v>       0.16666667       0.50000000       0.33333333 </v>
   <v>       0.33333333       0.16666667       0.50000000 </v>
   <v>       0.50000000       0.16666667       0.33333333 </v>
   <v>       0.16666667      -0.33333333      -0.16666667 </v>
   <v>       0.16666667       0.33333333      -0.16666667 </v>
   <v>      -0.33333333       0.33333333       0.16666667 </v>
   <v>       0.16666667      -0.33333333       0.33333333 </v>
   <v>       0.33333333       0.16666667      -0.33333333 </v>
   <v>      -0.33333333       0.33333333       0.50000000 </v>
   <v>       0.16666667       0.50000000      -0.16666667 </v>
   <v>       0.33333333      -0.16666667      -0.33333333 </v>
   <v>       0.50000000      -0.33333333       0.33333333 </v>
   <v>      -0.33333333       0.50000000       0.16666667 </v>
   <v>       0.16666667      -0.33333333       0.50000000 </v>
   <v>       0.50000000       0.16666667      -0.33333333 </v>
  </varray>
  <varray name="weights" >
   <v>       0.00462963 </v>
   <v>       0.00925926 </v>
   <v>       0.00925926 </v>
   <v>       0.01851852 </v>
   <v>       0.00925926 </v>
   <v>       0.00925926 </v>
   <v>       0.01851852 </v>
   <v>       0.00462963 </v>
   <v>       0.00462963 </v>
   <v>       0.00925926 </v>
   <v>       0.00925926 </v>
   <v>       0.01851852 </v>
   <v>       0.00925926 </v>
   <v>       0.01851852 </v>
   <v>       0.01851852 </v>
   <v>       0.01851852 </v>
   <v>       0.01851852 </v>
   <v>       0.00925926 </v>
   <v>       0.01851852 </v>
   <v>       0.00925926 </v>
   <v>       0.01851852 </v>
   <v>       0.01851852 </v>
   <v>       0.01851852 </v>
   <v>       0.01851852 </v>
   <v>       0.00925926 </v>
   <v>       0.01851852 </v>
   <v>       0.00925926 </v>
   <v>       0.01851852 </v>
   <v>       0.01851852 </v>
   <v>       0.01851852 </v>
   <v>       0.01851852 </v>
   <v>       0.00925926 </v>
   <v>       0.01851852 </v>
   <v>       0.00925926 </v>
   <v>       0.01851852 </v>
   <v>       0.01851852 </v>
   <v>       0.00925926 </v>
   <v>       0.00925926 </v>
   <v>       0.01851852 </v>
   <v>       0.00925926 </v>
   <v>       0.01851852 </v>
   <v>       0.01851852 </v>
   <v>       0.01851852 </v>
   <v>       0.01851852 </v>
   <v>       0.00925926 </v>
   <v>       0.01851852 </v>
   <v>       0.00925926 </v>
   <v>       0.01851852 </v>
   <v>       0.01851852 </v>
   <v>       0.00925926 </v>
   <v>       0.00462963 </v>
   <v>       0.00925926 </v>
   <v>       0.01851852 </v>
   <v>       0.01851852 </v>
   <v>       0.01851852 </v>
   <v>       0.01851852 </v>
   <v>       0.01851852 </v>
   <v>       0.01851852 </v>
   <v>       0.01851852 </v>
   <v>       0.00925926 </v>
   <v>       0.01851852 </v>
   <v>       0.01851852 </v>
   <v>       0.01851852 </v>
   <v>       0.00925926 </v>
   <v>       0.01851852 </v>
   <v>       0.01851852 </v>
   <v>       0.01851852 </v>
   <v>       0.01851852 </v>
  </varray>
  <varray name="tetrahedronlist"  type="int" >
   <v type="int" >        4        1        3        4       11 </v>
   <v type="int" >        4        1        2        4       11 </v>
   <v type="int" >        4        1        2        4       12 </v>
   <v type="int" >        4        1        3        4       12 </v>
   <v type="int" >        4        1        4        4       12 </v>
   <v type="int" >        4        2       11       13       36 </v>
   <v type="int" >        4        2        5       13       36 </v>
   <v type="int" >        4        2        5       19       36 </v>
   <v type="int" >        4        2        4       11       36 </v>
   <v type="int" >        4        2        4       12       36 </v>
   <v type="int" >        4        2       12       19       36 </v>
   <v type="int" >        4        5       13       20       33 </v>
   <v type="int" >        4        5        8       20       33 </v>
   <v type="int" >        4        5        8       26       33 </v>
   <v type="int" >        4        5       13       33       36 </v>
   <v type="int" >        4        5       19       33       36 </v>
   <v type="int" >        4        5       19       26       33 </v>
   <v type="int" >        4        8       20       26       27 </v>
   <v type="int" >        4        5        8       26       27 </v>
   <v type="int" >        4        8       20       26       33 </v>
   <v type="int" >        4        8       26       26       33 </v>
   <v type="int" >        4        5       19       27       34 </v>
   <v type="int" >        4        2        5       19       34 </v>
   <v type="int" >        4        5       19       26       27 </v>
   <v type="int" >        4        2        3       12       34 </v>
   <v type="int" >        4        1        2        3       12 </v>
   <v type="int" >        4        2       12       19       34 </v>
   <v type="int" >        4        3        6       18       35 </v>
   <v type="int" >        4        3       11       18       35 </v>
   <v type="int" >        4        3        4       11       35 </v>
   <v type="int" >        4        3        6       14       35 </v>
   <v type="int" >        4        3       12       14       35 </v>
   <v type="int" >        4        3        4       12       35 </v>
   <v type="int" >        4       11       16       18       38 </v>
   <v type="int" >        4       11       13       16       38 </v>
   <v type="int" >        4       11       13       16       36 </v>
   <v type="int" >        4       11       16       18       35 </v>
   <v type="int" >        4        4       11       16       35 </v>
   <v type="int" >        4        4       11       16       36 </v>
   <v type="int" >        4       13       38       40       53 </v>
   <v type="int" >        4       13       20       40       53 </v>
   <v type="int" >        4       13       20       33       53 </v>
   <v type="int" >        4       13       16       38       53 </v>
   <v type="int" >        4       13       16       36       53 </v>
   <v type="int" >        4       13       33       36       53 </v>
   <v type="int" >        4       20       40       47       59 </v>
   <v type="int" >        4       20       27       47       59 </v>
   <v type="int" >        4       20       26       27       59 </v>
   <v type="int" >        4       20       40       53       59 </v>
   <v type="int" >        4       20       33       53       59 </v>
   <v type="int" >        4       20       26       33       59 </v>
   <v type="int" >        4       27       32       47       57 </v>
   <v type="int" >        4       27       32       34       57 </v>
   <v type="int" >        4       19       27       34       57 </v>
   <v type="int" >        4       27       47       57       59 </v>
   <v type="int" >        4       26       27       57       59 </v>
   <v type="int" >        4       19       26       27       57 </v>
   <v type="int" >        4        6       14       32       34 </v>
   <v type="int" >        4        3        6       14       34 </v>
   <v type="int" >        4        3       12       14       34 </v>
   <v type="int" >        4       14       32       34       57 </v>
   <v type="int" >        4       14       19       34       57 </v>
   <v type="int" >        4       12       14       19       34 </v>
   <v type="int" >        4        6        9       25       28 </v>
   <v type="int" >        4        6       18       25       28 </v>
   <v type="int" >        4        6       18       28       35 </v>
   <v type="int" >        4        6        9       21       28 </v>
   <v type="int" >        4        6       14       21       28 </v>
   <v type="int" >        4        6       14       28       35 </v>
   <v type="int" >        4       18       25       45       58 </v>
   <v type="int" >        4       18       38       45       58 </v>
   <v type="int" >        4       16       18       38       58 </v>
   <v type="int" >        4       18       25       28       58 </v>
   <v type="int" >        4       18       28       35       58 </v>
   <v type="int" >        4       16       18       35       58 </v>
   <v type="int" >        4       38       43       45       51 </v>
   <v type="int" >        4       38       40       43       51 </v>
   <v type="int" >        4       38       40       43       53 </v>
   <v type="int" >        4       38       43       45       58 </v>
   <v type="int" >        4       16       38       43       58 </v>
   <v type="int" >        4       16       38       43       53 </v>
   <v type="int" >        4       40       45       51       66 </v>
   <v type="int" >        4       40       45       47       66 </v>
   <v type="int" >        4       40       47       59       66 </v>
   <v type="int" >        4       40       43       51       66 </v>
   <v type="int" >        4       40       43       53       66 </v>
   <v type="int" >        4       40       53       59       66 </v>
   <v type="int" >        4       25       45       47       63 </v>
   <v type="int" >        4       25       32       47       63 </v>
   <v type="int" >        4       32       47       57       63 </v>
   <v type="int" >        4       45       47       63       66 </v>
   <v type="int" >        4       47       59       63       66 </v>
   <v type="int" >        4       47       57       59       63 </v>
   <v type="int" >        4        9       21       25       32 </v>
   <v type="int" >        4        6        9       21       32 </v>
   <v type="int" >        4        6       14       21       32 </v>
   <v type="int" >        4       21       25       32       63 </v>
   <v type="int" >        4       21       32       57       63 </v>
   <v type="int" >        4       14       21       32       57 </v>
   <v type="int" >        4        9       21       25       28 </v>
   <v type="int" >        4        9       21       21       28 </v>
   <v type="int" >        4       25       45       58       63 </v>
   <v type="int" >        4       21       25       28       63 </v>
   <v type="int" >        4       25       28       58       63 </v>
   <v type="int" >        4       43       45       51       66 </v>
   <v type="int" >        4       45       58       63       66 </v>
   <v type="int" >        4       43       45       58       66 </v>
   <v type="int" >        4       43       43       51       66 </v>
   <v type="int" >        4        4        4       12       37 </v>
   <v type="int" >        4        4       12       15       37 </v>
   <v type="int" >        4        4       12       17       37 </v>
   <v type="int" >        4        4        7       17       37 </v>
   <v type="int" >        4        4        7       15       37 </v>
   <v type="int" >        4        4       12       17       36 </v>
   <v type="int" >        4       12       17       19       36 </v>
   <v type="int" >        4       12       17       19       39 </v>
   <v type="int" >        4       12       15       17       37 </v>
   <v type="int" >        4       12       15       17       39 </v>
   <v type="int" >        4       19       33       36       56 </v>
   <v type="int" >        4       19       26       33       56 </v>
   <v type="int" >        4       19       26       46       56 </v>
   <v type="int" >        4       17       19       36       56 </v>
   <v type="int" >        4       17       19       39       56 </v>
   <v type="int" >        4       19       39       46       56 </v>
   <v type="int" >        4       26       26       33       64 </v>
   <v type="int" >        4       26       33       49       64 </v>
   <v type="int" >        4       26       33       56       64 </v>
   <v type="int" >        4       26       46       56       64 </v>
   <v type="int" >        4       26       46       49       64 </v>
   <v type="int" >        4       29       33       36       56 </v>
   <v type="int" >        4       33       49       56       64 </v>
   <v type="int" >        4       29       33       49       56 </v>
   <v type="int" >        4        4        7       17       36 </v>
   <v type="int" >        4       17       29       36       56 </v>
   <v type="int" >        4        7       17       29       36 </v>
   <v type="int" >        4       12       14       15       35 </v>
   <v type="int" >        4        4       12       15       35 </v>
   <v type="int" >        4       12       14       15       39 </v>
   <v type="int" >        4        4        7       16       35 </v>
   <v type="int" >        4        4        7       16       36 </v>
   <v type="int" >        4        4        7       15       35 </v>
   <v type="int" >        4       16       29       36       53 </v>
   <v type="int" >        4       29       33       36       53 </v>
   <v type="int" >        4        7       16       29       36 </v>
   <v type="int" >        4       33       49       53       59 </v>
   <v type="int" >        4       26       33       49       59 </v>
   <v type="int" >        4       29       33       49       53 </v>
   <v type="int" >        4       26       46       57       59 </v>
   <v type="int" >        4       19       26       46       57 </v>
   <v type="int" >        4       26       46       49       59 </v>
   <v type="int" >        4       14       19       39       57 </v>
   <v type="int" >        4       12       14       19       39 </v>
   <v type="int" >        4       19       39       46       57 </v>
   <v type="int" >        4       14       21       28       54 </v>
   <v type="int" >        4       14       28       35       54 </v>
   <v type="int" >        4       14       15       35       54 </v>
   <v type="int" >        4       14       21       41       54 </v>
   <v type="int" >        4       14       39       41       54 </v>
   <v type="int" >        4       14       15       39       54 </v>
   <v type="int" >        4       28       31       35       58 </v>
   <v type="int" >        4       16       31       35       58 </v>
   <v type="int" >        4        7       16       31       35 </v>
   <v type="int" >        4       28       31       35       54 </v>
   <v type="int" >        4       15       31       35       54 </v>
   <v type="int" >        4        7       15       31       35 </v>
   <v type="int" >        4       16       23       43       58 </v>
   <v type="int" >        4       16       23       43       53 </v>
   <v type="int" >        4       16       23       29       53 </v>
   <v type="int" >        4       16       23       31       58 </v>
   <v type="int" >        4        7       16       23       31 </v>
   <v type="int" >        4        7       16       23       29 </v>
   <v type="int" >        4       43       53       61       66 </v>
   <v type="int" >        4       53       59       61       66 </v>
   <v type="int" >        4       49       53       59       61 </v>
   <v type="int" >        4       23       43       53       61 </v>
   <v type="int" >        4       23       29       53       61 </v>
   <v type="int" >        4       29       49       53       61 </v>
   <v type="int" >        4       59       63       66       68 </v>
   <v type="int" >        4       57       59       63       68 </v>
   <v type="int" >        4       46       57       59       68 </v>
   <v type="int" >        4       59       61       66       68 </v>
   <v type="int" >        4       49       59       61       68 </v>
   <v type="int" >        4       46       49       59       68 </v>
   <v type="int" >        4       21       41       57       63 </v>
   <v type="int" >        4       14       21       41       57 </v>
   <v type="int" >        4       14       39       41       57 </v>
   <v type="int" >        4       41       57       63       68 </v>
   <v type="int" >        4       41       46       57       68 </v>
   <v type="int" >        4       39       41       46       57 </v>
   <v type="int" >        4       21       21       28       60 </v>
   <v type="int" >        4       21       28       54       60 </v>
   <v type="int" >        4       21       28       48       60 </v>
   <v type="int" >        4       21       41       48       60 </v>
   <v type="int" >        4       21       41       54       60 </v>
   <v type="int" >        4       21       28       48       63 </v>
   <v type="int" >        4       28       48       58       63 </v>
   <v type="int" >        4       28       31       48       58 </v>
   <v type="int" >        4       28       48       54       60 </v>
   <v type="int" >        4       28       31       48       54 </v>
   <v type="int" >        4       58       63       65       66 </v>
   <v type="int" >        4       43       58       65       66 </v>
   <v type="int" >        4       23       43       58       65 </v>
   <v type="int" >        4       48       58       63       65 </v>
   <v type="int" >        4       31       48       58       65 </v>
   <v type="int" >        4       23       31       58       65 </v>
   <v type="int" >        4       43       43       50       66 </v>
   <v type="int" >        4       43       50       61       66 </v>
   <v type="int" >        4       43       50       65       66 </v>
   <v type="int" >        4       23       43       50       65 </v>
   <v type="int" >        4       23       43       50       61 </v>
   <v type="int" >        4       63       65       66       68 </v>
   <v type="int" >        4       50       61       65       66 </v>
   <v type="int" >        4       61       65       66       68 </v>
   <v type="int" >        4       21       41       48       63 </v>
   <v type="int" >        4       48       63       65       68 </v>
   <v type="int" >        4       41       48       63       68 </v>
   <v type="int" >        4        7       17       30       37 </v>
   <v type="int" >        4        7       15       30       37 </v>
   <v type="int" >        4        7       15       22       30 </v>
   <v type="int" >        4        7       17       24       30 </v>
   <v type="int" >        4        7       10       24       30 </v>
   <v type="int" >        4        7       10       22       30 </v>
   <v type="int" >        4       15       17       37       55 </v>
   <v type="int" >        4       15       17       39       55 </v>
   <v type="int" >        4       15       39       42       55 </v>
   <v type="int" >        4       15       30       37       55 </v>
   <v type="int" >        4       15       22       30       55 </v>
   <v type="int" >        4       15       22       42       55 </v>
   <v type="int" >        4       17       39       44       56 </v>
   <v type="int" >        4       39       44       46       56 </v>
   <v type="int" >        4       39       44       46       52 </v>
   <v type="int" >        4       17       39       44       55 </v>
   <v type="int" >        4       39       42       44       55 </v>
   <v type="int" >        4       39       42       44       52 </v>
   <v type="int" >        4       46       56       64       67 </v>
   <v type="int" >        4       46       49       64       67 </v>
   <v type="int" >        4       42       46       49       67 </v>
   <v type="int" >        4       44       46       56       67 </v>
   <v type="int" >        4       44       46       52       67 </v>
   <v type="int" >        4       42       46       52       67 </v>
   <v type="int" >        4       49       56       62       64 </v>
   <v type="int" >        4       29       49       56       62 </v>
   <v type="int" >        4       22       29       49       62 </v>
   <v type="int" >        4       49       62       64       67 </v>
   <v type="int" >        4       42       49       62       67 </v>
   <v type="int" >        4       22       42       49       62 </v>
   <v type="int" >        4       17       24       29       56 </v>
   <v type="int" >        4        7       17       24       29 </v>
   <v type="int" >        4        7       10       24       29 </v>
   <v type="int" >        4       24       29       56       62 </v>
   <v type="int" >        4       22       24       29       62 </v>
   <v type="int" >        4       10       22       24       29 </v>
   <v type="int" >        4       17       30       37       55 </v>
   <v type="int" >        4       17       24       44       55 </v>
   <v type="int" >        4       17       24       30       55 </v>
   <v type="int" >        4       30       30       37       55 </v>
   <v type="int" >        4       17       24       44       56 </v>
   <v type="int" >        4       56       62       64       67 </v>
   <v type="int" >        4       24       44       56       62 </v>
   <v type="int" >        4       44       56       62       67 </v>
   <v type="int" >        4       62       64       67       67 </v>
   <v type="int" >        4       39       41       42       54 </v>
   <v type="int" >        4       15       39       42       54 </v>
   <v type="int" >        4       39       41       42       52 </v>
   <v type="int" >        4       15       22       31       54 </v>
   <v type="int" >        4        7       15       22       31 </v>
   <v type="int" >        4       15       22       42       54 </v>
   <v type="int" >        4        7       10       23       31 </v>
   <v type="int" >        4        7       10       23       29 </v>
   <v type="int" >        4        7       10       22       31 </v>
   <v type="int" >        4       22       23       29       61 </v>
   <v type="int" >        4       22       29       49       61 </v>
   <v type="int" >        4       10       22       23       29 </v>
   <v type="int" >        4       42       49       61       68 </v>
   <v type="int" >        4       42       46       49       68 </v>
   <v type="int" >        4       22       42       49       61 </v>
   <v type="int" >        4       41       46       52       68 </v>
   <v type="int" >        4       39       41       46       52 </v>
   <v type="int" >        4       42       46       52       68 </v>
   <v type="int" >        4       41       48       60       67 </v>
   <v type="int" >        4       41       54       60       67 </v>
   <v type="int" >        4       41       42       54       67 </v>
   <v type="int" >        4       41       44       48       67 </v>
   <v type="int" >        4       41       44       52       67 </v>
   <v type="int" >        4       41       42       52       67 </v>
   <v type="int" >        4       48       54       60       62 </v>
   <v type="int" >        4       31       48       54       62 </v>
   <v type="int" >        4       22       31       54       62 </v>
   <v type="int" >        4       54       60       62       67 </v>
   <v type="int" >        4       42       54       62       67 </v>
   <v type="int" >        4       22       42       54       62 </v>
   <v type="int" >        4       24       31       48       65 </v>
   <v type="int" >        4       23       24       31       65 </v>
   <v type="int" >        4       10       23       24       31 </v>
   <v type="int" >        4       24       31       48       62 </v>
   <v type="int" >        4       22       24       31       62 </v>
   <v type="int" >        4       10       22       24       31 </v>
   <v type="int" >        4       23       30       50       65 </v>
   <v type="int" >        4       23       30       50       61 </v>
   <v type="int" >        4       22       23       30       61 </v>
   <v type="int" >        4       23       24       30       65 </v>
   <v type="int" >        4       10       23       24       30 </v>
   <v type="int" >        4       10       22       23       30 </v>
   <v type="int" >        4       50       55       61       65 </v>
   <v type="int" >        4       55       61       65       68 </v>
   <v type="int" >        4       42       55       61       68 </v>
   <v type="int" >        4       30       50       55       61 </v>
   <v type="int" >        4       22       30       55       61 </v>
   <v type="int" >        4       22       42       55       61 </v>
   <v type="int" >        4       44       48       65       68 </v>
   <v type="int" >        4       41       44       48       68 </v>
   <v type="int" >        4       41       44       52       68 </v>
   <v type="int" >        4       44       55       65       68 </v>
   <v type="int" >        4       42       44       55       68 </v>
   <v type="int" >        4       42       44       52       68 </v>
   <v type="int" >        4       48       60       62       67 </v>
   <v type="int" >        4       24       44       48       62 </v>
   <v type="int" >        4       44       48       62       67 </v>
   <v type="int" >        4       60       62       67       67 </v>
   <v type="int" >        4       24       44       48       65 </v>
   <v type="int" >        4       30       50       55       65 </v>
   <v type="int" >        4       24       44       55       65 </v>
   <v type="int" >        4       24       30       55       65 </v>
   <v type="int" >        4       30       30       50       55 </v>
  </varray>
  <i name="volumeweight">      0.00077160 </i>
 </kpoints>
 <parameters>
  <separator name="general" >
   <i type="string" name="SYSTEM">unknown system</i>
   <i type="logical" name="LCOMPAT"> F  </i>
  </separator>
  <separator name="electronic" >
   <i type="string" name="PREC">accura</i>
   <i name="ENMAX">    680.00000000</i>
   <i name="ENAUG">   1360.00000000</i>
   <i name="EDIFF">      0.00001000</i>
   <i type="int" name="IALGO">    38</i>
   <i type="int" name="IWAVPR">    10</i>
   <i type="int" name="NBANDS">    10</i>
   <i type="int" name="NBANDSLOW">    -1</i>
   <i type="int" name="NBANDSHIGH">    -1</i>
   <i name="NELECT">      8.00000000</i>
   <i type="int" name="TURBO">     0</i>
   <i type="int" name="IRESTART">     0</i>
   <i type="int" name="NREBOOT">     0</i>
   <i type="int" name="NMIN">     0</i>
   <i name="EREF">      0.00000000</i>
   <separator name="electronic smearing" >
    <i type="int" name="ISMEAR">    -5</i>
    <i name="SIGMA">      0.05000000</i>
    <i name="KSPACING">      0.50000000</i>
    <i type="logical" name="KGAMMA"> T  </i>
    <i type="logical" name="KBLOWUP"> T  </i>
   </separator>
   <separator name="electronic projectors" >
    <i type="logical" name="LREAL"> T  </i>
    <v name="ROPT">     -0.00025000</v>
    <i type="int" name="LMAXPAW">  -100</i>
    <i type="int" name="LMAXMIX">     2</i>
    <i type="logical" name="NLSPLINE"> F  </i>
   </separator>
   <separator name="electronic startup" >
    <i type="int" name="ISTART">     0</i>
    <i type="int" name="ICHARG">    11</i>
    <i type="int" name="INIWAV">     1</i>
   </separator>
   <separator name="electronic spin" >
    <i type="int" name="ISPIN">     1</i>
    <i type="logical" name="LNONCOLLINEAR"> F  </i>
    <v name="MAGMOM">      1.00000000      1.00000000</v>
    <i name="NUPDOWN">     -1.00000000</i>
    <i type="logical" name="LSORBIT"> F  </i>
    <v name="SAXIS">      0.00000000      0.00000000      1.00000000</v>
    <i type="logical" name="LSPIRAL"> F  </i>
    <v name="QSPIRAL">      0.00000000      0.00000000      0.00000000</v>
    <i type="logical" name="LZEROZ"> F  </i>
   </separator>
   <separator name="electronic exchange-correlation" >
    <i type="logical" name="LASPH"> T  </i>
    <i type="logical" name="LMETAGGA"> F  </i>
   </separator>
   <separator name="electronic convergence" >
    <i type="int" name="NELM">   200</i>
    <i type="int" name="NELMDL">    -5</i>
    <i type="int" name="NELMIN">     2</i>
    <i name="ENINI">    680.00000000</i>
    <separator name="electronic convergence detail" >
     <i type="logical" name="LDIAG"> T  </i>
     <i type="logical" name="LSUBROT"> F  </i>
     <i name="WEIMIN">      0.00000000</i>
     <i name="EBREAK">      0.00000025</i>
     <i name="DEPER">      0.30000000</i>
     <i type="int" name="NRMM">     4</i>
     <i name="TIME">      0.40000000</i>
    </separator>
   </separator>
   <separator name="electronic mixer" >
    <i name="AMIX">      0.40000000</i>
    <i name="BMIX">      1.00000000</i>
    <i name="AMIN">      0.10000000</i>
    <i name="AMIX_MAG">      1.60000000</i>
    <i name="BMIX_MAG">      1.00000000</i>
    <separator name="electronic mixer details" >
     <i type="int" name="IMIX">     4</i>
     <i type="logical" name="MIXFIRST"> F  </i>
     <i type="int" name="MAXMIX">   -45</i>
     <i name="WC">    100.00000000</i>
     <i type="int" name="INIMIX">     1</i>
     <i type="int" name="MIXPRE">     1</i>
     <i type="int" name="MREMOVE">     5</i>
    </separator>
   </separator>
   <separator name="electronic dipolcorrection" >
    <i type="logical" name="LDIPOL"> F  </i>
    <i type="logical" name="LMONO"> F  </i>
    <i type="int" name="IDIPOL">     0</i>
    <i name="EPSILON">      1.00000000</i>
    <v name="DIPOL">   -100.00000000   -100.00000000   -100.00000000</v>
    <i name="EFIELD">      0.00000000</i>
   </separator>
  </separator>
  <separator name="grids" >
   <i type="int" name="NGX">    36</i>
   <i type="int" name="NGY">    36</i>
   <i type="int" name="NGZ">    36</i>
   <i type="int" name="NGXF">    72</i>
   <i type="int" name="NGYF">    72</i>
   <i type="int" name="NGZF">    72</i>
   <i type="logical" name="ADDGRID"> F  </i>
  </separator>
  <separator name="ionic" >
   <i type="int" name="NSW">     0</i>
   <i type="int" name="IBRION">    -1</i>
   <i type="int" name="MDALGO">     0</i>
   <i type="int" name="ISIF">     3</i>
   <i name="PSTRESS">      0.00000000</i>
   <i name="EDIFFG">     -0.02000000</i>
   <i type="int" name="NFREE">     0</i>
   <i name="POTIM">      0.50000000</i>
   <i name="SMASS">     -3.00000000</i>
   <i name="SCALEE">      1.00000000</i>
  </separator>
  <separator name="ionic md" >
   <i name="TEBEG">      0.00010000</i>
   <i name="TEEND">      0.00010000</i>
   <i type="int" name="NBLOCK">     1</i>
   <i type="int" name="KBLOCK">     1</i>
   <i type="int" name="NPACO">   256</i>
   <i name="APACO">     16.00000000</i>
  </separator>
  <separator name="symmetry" >
   <i type="int" name="ISYM">     2</i>
   <i name="SYMPREC">      0.00001000</i>
  </separator>
  <separator name="dos" >
   <i type="int" name="LORBIT">    11</i>
   <v name="RWIGS">     -1.00000000</v>
   <i type="int" name="NEDOS">  4352</i>
   <i name="EMIN">     10.00000000</i>
   <i name="EMAX">    -10.00000000</i>
   <i name="EFERMI">      0.00000000</i>
  </separator>
  <separator name="writing" >
   <i type="int" name="NWRITE">     2</i>
   <i type="logical" name="LWAVE"> F  </i>
   <i type="logical" name="LDOWNSAMPLE"> F  </i>
   <i type="logical" name="LCHARG"> F  </i>
   <i type="logical" name="LPARD"> F  </i>
   <i type="logical" name="LVTOT"> T  </i>
   <i type="logical" name="LVHAR"> F  </i>
   <i type="logical" name="LELF"> T  </i>
   <i type="logical" name="LOPTICS"> F  </i>
   <v name="STM">      0.00000000      0.00000000      0.00000000      0.00000000      0.00000000      0.00000000      0.00000000</v>
  </separator>
  <separator name="performance" >
   <i type="int" name="NPAR">     1</i>
   <i type="int" name="NSIM">     4</i>
   <i type="int" name="NBLK">    -1</i>
   <i type="logical" name="LPLANE"> T  </i>
   <i type="logical" name="LSCALAPACK"> F  </i>
   <i type="logical" name="LSCAAWARE"> F  </i>
   <i type="logical" name="LSCALU"> F  </i>
   <i type="logical" name="LASYNC"> F  </i>
   <i type="logical" name="LORBITALREAL"> F  </i>
  </separator>
  <separator name="miscellaneous" >
   <i type="int" name="IDIOT">     3</i>
   <i type="int" name="PHON_NSTRUCT">    -1</i>
   <i type="logical" name="LMUSIC"> F  </i>
   <v name="POMASS">     28.08500000</v>
   <v name="DARWINR">      0.00000000</v>
   <v name="DARWINV">      1.00000000</v>
   <i type="logical" name="LCORR"> T  </i>
  </separator>
  <i type="logical" name="GGA_COMPAT"> T  </i>
  <i type="logical" name="LBERRY"> F  </i>
  <i type="int" name="ICORELEVEL">     0</i>
  <i type="logical" name="LDAU"> F  </i>
  <i type="int" name="I_CONSTRAINED_M">     0</i>
  <separator name="electronic exchange-correlation" >
   <i type="string" name="GGA">--</i>
   <i type="int" name="VOSKOWN">     0</i>
   <i type="logical" name="LHFCALC"> F  </i>
   <i type="string" name="PRECFOCK"></i>
   <i type="logical" name="LSYMGRAD"> F  </i>
   <i type="logical" name="LHFONE"> F  </i>
   <i type="logical" name="LRHFCALC"> F  </i>
   <i type="logical" name="LTHOMAS"> F  </i>
   <i type="logical" name="LMODELHF"> F  </i>
   <i type="logical" name="LFOCKACE"> F  </i>
   <i name="ENCUT4O">     -1.00000000</i>
   <i type="int" name="EXXOEP">     0</i>
   <i type="int" name="FOURORBIT">     0</i>
   <i name="AEXX">      0.00000000</i>
   <i name="HFALPHA">      0.00000000</i>
   <i name="MCALPHA">      0.00000000</i>
   <i name="ALDAX">      1.00000000</i>
   <i name="AGGAX">      1.00000000</i>
   <i name="ALDAC">      1.00000000</i>
   <i name="AGGAC">      1.00000000</i>
   <i type="int" name="NKREDX">     1</i>
   <i type="int" name="NKREDY">     1</i>
   <i type="int" name="NKREDZ">     1</i>
   <i type="logical" name="SHIFTRED"> F  </i>
   <i type="logical" name="ODDONLY"> F  </i>
   <i type="logical" name="EVENONLY"> F  </i>
   <i type="int" name="LMAXFOCK">     0</i>
   <i type="int" name="NMAXFOCKAE">     0</i>
   <i type="logical" name="LFOCKAEDFT"> F  </i>
   <i name="HFSCREEN">      0.00000000</i>
   <i name="HFSCREENC">      0.00000000</i>
   <i type="int" name="NBANDSGWLOW">     0</i>
  </separator>
  <separator name="vdW DFT" >
   <i type="logical" name="LUSE_VDW"> F  </i>
   <i name="Zab_VDW">     -0.84910000</i>
   <i name="PARAM1">      0.12340000</i>
   <i name="PARAM2">      1.00000000</i>
   <i name="PARAM3">      0.00000000</i>
  </separator>
  <separator name="model GW" >
   <i type="int" name="MODEL_GW">     0</i>
   <i name="MODEL_EPS0">     12.26648953</i>
   <i name="MODEL_ALPHA">      1.00000000</i>
  </separator>
  <separator name="linear response parameters" >
   <i type="logical" name="LEPSILON"> F  </i>
   <i type="logical" name="LRPA"> F  </i>
   <i type="logical" name="LNABLA"> F  </i>
   <i type="logical" name="LVEL"> F  </i>
   <i type="int" name="KINTER">     0</i>
   <i name="CSHIFT">      0.10000000</i>
   <i name="OMEGAMAX">     -1.00000000</i>
   <i name="DEG_THRESHOLD">      0.00200000</i>
   <i name="RTIME">     -0.10000000</i>
   <i name="WPLASMAI">      0.00000000</i>
   <v name="DFIELD">      0.00000000      0.00000000      0.00000000</v>
   <v name="WPLASMA">      0.00000000      0.00000000      0.00000000      0.00000000      0.00000000      0.00000000      0.00000000      0.00000000      0.00000000</v>
  </separator>
  <separator name="orbital magnetization" >
   <i type="logical" name="NUCIND"> F  </i>
   <v name="MAGPOS">      0.00000000      0.00000000      0.00000000</v>
   <i type="logical" name="LNICSALL"> T  </i>
   <i type="logical" name="ORBITALMAG"> F  </i>
   <i type="logical" name="LMAGBLOCH"> F  </i>
   <i type="logical" name="LCHIMAG"> F  </i>
   <i type="logical" name="LGAUGE"> T  </i>
   <i type="int" name="MAGATOM">     0</i>
   <v name="MAGDIPOL">      0.00000000      0.00000000      0.00000000</v>
   <v name="AVECCONST">      0.00000000      0.00000000      0.00000000</v>
  </separator>
  <separator name="response functions" >
   <i type="logical" name="LFINITE_TEMPERATURE"> F  </i>
   <i type="logical" name="LADDER"> F  </i>
   <i type="logical" name="LRPAFORCE"> F  </i>
   <i type="logical" name="LFXC"> F  </i>
   <i type="logical" name="LHARTREE"> T  </i>
   <i type="int" name="IBSE">     0</i>
   <v type="int" name="KPOINT">    -1     0     0     0</v>
   <i type="logical" name="LTCTC"> F  </i>
   <i type="logical" name="LTCTE"> F  </i>
   <i type="logical" name="LTETE"> F  </i>
   <i type="logical" name="LTRIPLET"> F  </i>
   <i type="logical" name="LFXCEPS"> F  </i>
   <i type="logical" name="LFXHEG"> F  </i>
   <i type="int" name="NATURALO">     2</i>
   <i type="logical" name="LHOLEGF"> F  </i>
   <i type="logical" name="L2ORDER"> F  </i>
   <i type="logical" name="LDMP1"> F  </i>
   <i type="logical" name="LMP2LT"> F  </i>
   <i type="logical" name="LSMP2LT"> F  </i>
   <i type="logical" name="LGWLF"> F  </i>
   <i name="ENCUTGW">     -2.00000000</i>
   <i name="ENCUTGWSOFT">     -2.00000000</i>
   <i name="ENCUTLF">     -1.00000000</i>
   <i type="logical" name="LESF_SPLINES"> F  </i>
   <i type="int" name="LMAXMP2">    -1</i>
   <i name="SCISSOR">      0.00000000</i>
   <i type="int" name="NOMEGA">     0</i>
   <i type="int" name="NOMEGAR">     0</i>
   <i type="int" name="NBANDSGW">    -1</i>
   <i type="int" name="NBANDSO">    -1</i>
   <i type="int" name="NBANDSV">    -1</i>
   <i type="int" name="NELM">   200</i>
   <i type="int" name="NELMHF">     1</i>
   <i type="int" name="DIM">     3</i>
   <i type="int" name="IESPILON">     4</i>
   <i type="int" name="ANTIRES">     0</i>
   <i name="OMEGAMAX">    -30.00000000</i>
   <i name="OMEGAMIN">    -30.00000000</i>
   <i name="OMEGATL">   -200.00000000</i>
   <i type="int" name="OMEGAGRID">     0</i>
   <i name="CSHIFT">     -0.10000000</i>
   <i type="logical" name="LSELFENERGY"> F  </i>
   <i type="logical" name="LSPECTRAL"> F  </i>
   <i type="logical" name="LSPECTRALGW"> F  </i>
   <i type="logical" name="LSINGLES"> F  </i>
   <i type="logical" name="LFERMIGW"> F  </i>
   <i type="logical" name="ODDONLYGW"> F  </i>
   <i type="logical" name="EVENONLYGW"> F  </i>
   <i type="int" name="NKREDLFX">     1</i>
   <i type="int" name="NKREDLFY">     1</i>
   <i type="int" name="NKREDLFZ">     1</i>
   <i type="int" name="MAXMEM">  2800</i>
   <i type="int" name="TELESCOPE">     0</i>
   <i type="int" name="NTAUPAR">    -1</i>
   <i type="int" name="NOMEGAPAR">    -1</i>
   <i name="DAMP_NEWTON">      0.80000001</i>
   <i name="LAMBDA">      1.00000000</i>
  </separator>
  <separator name="External order field" >
   <i name="OFIELD_KAPPA">      0.00000000</i>
   <v name="OFIELD_K">      0.00000000      0.00000000      0.00000000</v>
   <i name="OFIELD_Q6_NEAR">      0.00000000</i>
   <i name="OFIELD_Q6_FAR">      0.00000000</i>
   <i name="OFIELD_A">      0.00000000</i>
  </separator>
 </parameters>
 <atominfo>
  <atoms>       2 </atoms>
  <types>       1 </types>
  <array name="atoms" >
   <dimension dim="1">ion</dimension>
   <field type="string">element</field>
   <field type="int">atomtype</field>
   <set>
    <rc><c>Si</c><c>   1</c></rc>
    <rc><c>Si</c><c>   1</c></rc>
   </set>
  </array>
  <array name="atomtypes" >
   <dimension dim="1">type</dimension>
   <field type="int">atomspertype</field>
   <field type="string">element</field>
   <field>mass</field>
   <field>valence</field>
   <field type="string">pseudopotential</field>
   <set>
    <rc><c>   2</c><c>Si</c><c>     28.08500000</c><c>      4.00000000</c><c>  PAW_PBE Si 05Jan2001                  </c></rc>
   </set>
  </array>
 </atominfo>
 <structure name="initialpos" >
  <crystal>
   <varray name="basis" >
    <v>       3.34889800       0.00000000       1.93348700 </v>
    <v>       1.11629900       3.15737200       1.93348700 </v>
    <v>       0.00000000       0.00000000       3.86697500 </v>
   </varray>
   <i name="volume">     40.88829843 </i>
   <varray name="rec_basis" >
    <v>       0.29860569      -0.10557300       0.00000000 </v>
    <v>       0.00000000       0.31671909       0.00000000 </v>
    <v>      -0.14930281      -0.10557302       0.25860007 </v>
   </varray>
  </crystal>
  <varray name="positions" >
   <v>       0.24552100       0.25000000       0.25224000 </v>
   <v>       0.00000000       0.00000000       0.00000000 </v>
  </varray>
 </structure>
 <calculation>
  <scstep>
   <time name="dav">    1.19    1.19</time>
   <time name="total">    1.28    1.29</time>
   <energy>
    <i name="alphaZ">      3.29317992 </i>
    <i name="ewald">   -226.94227289 </i>
    <i name="hartreedc">    -15.23309021 </i>
    <i name="XCdc">    -18.05404300 </i>
    <i name="pawpsdc">    831.07142985 </i>
    <i name="pawaedc">   -796.09163852 </i>
    <i name="eentropy">      0.00000000 </i>
    <i name="bandstr">     23.91647846 </i>
    <i name="atom">    206.13322186 </i>
    <i name="e_fr_energy">      8.09326547 </i>
    <i name="e_wo_entrp">      8.09326547 </i>
    <i name="e_0_energy">      8.09326547 </i>
   </energy>
  </scstep>
  <scstep>
   <time name="dav">    1.71    1.72</time>
   <time name="total">    1.72    1.73</time>
   <energy>
    <i name="e_fr_energy">    -10.21703932 </i>
    <i name="e_wo_entrp">    -10.21703932 </i>
    <i name="e_0_energy">    -10.21703932 </i>
   </energy>
  </scstep>
  <scstep>
   <time name="dav">    1.48    1.49</time>
   <time name="total">    1.49    1.49</time>
   <energy>
    <i name="e_fr_energy">    -10.82114905 </i>
    <i name="e_wo_entrp">    -10.82114905 </i>
    <i name="e_0_energy">    -10.82114905 </i>
   </energy>
  </scstep>
  <scstep>
   <time name="dav">    1.52    1.53</time>
   <time name="total">    1.53    1.54</time>
   <energy>
    <i name="e_fr_energy">    -10.82599494 </i>
    <i name="e_wo_entrp">    -10.82599494 </i>
    <i name="e_0_energy">    -10.82599494 </i>
   </energy>
  </scstep>
  <scstep>
   <time name="dav">    1.51    1.52</time>
   <time name="total">    1.52    1.53</time>
   <energy>
    <i name="e_fr_energy">    -10.82603159 </i>
    <i name="e_wo_entrp">    -10.82603159 </i>
    <i name="e_0_energy">    -10.82603159 </i>
   </energy>
  </scstep>
  <scstep>
   <time name="dav">    1.59    1.60</time>
   <time name="total">    1.60    1.61</time>
   <energy>
    <i name="alphaZ">      3.29317992 </i>
    <i name="ewald">   -226.94227289 </i>
    <i name="hartreedc">    -15.23309021 </i>
    <i name="XCdc">    -18.05404300 </i>
    <i name="pawpsdc">    831.07142985 </i>
    <i name="pawaedc">   -796.09163852 </i>
    <i name="eentropy">      0.00000000 </i>
    <i name="bandstr">      4.99718106 </i>
    <i name="atom">    206.13322186 </i>
    <i name="e_fr_energy">    -10.82603193 </i>
    <i name="e_wo_entrp">    -10.82603193 </i>
    <i name="e_0_energy">    -10.82603193 </i>
   </energy>
  </scstep>
  <structure>
   <crystal>
    <varray name="basis" >
     <v>       3.34889800       0.00000000       1.93348700 </v>
     <v>       1.11629900       3.15737200       1.93348700 </v>
     <v>       0.00000000       0.00000000       3.86697500 </v>
    </varray>
    <i name="volume">     40.88829843 </i>
    <varray name="rec_basis" >
     <v>       0.29860569      -0.10557300       0.00000000 </v>
     <v>       0.00000000       0.31671909       0.00000000 </v>
     <v>      -0.14930281      -0.10557302       0.25860007 </v>
    </varray>
   </crystal>
   <varray name="positions" >
    <v>       0.24552100       0.25000000       0.25224000 </v>
    <v>       0.00000000       0.00000000       0.00000000 </v>
   </varray>
  </structure>
  <varray name="forces" >
   <v>       0.19433999       0.00315142      -0.00000003 </v>
   <v>      -0.19433999      -0.00315142       0.00000003 </v>
  </varray>
  <varray name="stress" >
   <v>      -3.62151864       2.94879098       0.00000023 </v>
   <v>       2.94879090       0.57296885      -0.00000050 </v>
   <v>       0.00000023      -0.00000050       4.85749431 </v>
  </varray>
  <energy>
   <i name="e_fr_energy">    -10.82603193 </i>
   <i name="e_wo_entrp">    -10.82603193 </i>
   <i name="e_0_energy">    -10.82603193 </i>
  </energy>
  <time name="totalsc">   10.54   10.61</time>
  <eigenvalues>
   <array>
    <dimension dim="1">band</dimension>
    <dimension dim="2">kpoint</dimension>
    <dimension dim="3">spin</dimension>
    <field>eigene</field>
    <field>occ</field>
    <set>
     <set comment="spin 1">
      <set comment="kpoint 1">
       <r>   -6.1925    1.0000 </r>
       <r>    5.5657    1.0000 </r>
       <r>    5.6030    1.0000 </r>
       <r>    5.7044    1.0000 </r>
       <r>    8.1302    0.0000 </r>
       <r>    8.1896    0.0000 </r>
       <r>    8.2122    0.0000 </r>
       <r>    8.7576    0.0000 </r>
       <r>   13.3294    0.0000 </r>
       <r>   13.3300    0.0000 </r>
      </set>
      <set comment="kpoint 2">
       <r>   -5.8394    1.0000 </r>
       <r>    3.3053    1.0000 </r>
       <r>    5.1402    1.0000 </r>
       <r>    5.1741    1.0000 </r>
       <r>    7.8823    0.0000 </r>
       <r>    8.7996    0.0000 </r>
       <r>    8.8258    0.0000 </r>
       <r>   10.9195    0.0000 </r>
       <r>   12.7225    0.0000 </r>
       <r>   12.7273    0.0000 </r>
      </set>
      <set comment="kpoint 3">
       <r>   -5.8378    1.0000 </r>
       <r>    3.2595    1.0000 </r>
       <r>    5.1327    1.0000 </r>
       <r>    5.2339    1.0000 </r>
       <r>    7.9072    0.0000 </r>
       <r>    8.7753    0.0000 </r>
       <r>    8.8518    0.0000 </r>
       <r>   10.9023    0.0000 </r>
       <r>   12.6986    0.0000 </r>
       <r>   12.7115    0.0000 </r>
      </set>
      <set comment="kpoint 4">
       <r>   -5.8370    1.0000 </r>
       <r>    3.2368    1.0000 </r>
       <r>    5.1519    1.0000 </r>
       <r>    5.2403    1.0000 </r>
       <r>    7.9203    0.0000 </r>
       <r>    8.7803    0.0000 </r>
       <r>    8.8472    0.0000 </r>
       <r>   10.8937    0.0000 </r>
       <r>   12.6899    0.0000 </r>
       <r>   12.7005    0.0000 </r>
      </set>
      <set comment="kpoint 5">
       <r>   -4.8512    1.0000 </r>
       <r>    0.3961    1.0000 </r>
       <r>    4.6087    1.0000 </r>
       <r>    4.6402    1.0000 </r>
       <r>    7.2957    0.0000 </r>
       <r>    9.0844    0.0000 </r>
       <r>    9.1204    0.0000 </r>
       <r>   13.3972    0.0000 </r>
       <r>   13.6041    0.0000 </r>
       <r>   13.6184    0.0000 </r>
      </set>
      <set comment="kpoint 6">
       <r>   -4.8423    1.0000 </r>
       <r>    0.3530    1.0000 </r>
       <r>    4.5943    1.0000 </r>
       <r>    4.6881    1.0000 </r>
       <r>    7.3146    0.0000 </r>
       <r>    9.0705    0.0000 </r>
       <r>    9.1776    0.0000 </r>
       <r>   13.4034    0.0000 </r>
       <r>   13.5546    0.0000 </r>
       <r>   13.5997    0.0000 </r>
      </set>
      <set comment="kpoint 7">
       <r>   -4.8378    1.0000 </r>
       <r>    0.3315    1.0000 </r>
       <r>    4.6083    1.0000 </r>
       <r>    4.6903    1.0000 </r>
       <r>    7.3245    0.0000 </r>
       <r>    9.0877    0.0000 </r>
       <r>    9.1822    0.0000 </r>
       <r>   13.4077    0.0000 </r>
       <r>   13.5395    0.0000 </r>
       <r>   13.5777    0.0000 </r>
      </set>
      <set comment="kpoint 8">
       <r>   -3.9410    1.0000 </r>
       <r>   -1.1869    1.0000 </r>
       <r>    4.4153    1.0000 </r>
       <r>    4.4466    1.0000 </r>
       <r>    7.0716    0.0000 </r>
       <r>    8.9291    0.0000 </r>
       <r>    8.9661    0.0000 </r>
       <r>   13.3024    0.0000 </r>
       <r>   16.1708    0.0000 </r>
       <r>   16.1747    0.0000 </r>
      </set>
      <set comment="kpoint 9">
       <r>   -3.9136    1.0000 </r>
       <r>   -1.2463    1.0000 </r>
       <r>    4.3986    1.0000 </r>
       <r>    4.4920    1.0000 </r>
       <r>    7.0888    0.0000 </r>
       <r>    8.9145    0.0000 </r>
       <r>    9.0248    0.0000 </r>
       <r>   13.3231    0.0000 </r>
       <r>   16.1172    0.0000 </r>
       <r>   16.1234    0.0000 </r>
      </set>
      <set comment="kpoint 10">
       <r>   -3.8994    1.0000 </r>
       <r>   -1.2764    1.0000 </r>
       <r>    4.4112    1.0000 </r>
       <r>    4.4930    1.0000 </r>
       <r>    7.0977    0.0000 </r>
       <r>    8.9322    0.0000 </r>
       <r>    9.0295    0.0000 </r>
       <r>   13.3338    0.0000 </r>
       <r>   16.0886    0.0000 </r>
       <r>   16.0925    0.0000 </r>
      </set>
      <set comment="kpoint 11">
       <r>   -5.7170    1.0000 </r>
       <r>    3.5690    1.0000 </r>
       <r>    4.4253    1.0000 </r>
       <r>    4.4917    1.0000 </r>
       <r>    7.3348    0.0000 </r>
       <r>    9.8332    0.0000 </r>
       <r>    9.9156    0.0000 </r>
       <r>    9.9326    0.0000 </r>
       <r>   12.1316    0.0000 </r>
       <r>   13.8594    0.0000 </r>
      </set>
      <set comment="kpoint 12">
       <r>   -5.7170    1.0000 </r>
       <r>    3.5670    1.0000 </r>
       <r>    4.4422    1.0000 </r>
       <r>    4.4771    1.0000 </r>
       <r>    7.3349    0.0000 </r>
       <r>    9.8321    0.0000 </r>
       <r>    9.9203    0.0000 </r>
       <r>    9.9277    0.0000 </r>
       <r>   12.1321    0.0000 </r>
       <r>   13.8598    0.0000 </r>
      </set>
      <set comment="kpoint 13">
       <r>   -4.9211    1.0000 </r>
       <r>    1.2554    1.0000 </r>
       <r>    3.6544    1.0000 </r>
       <r>    3.8886    1.0000 </r>
       <r>    7.5686    0.0000 </r>
       <r>    9.6539    0.0000 </r>
       <r>   10.1091    0.0000 </r>
       <r>   10.6416    0.0000 </r>
       <r>   14.6012    0.0000 </r>
       <r>   14.6789    0.0000 </r>
      </set>
      <set comment="kpoint 14">
       <r>   -4.9177    1.0000 </r>
       <r>    1.2276    1.0000 </r>
       <r>    3.6348    1.0000 </r>
       <r>    3.9327    1.0000 </r>
       <r>    7.5999    0.0000 </r>
       <r>    9.6342    0.0000 </r>
       <r>   10.1088    0.0000 </r>
       <r>   10.6409    0.0000 </r>
       <r>   14.5824    0.0000 </r>
       <r>   14.6694    0.0000 </r>
      </set>
      <set comment="kpoint 15">
       <r>   -4.9135    1.0000 </r>
       <r>    1.1871    1.0000 </r>
       <r>    3.7169    1.0000 </r>
       <r>    3.8964    1.0000 </r>
       <r>    7.5793    0.0000 </r>
       <r>    9.6034    0.0000 </r>
       <r>   10.1572    0.0000 </r>
       <r>   10.6944    0.0000 </r>
       <r>   14.5575    0.0000 </r>
       <r>   14.6090    0.0000 </r>
      </set>
      <set comment="kpoint 16">
       <r>   -4.9157    1.0000 </r>
       <r>    1.2103    1.0000 </r>
       <r>    3.6403    1.0000 </r>
       <r>    3.9434    1.0000 </r>
       <r>    7.6107    0.0000 </r>
       <r>    9.6215    0.0000 </r>
       <r>   10.1173    0.0000 </r>
       <r>   10.6467    0.0000 </r>
       <r>   14.5762    0.0000 </r>
       <r>   14.6500    0.0000 </r>
      </set>
      <set comment="kpoint 17">
       <r>   -4.9149    1.0000 </r>
       <r>    1.2022    1.0000 </r>
       <r>    3.6640    1.0000 </r>
       <r>    3.9301    1.0000 </r>
       <r>    7.6001    0.0000 </r>
       <r>    9.6158    0.0000 </r>
       <r>   10.1288    0.0000 </r>
       <r>   10.6639    0.0000 </r>
       <r>   14.5644    0.0000 </r>
       <r>   14.6420    0.0000 </r>
      </set>
      <set comment="kpoint 18">
       <r>   -4.9156    1.0000 </r>
       <r>    1.2048    1.0000 </r>
       <r>    3.7132    1.0000 </r>
       <r>    3.8830    1.0000 </r>
       <r>    7.5684    0.0000 </r>
       <r>    9.6159    0.0000 </r>
       <r>   10.1508    0.0000 </r>
       <r>   10.6875    0.0000 </r>
       <r>   14.5681    0.0000 </r>
       <r>   14.6229    0.0000 </r>
      </set>
      <set comment="kpoint 19">
       <r>   -4.9218    1.0000 </r>
       <r>    1.2632    1.0000 </r>
       <r>    3.6287    1.0000 </r>
       <r>    3.9047    1.0000 </r>
       <r>    7.5793    0.0000 </r>
       <r>    9.6599    0.0000 </r>
       <r>   10.0954    0.0000 </r>
       <r>   10.6255    0.0000 </r>
       <r>   14.6080    0.0000 </r>
       <r>   14.6930    0.0000 </r>
      </set>
      <set comment="kpoint 20">
       <r>   -3.7761    1.0000 </r>
       <r>   -0.8468    1.0000 </r>
       <r>    2.8847    1.0000 </r>
       <r>    3.8568    1.0000 </r>
       <r>    7.6317    0.0000 </r>
       <r>    9.6676    0.0000 </r>
       <r>   10.2174    0.0000 </r>
       <r>   12.0163    0.0000 </r>
       <r>   14.9602    0.0000 </r>
       <r>   16.0594    0.0000 </r>
      </set>
      <set comment="kpoint 21">
       <r>   -3.7543    1.0000 </r>
       <r>   -0.8989    1.0000 </r>
       <r>    2.8717    1.0000 </r>
       <r>    3.9005    1.0000 </r>
       <r>    7.6748    0.0000 </r>
       <r>    9.6822    0.0000 </r>
       <r>   10.2065    0.0000 </r>
       <r>   11.9763    0.0000 </r>
       <r>   14.9840    0.0000 </r>
       <r>   16.0322    0.0000 </r>
      </set>
      <set comment="kpoint 22">
       <r>   -3.7419    1.0000 </r>
       <r>   -0.9334    1.0000 </r>
       <r>    2.9318    1.0000 </r>
       <r>    3.8615    1.0000 </r>
       <r>    7.6461    0.0000 </r>
       <r>    9.6900    0.0000 </r>
       <r>   10.2720    0.0000 </r>
       <r>   11.9930    0.0000 </r>
       <r>   14.9529    0.0000 </r>
       <r>   16.0003    0.0000 </r>
      </set>
      <set comment="kpoint 23">
       <r>   -3.7430    1.0000 </r>
       <r>   -0.9262    1.0000 </r>
       <r>    2.8756    1.0000 </r>
       <r>    3.9122    1.0000 </r>
       <r>    7.6898    0.0000 </r>
       <r>    9.6916    0.0000 </r>
       <r>   10.2092    0.0000 </r>
       <r>   11.9610    0.0000 </r>
       <r>   14.9900    0.0000 </r>
       <r>   16.0154    0.0000 </r>
      </set>
      <set comment="kpoint 24">
       <r>   -3.7426    1.0000 </r>
       <r>   -0.9287    1.0000 </r>
       <r>    2.8936    1.0000 </r>
       <r>    3.8963    1.0000 </r>
       <r>    7.6748    0.0000 </r>
       <r>    9.6901    0.0000 </r>
       <r>   10.2317    0.0000 </r>
       <r>   11.9713    0.0000 </r>
       <r>   14.9775    0.0000 </r>
       <r>   16.0106    0.0000 </r>
      </set>
      <set comment="kpoint 25">
       <r>   -3.7533    1.0000 </r>
       <r>   -0.9060    1.0000 </r>
       <r>    2.9288    1.0000 </r>
       <r>    3.8485    1.0000 </r>
       <r>    7.6314    0.0000 </r>
       <r>    9.6822    0.0000 </r>
       <r>   10.2677    0.0000 </r>
       <r>   12.0082    0.0000 </r>
       <r>   14.9469    0.0000 </r>
       <r>   16.0168    0.0000 </r>
      </set>
      <set comment="kpoint 26">
       <r>   -3.7763    1.0000 </r>
       <r>   -0.8445    1.0000 </r>
       <r>    2.8658    1.0000 </r>
       <r>    3.8739    1.0000 </r>
       <r>    7.6464    0.0000 </r>
       <r>    9.6676    0.0000 </r>
       <r>   10.1964    0.0000 </r>
       <r>   12.0061    0.0000 </r>
       <r>   14.9726    0.0000 </r>
       <r>   16.0646    0.0000 </r>
      </set>
      <set comment="kpoint 27">
       <r>   -4.1439    1.0000 </r>
       <r>   -0.2647    1.0000 </r>
       <r>    2.6217    1.0000 </r>
       <r>    4.3186    1.0000 </r>
       <r>    8.0184    0.0000 </r>
       <r>    9.6835    0.0000 </r>
       <r>    9.8386    0.0000 </r>
       <r>   12.8307    0.0000 </r>
       <r>   12.9464    0.0000 </r>
       <r>   14.9613    0.0000 </r>
      </set>
      <set comment="kpoint 28">
       <r>   -4.1263    1.0000 </r>
       <r>   -0.3225    1.0000 </r>
       <r>    2.6183    1.0000 </r>
       <r>    4.3711    1.0000 </r>
       <r>    8.0598    0.0000 </r>
       <r>    9.6989    0.0000 </r>
       <r>    9.8185    0.0000 </r>
       <r>   12.8177    0.0000 </r>
       <r>   12.9427    0.0000 </r>
       <r>   14.9343    0.0000 </r>
      </set>
      <set comment="kpoint 29">
       <r>   -4.1257    1.0000 </r>
       <r>   -0.3306    1.0000 </r>
       <r>    2.6589    1.0000 </r>
       <r>    4.3270    1.0000 </r>
       <r>    8.0344    0.0000 </r>
       <r>    9.7104    0.0000 </r>
       <r>    9.8836    0.0000 </r>
       <r>   12.8001    0.0000 </r>
       <r>   12.8980    0.0000 </r>
       <r>   14.9363    0.0000 </r>
      </set>
      <set comment="kpoint 30">
       <r>   -4.1185    1.0000 </r>
       <r>   -0.3485    1.0000 </r>
       <r>    2.6235    1.0000 </r>
       <r>    4.3861    1.0000 </r>
       <r>    8.0749    0.0000 </r>
       <r>    9.7137    0.0000 </r>
       <r>    9.8123    0.0000 </r>
       <r>   12.8129    0.0000 </r>
       <r>   12.9309    0.0000 </r>
       <r>   14.9231    0.0000 </r>
      </set>
      <set comment="kpoint 31">
       <r>   -4.1209    1.0000 </r>
       <r>   -0.3424    1.0000 </r>
       <r>    2.6346    1.0000 </r>
       <r>    4.3672    1.0000 </r>
       <r>    8.0607    0.0000 </r>
       <r>    9.7085    0.0000 </r>
       <r>    9.8407    0.0000 </r>
       <r>   12.8053    0.0000 </r>
       <r>   12.9232    0.0000 </r>
       <r>   14.9277    0.0000 </r>
      </set>
      <set comment="kpoint 32">
       <r>   -4.1334    1.0000 </r>
       <r>   -0.3047    1.0000 </r>
       <r>    2.6546    1.0000 </r>
       <r>    4.3110    1.0000 </r>
       <r>    8.0199    0.0000 </r>
       <r>    9.7003    0.0000 </r>
       <r>    9.8849    0.0000 </r>
       <r>   12.8082    0.0000 </r>
       <r>   12.9068    0.0000 </r>
       <r>   14.9468    0.0000 </r>
      </set>
      <set comment="kpoint 33">
       <r>   -4.1415    1.0000 </r>
       <r>   -0.2707    1.0000 </r>
       <r>    2.6097    1.0000 </r>
       <r>    4.3385    1.0000 </r>
       <r>    8.0320    0.0000 </r>
       <r>    9.6848    0.0000 </r>
       <r>    9.8145    0.0000 </r>
       <r>   12.8348    0.0000 </r>
       <r>   12.9572    0.0000 </r>
       <r>   14.9574    0.0000 </r>
      </set>
      <set comment="kpoint 34">
       <r>   -5.2637    1.0000 </r>
       <r>    1.9671    1.0000 </r>
       <r>    3.2585    1.0000 </r>
       <r>    5.0204    1.0000 </r>
       <r>    8.5780    0.0000 </r>
       <r>    9.1923    0.0000 </r>
       <r>    9.4147    0.0000 </r>
       <r>   11.2058    0.0000 </r>
       <r>   11.7435    0.0000 </r>
       <r>   14.9240    0.0000 </r>
      </set>
      <set comment="kpoint 35">
       <r>   -5.2588    1.0000 </r>
       <r>    1.9058    1.0000 </r>
       <r>    3.2676    1.0000 </r>
       <r>    5.0918    1.0000 </r>
       <r>    8.6080    0.0000 </r>
       <r>    9.1435    0.0000 </r>
       <r>    9.4434    0.0000 </r>
       <r>   11.2045    0.0000 </r>
       <r>   11.7418    0.0000 </r>
       <r>   14.8596    0.0000 </r>
      </set>
      <set comment="kpoint 36">
       <r>   -5.2621    1.0000 </r>
       <r>    1.9462    1.0000 </r>
       <r>    3.2621    1.0000 </r>
       <r>    5.0440    1.0000 </r>
       <r>    8.5889    0.0000 </r>
       <r>    9.1750    0.0000 </r>
       <r>    9.4243    0.0000 </r>
       <r>   11.2053    0.0000 </r>
       <r>   11.7432    0.0000 </r>
       <r>   14.9025    0.0000 </r>
      </set>
      <set comment="kpoint 37">
       <r>   -5.2572    1.0000 </r>
       <r>    1.8852    1.0000 </r>
       <r>    3.2719    1.0000 </r>
       <r>    5.1142    1.0000 </r>
       <r>    8.6205    0.0000 </r>
       <r>    9.1246    0.0000 </r>
       <r>    9.4536    0.0000 </r>
       <r>   11.2039    0.0000 </r>
       <r>   11.7408    0.0000 </r>
       <r>   14.8381    0.0000 </r>
      </set>
      <set comment="kpoint 38">
       <r>   -4.3226    1.0000 </r>
       <r>    0.6334    1.0000 </r>
       <r>    3.2324    1.0000 </r>
       <r>    3.2788    1.0000 </r>
       <r>    6.3785    0.0000 </r>
       <r>    7.6428    0.0000 </r>
       <r>   12.7946    0.0000 </r>
       <r>   12.7967    0.0000 </r>
       <r>   15.2359    0.0000 </r>
       <r>   15.4437    0.0000 </r>
      </set>
      <set comment="kpoint 39">
       <r>   -4.3225    1.0000 </r>
       <r>    0.6326    1.0000 </r>
       <r>    3.2442    1.0000 </r>
       <r>    3.2680    1.0000 </r>
       <r>    6.3790    0.0000 </r>
       <r>    7.6420    0.0000 </r>
       <r>   12.7949    0.0000 </r>
       <r>   12.7959    0.0000 </r>
       <r>   15.2364    0.0000 </r>
       <r>   15.4443    0.0000 </r>
      </set>
      <set comment="kpoint 40">
       <r>   -3.1946    1.0000 </r>
       <r>   -0.8685    1.0000 </r>
       <r>    2.0814    1.0000 </r>
       <r>    3.0988    1.0000 </r>
       <r>    6.6889   -0.0000 </r>
       <r>    8.3714    0.0000 </r>
       <r>   12.9811    0.0000 </r>
       <r>   12.9895    0.0000 </r>
       <r>   16.0966    0.0000 </r>
       <r>   16.2552    0.0000 </r>
      </set>
      <set comment="kpoint 41">
       <r>   -3.1831    1.0000 </r>
       <r>   -0.8903    1.0000 </r>
       <r>    2.0559    1.0000 </r>
       <r>    3.1333    1.0000 </r>
       <r>    6.7319    0.0000 </r>
       <r>    8.3302    0.0000 </r>
       <r>   12.9646    0.0000 </r>
       <r>   13.0079    0.0000 </r>
       <r>   16.1104    0.0000 </r>
       <r>   16.2545    0.0000 </r>
      </set>
      <set comment="kpoint 42">
       <r>   -3.1749    1.0000 </r>
       <r>   -0.9152    1.0000 </r>
       <r>    2.1020    1.0000 </r>
       <r>    3.1083    1.0000 </r>
       <r>    6.6998    0.0000 </r>
       <r>    8.3561    0.0000 </r>
       <r>   12.9970    0.0000 </r>
       <r>   13.0376    0.0000 </r>
       <r>   16.0888    0.0000 </r>
       <r>   16.2129    0.0000 </r>
      </set>
      <set comment="kpoint 43">
       <r>   -3.1773    1.0000 </r>
       <r>   -0.9024    1.0000 </r>
       <r>    2.0516    1.0000 </r>
       <r>    3.1436    1.0000 </r>
       <r>    6.7462   -0.0000 </r>
       <r>    8.3163    0.0000 </r>
       <r>   12.9768    0.0000 </r>
       <r>   13.0054    0.0000 </r>
       <r>   16.1169    0.0000 </r>
       <r>   16.2425    0.0000 </r>
      </set>
      <set comment="kpoint 44">
       <r>   -3.1763    1.0000 </r>
       <r>   -0.9071    1.0000 </r>
       <r>    2.0683    1.0000 </r>
       <r>    3.1325    1.0000 </r>
       <r>    6.7303    0.0000 </r>
       <r>    8.3298    0.0000 </r>
       <r>   12.9777    0.0000 </r>
       <r>   13.0218    0.0000 </r>
       <r>   16.1038    0.0000 </r>
       <r>   16.2379    0.0000 </r>
      </set>
      <set comment="kpoint 45">
       <r>   -3.1813    1.0000 </r>
       <r>   -0.9017    1.0000 </r>
       <r>    2.1059    1.0000 </r>
       <r>    3.0971    1.0000 </r>
       <r>    6.6858   -0.0000 </r>
       <r>    8.3703    0.0000 </r>
       <r>   12.9937    0.0000 </r>
       <r>   13.0311    0.0000 </r>
       <r>   16.0852    0.0000 </r>
       <r>   16.2209    0.0000 </r>
      </set>
      <set comment="kpoint 46">
       <r>   -3.1950    1.0000 </r>
       <r>   -0.8651    1.0000 </r>
       <r>    2.0651    1.0000 </r>
       <r>    3.1108    1.0000 </r>
       <r>    6.7045    0.0000 </r>
       <r>    8.3577    0.0000 </r>
       <r>   12.9689    0.0000 </r>
       <r>   12.9846    0.0000 </r>
       <r>   16.1064    0.0000 </r>
       <r>   16.2647    0.0000 </r>
      </set>
      <set comment="kpoint 47">
       <r>   -3.0175    1.0000 </r>
       <r>   -1.0513    1.0000 </r>
       <r>    1.3202    1.0000 </r>
       <r>    3.5273    1.0000 </r>
       <r>    7.1770    0.0000 </r>
       <r>   11.4336    0.0000 </r>
       <r>   12.0607    0.0000 </r>
       <r>   12.5642    0.0000 </r>
       <r>   12.9338    0.0000 </r>
       <r>   13.2567    0.0000 </r>
      </set>
      <set comment="kpoint 48">
       <r>   -2.9845    1.0000 </r>
       <r>   -1.1098    1.0000 </r>
       <r>    1.3065    1.0000 </r>
       <r>    3.5678    1.0000 </r>
       <r>    7.2238    0.0000 </r>
       <r>   11.3818    0.0000 </r>
       <r>   12.0134    0.0000 </r>
       <r>   12.6040    0.0000 </r>
       <r>   12.9111    0.0000 </r>
       <r>   13.2862    0.0000 </r>
      </set>
      <set comment="kpoint 49">
       <r>   -3.0065    1.0000 </r>
       <r>   -1.0710    1.0000 </r>
       <r>    1.3159    1.0000 </r>
       <r>    3.5408    1.0000 </r>
       <r>    7.1928    0.0000 </r>
       <r>   11.4150    0.0000 </r>
       <r>   12.0443    0.0000 </r>
       <r>   12.5781    0.0000 </r>
       <r>   12.9280    0.0000 </r>
       <r>   13.2659    0.0000 </r>
      </set>
      <set comment="kpoint 50">
       <r>   -2.9732    1.0000 </r>
       <r>   -1.1294    1.0000 </r>
       <r>    1.3023    1.0000 </r>
       <r>    3.5804    1.0000 </r>
       <r>    7.2401    0.0000 </r>
       <r>   11.3642    0.0000 </r>
       <r>   11.9970    0.0000 </r>
       <r>   12.6217    0.0000 </r>
       <r>   12.9031    0.0000 </r>
       <r>   13.2922    0.0000 </r>
      </set>
      <set comment="kpoint 51">
       <r>   -2.1621    1.0000 </r>
       <r>   -2.0846    1.0000 </r>
       <r>    2.8073    1.0000 </r>
       <r>    2.8492    1.0000 </r>
       <r>    6.3425    0.0000 </r>
       <r>    6.4019    0.0000 </r>
       <r>   15.5497    0.0000 </r>
       <r>   15.5689    0.0000 </r>
       <r>   16.5250    0.0000 </r>
       <r>   16.5343    0.0000 </r>
      </set>
      <set comment="kpoint 52">
       <r>   -2.1427    1.0000 </r>
       <r>   -2.1045    1.0000 </r>
       <r>    2.8179    1.0000 </r>
       <r>    2.8394    1.0000 </r>
       <r>    6.3575    0.0000 </r>
       <r>    6.3867    0.0000 </r>
       <r>   15.5552    0.0000 </r>
       <r>   15.5644    0.0000 </r>
       <r>   16.5257    0.0000 </r>
       <r>   16.5312    0.0000 </r>
      </set>
      <set comment="kpoint 53">
       <r>   -3.9509    1.0000 </r>
       <r>    0.0330    1.0000 </r>
       <r>    2.1307    1.0000 </r>
       <r>    3.3641    1.0000 </r>
       <r>    8.4711    0.0000 </r>
       <r>    9.3385    0.0000 </r>
       <r>    9.7872    0.0000 </r>
       <r>   12.6078    0.0000 </r>
       <r>   14.5281    0.0000 </r>
       <r>   15.4326    0.0000 </r>
      </set>
      <set comment="kpoint 54">
       <r>   -3.9423    1.0000 </r>
       <r>   -0.0022    1.0000 </r>
       <r>    2.1325    1.0000 </r>
       <r>    3.3956    1.0000 </r>
       <r>    8.4598    0.0000 </r>
       <r>    9.3438    0.0000 </r>
       <r>    9.8132    0.0000 </r>
       <r>   12.6037    0.0000 </r>
       <r>   14.5237    0.0000 </r>
       <r>   15.4076    0.0000 </r>
      </set>
      <set comment="kpoint 55">
       <r>   -3.9380    1.0000 </r>
       <r>   -0.0197    1.0000 </r>
       <r>    2.1340    1.0000 </r>
       <r>    3.4102    1.0000 </r>
       <r>    8.4549    0.0000 </r>
       <r>    9.3463    0.0000 </r>
       <r>    9.8261    0.0000 </r>
       <r>   12.6024    0.0000 </r>
       <r>   14.5188    0.0000 </r>
       <r>   15.3967    0.0000 </r>
      </set>
      <set comment="kpoint 56">
       <r>   -3.9509    1.0000 </r>
       <r>    0.0326    1.0000 </r>
       <r>    2.1311    1.0000 </r>
       <r>    3.3642    1.0000 </r>
       <r>    8.4716    0.0000 </r>
       <r>    9.3374    0.0000 </r>
       <r>    9.7877    0.0000 </r>
       <r>   12.6071    0.0000 </r>
       <r>   14.5299    0.0000 </r>
       <r>   15.4314    0.0000 </r>
      </set>
      <set comment="kpoint 57">
       <r>   -3.9551    1.0000 </r>
       <r>    0.0505    1.0000 </r>
       <r>    2.1298    1.0000 </r>
       <r>    3.3488    1.0000 </r>
       <r>    8.4774    0.0000 </r>
       <r>    9.3336    0.0000 </r>
       <r>    9.7753    0.0000 </r>
       <r>   12.6097    0.0000 </r>
       <r>   14.5338    0.0000 </r>
       <r>   15.4417    0.0000 </r>
      </set>
      <set comment="kpoint 58">
       <r>   -3.9424    1.0000 </r>
       <r>   -0.0018    1.0000 </r>
       <r>    2.1321    1.0000 </r>
       <r>    3.3955    1.0000 </r>
       <r>    8.4594    0.0000 </r>
       <r>    9.3448    0.0000 </r>
       <r>    9.8128    0.0000 </r>
       <r>   12.6044    0.0000 </r>
       <r>   14.5218    0.0000 </r>
       <r>   15.4087    0.0000 </r>
      </set>
      <set comment="kpoint 59">
       <r>   -3.0149    1.0000 </r>
       <r>   -1.1011    1.0000 </r>
       <r>    1.6904    1.0000 </r>
       <r>    2.9040    1.0000 </r>
       <r>    8.9604    0.0000 </r>
       <r>    9.1245    0.0000 </r>
       <r>   11.7300    0.0000 </r>
       <r>   12.0545    0.0000 </r>
       <r>   13.0810    0.0000 </r>
       <r>   16.6175    0.0000 </r>
      </set>
      <set comment="kpoint 60">
       <r>   -2.9800    1.0000 </r>
       <r>   -1.1643    1.0000 </r>
       <r>    1.6700    1.0000 </r>
       <r>    2.9569    1.0000 </r>
       <r>    9.0320    0.0000 </r>
       <r>    9.1113    0.0000 </r>
       <r>   11.6901    0.0000 </r>
       <r>   12.0342    0.0000 </r>
       <r>   13.0520    0.0000 </r>
       <r>   16.6637    0.0000 </r>
      </set>
      <set comment="kpoint 61">
       <r>   -2.9733    1.0000 </r>
       <r>   -1.1827    1.0000 </r>
       <r>    1.7075    1.0000 </r>
       <r>    2.9284    1.0000 </r>
       <r>    8.9834    0.0000 </r>
       <r>    9.1589    0.0000 </r>
       <r>   11.6503    0.0000 </r>
       <r>   12.0699    0.0000 </r>
       <r>   13.1073    0.0000 </r>
       <r>   16.5987    0.0000 </r>
      </set>
      <set comment="kpoint 62">
       <r>   -2.9765    1.0000 </r>
       <r>   -1.1791    1.0000 </r>
       <r>    1.7215    1.0000 </r>
       <r>    2.9127    1.0000 </r>
       <r>    8.9633    0.0000 </r>
       <r>    9.1699    0.0000 </r>
       <r>   11.6452    0.0000 </r>
       <r>   12.0841    0.0000 </r>
       <r>   13.1261    0.0000 </r>
       <r>   16.6167    0.0000 </r>
      </set>
      <set comment="kpoint 63">
       <r>   -2.9897    1.0000 </r>
       <r>   -1.1526    1.0000 </r>
       <r>    1.7108    1.0000 </r>
       <r>    2.9101    1.0000 </r>
       <r>    8.9597    0.0000 </r>
       <r>    9.1572    0.0000 </r>
       <r>   11.6732    0.0000 </r>
       <r>   12.0738    0.0000 </r>
       <r>   13.1121    0.0000 </r>
       <r>   16.5940    0.0000 </r>
      </set>
      <set comment="kpoint 64">
       <r>   -3.0117    1.0000 </r>
       <r>   -1.1051    1.0000 </r>
       <r>    1.6768    1.0000 </r>
       <r>    2.9198    1.0000 </r>
       <r>    8.9838    0.0000 </r>
       <r>    9.1100    0.0000 </r>
       <r>   11.7356    0.0000 </r>
       <r>   12.0410    0.0000 </r>
       <r>   13.0612    0.0000 </r>
       <r>   16.6441    0.0000 </r>
      </set>
      <set comment="kpoint 65">
       <r>   -2.9668    1.0000 </r>
       <r>   -1.1904    1.0000 </r>
       <r>    1.6803    1.0000 </r>
       <r>    2.9595    1.0000 </r>
       <r>    9.0324    0.0000 </r>
       <r>    9.1273    0.0000 </r>
       <r>   11.6615    0.0000 </r>
       <r>   12.0438    0.0000 </r>
       <r>   13.0670    0.0000 </r>
       <r>   16.6393    0.0000 </r>
      </set>
      <set comment="kpoint 66">
       <r>   -2.0472    1.0000 </r>
       <r>   -1.9729    1.0000 </r>
       <r>    2.0395    1.0000 </r>
       <r>    2.0843    1.0000 </r>
       <r>    8.3434   -0.0000 </r>
       <r>    8.4022    0.0000 </r>
       <r>   12.2967    0.0000 </r>
       <r>   12.3229    0.0000 </r>
       <r>   16.0670    0.0000 </r>
       <r>   16.0776    0.0000 </r>
      </set>
      <set comment="kpoint 67">
       <r>   -2.0304    1.0000 </r>
       <r>   -1.9902    1.0000 </r>
       <r>    2.0499    1.0000 </r>
       <r>    2.0745    1.0000 </r>
       <r>    8.3577    0.0000 </r>
       <r>    8.3876    0.0000 </r>
       <r>   12.2979    0.0000 </r>
       <r>   12.3222    0.0000 </r>
       <r>   16.0677    0.0000 </r>
       <r>   16.0756    0.0000 </r>
      </set>
      <set comment="kpoint 68">
       <r>   -2.0367    1.0000 </r>
       <r>   -1.9838    1.0000 </r>
       <r>    2.0468    1.0000 </r>
       <r>    2.0774    1.0000 </r>
       <r>    8.3561    0.0000 </r>
       <r>    8.3894    0.0000 </r>
       <r>   12.2858    0.0000 </r>
       <r>   12.3339    0.0000 </r>
       <r>   16.0645    0.0000 </r>
       <r>   16.0803    0.0000 </r>
      </set>
     </set>
    </set>
   </array>
  </eigenvalues>
  <separator name="orbital magnetization" >
   <v name="MAGDIPOLOUT">      0.00000000      0.00000000      0.00000000</v>
  </separator>
  <dos>
   <i name="efermi">      6.34270591 </i>
   <total>
    <array>
     <dimension dim="1">gridpoints</dimension>
     <dimension dim="2">spin</dimension>
     <field>energy</field>
     <field>total</field>
     <field>integrated</field>
     <set>
      <set comment="spin 1">
       <r>    -7.3353     0.0000     0.0000 </r>
       <r>    -7.3296     0.0000     0.0000 </r>
       <r>    -7.3238     0.0000     0.0000 </r>
       <r>    -7.3180     0.0000     0.0000 </r>
       <r>    -7.3122     0.0000     0.0000 </r>
       <r>    -7.3064     0.0000     0.0000 </r>
       <r>    -7.3007     0.0000     0.0000 </r>
       <r>    -7.2949     0.0000     0.0000 </r>
       <r>    -7.2891     0.0000     0.0000 </r>
       <r>    -7.2833     0.0000     0.0000 </r>
       <r>    -7.2775     0.0000     0.0000 </r>
       <r>    -7.2718     0.0000     0.0000 </r>
       <r>    -7.2660     0.0000     0.0000 </r>
       <r>    -7.2602     0.0000     0.0000 </r>
       <r>    -7.2544     0.0000     0.0000 </r>
       <r>    -7.2487     0.0000     0.0000 </r>
       <r>    -7.2429     0.0000     0.0000 </r>
       <r>    -7.2371     0.0000     0.0000 </r>
       <r>    -7.2313     0.0000     0.0000 </r>
       <r>    -7.2255     0.0000     0.0000 </r>
       <r>    -7.2198     0.0000     0.0000 </r>
       <r>    -7.2140     0.0000     0.0000 </r>
       <r>    -7.2082     0.0000     0.0000 </r>
       <r>    -7.2024     0.0000     0.0000 </r>
       <r>    -7.1966     0.0000     0.0000 </r>
       <r>    -7.1909     0.0000     0.0000 </r>
       <r>    -7.1851     0.0000     0.0000 </r>
       <r>    -7.1793     0.0000     0.0000 </r>
       <r>    -7.1735     0.0000     0.0000 </r>
       <r>    -7.1678     0.0000     0.0000 </r>
       <r>    -7.1620     0.0000     0.0000 </r>
       <r>    -7.1562     0.0000     0.0000 </r>
       <r>    -7.1504     0.0000     0.0000 </r>
[...]
        <r>  0.0612  0.0047  0.0308  0.0543  0.0000  0.0000  0.0000  0.0000  0.0000 </r>
       </set>
       <set comment="band 7">
        <r>  0.0195  0.0637  0.0053  0.0161  0.0000  0.0000  0.0000  0.0000  0.0000 </r>
        <r>  0.0195  0.0637  0.0053  0.0161  0.0000  0.0000  0.0000  0.0000  0.0000 </r>
       </set>
       <set comment="band 8">
        <r>  0.0338  0.0579  0.0648  0.0009  0.0000  0.0000  0.0000  0.0000  0.0000 </r>
        <r>  0.0338  0.0579  0.0648  0.0009  0.0000  0.0000  0.0000  0.0000  0.0000 </r>
       </set>
       <set comment="band 9">
        <r>  0.0174  0.0006  0.0794  0.0462  0.0000  0.0000  0.0000  0.0000  0.0000 </r>
        <r>  0.0174  0.0006  0.0794  0.0462  0.0000  0.0000  0.0000  0.0000  0.0000 </r>
       </set>
       <set comment="band 10">
        <r>  0.0046  0.0872  0.0004  0.0019  0.0000  0.0000  0.0000  0.0000  0.0000 </r>
        <r>  0.0060  0.0779  0.0006  0.0012  0.0000  0.0000  0.0000  0.0000  0.0000 </r>
       </set>
      </set>
      <set comment="kpoint 61">
       <set comment="band 1">
        <r>  0.2141  0.0042  0.0109  0.0115  0.0000  0.0000  0.0000  0.0000  0.0000 </r>
        <r>  0.2141  0.0042  0.0109  0.0115  0.0000  0.0000  0.0000  0.0000  0.0000 </r>
       </set>
       <set comment="band 2">
        <r>  0.1672  0.0134  0.0341  0.0171  0.0000  0.0000  0.0000  0.0000  0.0000 </r>
        <r>  0.1672  0.0134  0.0341  0.0171  0.0000  0.0000  0.0000  0.0000  0.0000 </r>
       </set>
       <set comment="band 3">
        <r>  0.0185  0.0002  0.0697  0.0792  0.0000  0.0000  0.0000  0.0000  0.0000 </r>
        <r>  0.0185  0.0002  0.0697  0.0792  0.0000  0.0000  0.0000  0.0000  0.0000 </r>
       </set>
       <set comment="band 4">
        <r>  0.0011  0.1370  0.0144  0.0255  0.0000  0.0000  0.0000  0.0000  0.0000 </r>
        <r>  0.0011  0.1370  0.0144  0.0255  0.0000  0.0000  0.0000  0.0000  0.0000 </r>
       </set>
       <set comment="band 5">
        <r>  0.0096  0.0403  0.0265  0.0181  0.0000  0.0000  0.0000  0.0000  0.0000 </r>
        <r>  0.0096  0.0403  0.0265  0.0181  0.0000  0.0000  0.0000  0.0000  0.0000 </r>
       </set>
       <set comment="band 6">
        <r>  0.0612  0.0544  0.0050  0.0276  0.0000  0.0000  0.0000  0.0000  0.0000 </r>
        <r>  0.0612  0.0544  0.0050  0.0276  0.0000  0.0000  0.0000  0.0000  0.0000 </r>
       </set>
       <set comment="band 7">
        <r>  0.0192  0.0019  0.0637  0.0233  0.0000  0.0000  0.0000  0.0000  0.0000 </r>
        <r>  0.0192  0.0019  0.0637  0.0233  0.0000  0.0000  0.0000  0.0000  0.0000 </r>
       </set>
       <set comment="band 8">
        <r>  0.0331  0.0111  0.0498  0.0606  0.0000  0.0000  0.0000  0.0000  0.0000 </r>
        <r>  0.0331  0.0111  0.0498  0.0606  0.0000  0.0000  0.0000  0.0000  0.0000 </r>
       </set>
       <set comment="band 9">
        <r>  0.0152  0.0392  0.0233  0.0609  0.0000  0.0000  0.0000  0.0000  0.0000 </r>
        <r>  0.0152  0.0392  0.0233  0.0609  0.0000  0.0000  0.0000  0.0000  0.0000 </r>
       </set>
       <set comment="band 10">
        <r>  0.0053  0.0164  0.0530  0.0183  0.0000  0.0000  0.0000  0.0000  0.0000 </r>
        <r>  0.0057  0.0148  0.0521  0.0181  0.0000  0.0000  0.0000  0.0000  0.0000 </r>
       </set>
      </set>
      <set comment="kpoint 62">
       <set comment="band 1">
        <r>  0.2143  0.0089  0.0124  0.0052  0.0000  0.0000  0.0000  0.0000  0.0000 </r>
        <r>  0.2143  0.0089  0.0124  0.0052  0.0000  0.0000  0.0000  0.0000  0.0000 </r>
       </set>
       <set comment="band 2">
        <r>  0.1668  0.0096  0.0456  0.0095  0.0000  0.0000  0.0000  0.0000  0.0000 </r>
        <r>  0.1668  0.0096  0.0456  0.0095  0.0000  0.0000  0.0000  0.0000  0.0000 </r>
       </set>
       <set comment="band 3">
        <r>  0.0187  0.0732  0.0181  0.0574  0.0000  0.0000  0.0000  0.0000  0.0000 </r>
        <r>  0.0187  0.0732  0.0181  0.0574  0.0000  0.0000  0.0000  0.0000  0.0000 </r>
       </set>
       <set comment="band 4">
        <r>  0.0011  0.0481  0.0585  0.0708  0.0000  0.0000  0.0000  0.0000  0.0000 </r>
        <r>  0.0011  0.0481  0.0585  0.0708  0.0000  0.0000  0.0000  0.0000  0.0000 </r>
       </set>
       <set comment="band 5">
        <r>  0.0087  0.0352  0.0056  0.0450  0.0000  0.0000  0.0000  0.0000  0.0000 </r>
        <r>  0.0087  0.0352  0.0056  0.0451  0.0000  0.0000  0.0000  0.0000  0.0000 </r>
       </set>
       <set comment="band 6">
        <r>  0.0630  0.0265  0.0343  0.0253  0.0000  0.0000  0.0000  0.0000  0.0000 </r>
        <r>  0.0630  0.0265  0.0343  0.0253  0.0000  0.0000  0.0000  0.0000  0.0000 </r>
       </set>
       <set comment="band 7">
        <r>  0.0189  0.0279  0.0161  0.0459  0.0000  0.0000  0.0000  0.0000  0.0000 </r>
        <r>  0.0189  0.0279  0.0161  0.0459  0.0000  0.0000  0.0000  0.0000  0.0000 </r>
       </set>
       <set comment="band 8">
        <r>  0.0329  0.0457  0.0433  0.0318  0.0000  0.0000  0.0000  0.0000  0.0000 </r>
        <r>  0.0329  0.0457  0.0432  0.0318  0.0000  0.0000  0.0000  0.0000  0.0000 </r>
       </set>
       <set comment="band 9">
        <r>  0.0144  0.0618  0.0131  0.0479  0.0000  0.0000  0.0000  0.0000  0.0000 </r>
        <r>  0.0144  0.0618  0.0131  0.0479  0.0000  0.0000  0.0000  0.0000  0.0000 </r>
       </set>
       <set comment="band 10">
        <r>  0.0042  0.0043  0.0832  0.0130  0.0000  0.0000  0.0000  0.0000  0.0000 </r>
        <r>  0.0075  0.0073  0.0484  0.0168  0.0000  0.0000  0.0000  0.0000  0.0000 </r>
       </set>
      </set>
      <set comment="kpoint 63">
       <set comment="band 1">
        <r>  0.2147  0.0133  0.0038  0.0094  0.0000  0.0000  0.0000  0.0000  0.0000 </r>
        <r>  0.2147  0.0133  0.0038  0.0094  0.0000  0.0000  0.0000  0.0000  0.0000 </r>
       </set>
       <set comment="band 2">
        <r>  0.1663  0.0534  0.0038  0.0075  0.0000  0.0000  0.0000  0.0000  0.0000 </r>
        <r>  0.1663  0.0534  0.0038  0.0075  0.0000  0.0000  0.0000  0.0000  0.0000 </r>
       </set>
       <set comment="band 3">
        <r>  0.0186  0.0549  0.0306  0.0634  0.0000  0.0000  0.0000  0.0000  0.0000 </r>
        <r>  0.0186  0.0549  0.0306  0.0634  0.0000  0.0000  0.0000  0.0000  0.0000 </r>
       </set>
       <set comment="band 4">
        <r>  0.0011  0.0006  0.1158  0.0611  0.0000  0.0000  0.0000  0.0000  0.0000 </r>
        <r>  0.0011  0.0006  0.1158  0.0611  0.0000  0.0000  0.0000  0.0000  0.0000 </r>
       </set>
       <set comment="band 5">
        <r>  0.0094  0.0067  0.0495  0.0294  0.0000  0.0000  0.0000  0.0000  0.0000 </r>
        <r>  0.0094  0.0067  0.0495  0.0294  0.0000  0.0000  0.0000  0.0000  0.0000 </r>
       </set>
       <set comment="band 6">
        <r>  0.0624  0.0052  0.0439  0.0376  0.0000  0.0000  0.0000  0.0000  0.0000 </r>
        <r>  0.0624  0.0052  0.0439  0.0376  0.0000  0.0000  0.0000  0.0000  0.0000 </r>
       </set>
       <set comment="band 7">
        <r>  0.0188  0.0636  0.0168  0.0079  0.0000  0.0000  0.0000  0.0000  0.0000 </r>
        <r>  0.0188  0.0636  0.0168  0.0079  0.0000  0.0000  0.0000  0.0000  0.0000 </r>
       </set>
       <set comment="band 8">
        <r>  0.0329  0.0567  0.0135  0.0517  0.0000  0.0000  0.0000  0.0000  0.0000 </r>
        <r>  0.0329  0.0567  0.0135  0.0517  0.0000  0.0000  0.0000  0.0000  0.0000 </r>
       </set>
       <set comment="band 9">
        <r>  0.0150  0.0003  0.0557  0.0677  0.0000  0.0000  0.0000  0.0000  0.0000 </r>
        <r>  0.0150  0.0003  0.0557  0.0677  0.0000  0.0000  0.0000  0.0000  0.0000 </r>
       </set>
       <set comment="band 10">
        <r>  0.0045  0.0903  0.0011  0.0007  0.0000  0.0000  0.0000  0.0000  0.0000 </r>
        <r>  0.0063  0.0811  0.0003  0.0006  0.0000  0.0000  0.0000  0.0000  0.0000 </r>
       </set>
      </set>
      <set comment="kpoint 64">
       <set comment="band 1">
        <r>  0.2154  0.0038  0.0127  0.0097  0.0000  0.0000  0.0000  0.0000  0.0000 </r>
        <r>  0.2154  0.0038  0.0127  0.0097  0.0000  0.0000  0.0000  0.0000  0.0000 </r>
       </set>
       <set comment="band 2">
        <r>  0.1660  0.0135  0.0106  0.0402  0.0000  0.0000  0.0000  0.0000  0.0000 </r>
        <r>  0.1660  0.0135  0.0106  0.0402  0.0000  0.0000  0.0000  0.0000  0.0000 </r>
       </set>
       <set comment="band 3">
        <r>  0.0180  0.0001  0.0840  0.0656  0.0000  0.0000  0.0000  0.0000  0.0000 </r>
        <r>  0.0180  0.0001  0.0840  0.0656  0.0000  0.0000  0.0000  0.0000  0.0000 </r>
       </set>
       <set comment="band 4">
        <r>  0.0012  0.1373  0.0293  0.0107  0.0000  0.0000  0.0000  0.0000  0.0000 </r>
        <r>  0.0012  0.1373  0.0293  0.0107  0.0000  0.0000  0.0000  0.0000  0.0000 </r>
       </set>
       <set comment="band 5">
        <r>  0.0081  0.0391  0.0192  0.0254  0.0000  0.0000  0.0000  0.0000  0.0000 </r>
        <r>  0.0081  0.0391  0.0192  0.0254  0.0000  0.0000  0.0000  0.0000  0.0000 </r>
       </set>
       <set comment="band 6">
        <r>  0.0630  0.0570  0.0319  0.0001  0.0000  0.0000  0.0000  0.0000  0.0000 </r>
        <r>  0.0630  0.0570  0.0319  0.0001  0.0000  0.0000  0.0000  0.0000  0.0000 </r>
       </set>
       <set comment="band 7">
        <r>  0.0187  0.0015  0.0048  0.0773  0.0000  0.0000  0.0000  0.0000  0.0000 </r>
        <r>  0.0187  0.0015  0.0048  0.0773  0.0000  0.0000  0.0000  0.0000  0.0000 </r>
       </set>
       <set comment="band 8">
        <r>  0.0333  0.0119  0.0636  0.0488  0.0000  0.0000  0.0000  0.0000  0.0000 </r>
        <r>  0.0333  0.0119  0.0636  0.0488  0.0000  0.0000  0.0000  0.0000  0.0000 </r>
       </set>
       <set comment="band 9">
        <r>  0.0171  0.0384  0.0792  0.0092  0.0000  0.0000  0.0000  0.0000  0.0000 </r>
        <r>  0.0171  0.0384  0.0792  0.0092  0.0000  0.0000  0.0000  0.0000  0.0000 </r>
       </set>
       <set comment="band 10">
        <r>  0.0041  0.0191  0.0004  0.0719  0.0000  0.0000  0.0000  0.0000  0.0000 </r>
        <r>  0.0054  0.0125  0.0007  0.0667  0.0000  0.0000  0.0000  0.0000  0.0000 </r>
       </set>
      </set>
      <set comment="kpoint 65">
       <set comment="band 1">
        <r>  0.2137  0.0092  0.0110  0.0066  0.0000  0.0000  0.0000  0.0000  0.0000 </r>
        <r>  0.2137  0.0092  0.0110  0.0066  0.0000  0.0000  0.0000  0.0000  0.0000 </r>
       </set>
       <set comment="band 2">
        <r>  0.1680  0.0097  0.0336  0.0209  0.0000  0.0000  0.0000  0.0000  0.0000 </r>
        <r>  0.1680  0.0097  0.0336  0.0209  0.0000  0.0000  0.0000  0.0000  0.0000 </r>
       </set>
       <set comment="band 3">
        <r>  0.0180  0.0717  0.0698  0.0086  0.0000  0.0000  0.0000  0.0000  0.0000 </r>
        <r>  0.0180  0.0717  0.0698  0.0086  0.0000  0.0000  0.0000  0.0000  0.0000 </r>
       </set>
       <set comment="band 4">
        <r>  0.0012  0.0492  0.0148  0.1122  0.0000  0.0000  0.0000  0.0000  0.0000 </r>
        <r>  0.0012  0.0492  0.0148  0.1122  0.0000  0.0000  0.0000  0.0000  0.0000 </r>
       </set>
       <set comment="band 5">
        <r>  0.0086  0.0304  0.0255  0.0268  0.0000  0.0000  0.0000  0.0000  0.0000 </r>
        <r>  0.0086  0.0304  0.0255  0.0268  0.0000  0.0000  0.0000  0.0000  0.0000 </r>
       </set>
       <set comment="band 6">
        <r>  0.0606  0.0299  0.0058  0.0534  0.0000  0.0000  0.0000  0.0000  0.0000 </r>
        <r>  0.0606  0.0299  0.0058  0.0534  0.0000  0.0000  0.0000  0.0000  0.0000 </r>
       </set>
       <set comment="band 7">
        <r>  0.0197  0.0243  0.0619  0.0007  0.0000  0.0000  0.0000  0.0000  0.0000 </r>
        <r>  0.0197  0.0243  0.0619  0.0007  0.0000  0.0000  0.0000  0.0000  0.0000 </r>
       </set>
       <set comment="band 8">
        <r>  0.0338  0.0488  0.0506  0.0233  0.0000  0.0000  0.0000  0.0000  0.0000 </r>
        <r>  0.0338  0.0488  0.0506  0.0233  0.0000  0.0000  0.0000  0.0000  0.0000 </r>
       </set>
       <set comment="band 9">
        <r>  0.0167  0.0641  0.0254  0.0356  0.0000  0.0000  0.0000  0.0000  0.0000 </r>
        <r>  0.0167  0.0641  0.0254  0.0356  0.0000  0.0000  0.0000  0.0000  0.0000 </r>
       </set>
       <set comment="band 10">
        <r>  0.0053  0.0072  0.0507  0.0252  0.0000  0.0000  0.0000  0.0000  0.0000 </r>
        <r>  0.0054  0.0065  0.0518  0.0246  0.0000  0.0000  0.0000  0.0000  0.0000 </r>
       </set>
      </set>
      <set comment="kpoint 66">
       <set comment="band 1">
        <r>  0.2023  0.0134  0.0049  0.0231  0.0000  0.0000  0.0000  0.0000  0.0000 </r>
        <r>  0.2023  0.0134  0.0049  0.0231  0.0000  0.0000  0.0000  0.0000  0.0000 </r>
       </set>
       <set comment="band 2">
        <r>  0.1996  0.0151  0.0040  0.0230  0.0000  0.0000  0.0000  0.0000  0.0000 </r>
        <r>  0.1996  0.0151  0.0040  0.0230  0.0000  0.0000  0.0000  0.0000  0.0000 </r>
       </set>
       <set comment="band 3">
        <r>  0.0017  0.0170  0.1368  0.0110  0.0000  0.0000  0.0000  0.0000  0.0000 </r>
        <r>  0.0017  0.0170  0.1368  0.0110  0.0000  0.0000  0.0000  0.0000  0.0000 </r>
       </set>
       <set comment="band 4">
        <r>  0.0016  0.0918  0.0020  0.0697  0.0000  0.0000  0.0000  0.0000  0.0000 </r>
        <r>  0.0016  0.0918  0.0020  0.0697  0.0000  0.0000  0.0000  0.0000  0.0000 </r>
       </set>
       <set comment="band 5">
        <r>  0.0341  0.0059  0.0530  0.0182  0.0000  0.0000  0.0000  0.0000  0.0000 </r>
        <r>  0.0341  0.0059  0.0530  0.0182  0.0000  0.0000  0.0000  0.0000  0.0000 </r>
       </set>
       <set comment="band 6">
        <r>  0.0332  0.0444  0.0017  0.0301  0.0000  0.0000  0.0000  0.0000  0.0000 </r>
        <r>  0.0332  0.0444  0.0017  0.0301  0.0000  0.0000  0.0000  0.0000  0.0000 </r>
       </set>
       <set comment="band 7">
        <r>  0.0279  0.0737  0.0239  0.0162  0.0000  0.0000  0.0000  0.0000  0.0000 </r>
        <r>  0.0279  0.0737  0.0239  0.0162  0.0000  0.0000  0.0000  0.0000  0.0000 </r>
       </set>
       <set comment="band 8">
        <r>  0.0271  0.0025  0.0567  0.0547  0.0000  0.0000  0.0000  0.0000  0.0000 </r>
        <r>  0.0271  0.0025  0.0567  0.0547  0.0000  0.0000  0.0000  0.0000  0.0000 </r>
       </set>
       <set comment="band 9">
        <r>  0.0002  0.0537  0.0163  0.0622  0.0000  0.0000  0.0000  0.0000  0.0000 </r>
        <r>  0.0002  0.0536  0.0162  0.0621  0.0000  0.0000  0.0000  0.0000  0.0000 </r>
       </set>
       <set comment="band 10">
        <r>  0.0002  0.0352  0.0859  0.0090  0.0000  0.0000  0.0000  0.0000  0.0000 </r>
        <r>  0.0002  0.0354  0.0859  0.0091  0.0000  0.0000  0.0000  0.0000  0.0000 </r>
       </set>
      </set>
      <set comment="kpoint 67">
       <set comment="band 1">
        <r>  0.2016  0.0134  0.0213  0.0068  0.0000  0.0000  0.0000  0.0000  0.0000 </r>
        <r>  0.2017  0.0134  0.0213  0.0068  0.0000  0.0000  0.0000  0.0000  0.0000 </r>
       </set>
       <set comment="band 2">
        <r>  0.2002  0.0139  0.0218  0.0062  0.0000  0.0000  0.0000  0.0000  0.0000 </r>
        <r>  0.2002  0.0139  0.0219  0.0062  0.0000  0.0000  0.0000  0.0000  0.0000 </r>
       </set>
       <set comment="band 3">
        <r>  0.0017  0.1093  0.0456  0.0097  0.0000  0.0000  0.0000  0.0000  0.0000 </r>
        <r>  0.0017  0.1093  0.0456  0.0097  0.0000  0.0000  0.0000  0.0000  0.0000 </r>
       </set>
       <set comment="band 4">
        <r>  0.0016  0.0007  0.0445  0.1186  0.0000  0.0000  0.0000  0.0000  0.0000 </r>
        <r>  0.0016  0.0007  0.0445  0.1186  0.0000  0.0000  0.0000  0.0000  0.0000 </r>
       </set>
       <set comment="band 5">
        <r>  0.0338  0.0368  0.0203  0.0197  0.0000  0.0000  0.0000  0.0000  0.0000 </r>
        <r>  0.0339  0.0368  0.0203  0.0197  0.0000  0.0000  0.0000  0.0000  0.0000 </r>
       </set>
       <set comment="band 6">
        <r>  0.0335  0.0147  0.0199  0.0419  0.0000  0.0000  0.0000  0.0000  0.0000 </r>
        <r>  0.0335  0.0147  0.0199  0.0419  0.0000  0.0000  0.0000  0.0000  0.0000 </r>
       </set>
       <set comment="band 7">
        <r>  0.0279  0.0591  0.0318  0.0228  0.0000  0.0000  0.0000  0.0000  0.0000 </r>
        <r>  0.0279  0.0591  0.0318  0.0228  0.0000  0.0000  0.0000  0.0000  0.0000 </r>
       </set>
       <set comment="band 8">
        <r>  0.0271  0.0177  0.0308  0.0654  0.0000  0.0000  0.0000  0.0000  0.0000 </r>
        <r>  0.0271  0.0176  0.0308  0.0654  0.0000  0.0000  0.0000  0.0000  0.0000 </r>
       </set>
       <set comment="band 9">
        <r>  0.0002  0.0097  0.0507  0.0715  0.0000  0.0000  0.0000  0.0000  0.0000 </r>
        <r>  0.0002  0.0097  0.0506  0.0718  0.0000  0.0000  0.0000  0.0000  0.0000 </r>
       </set>
       <set comment="band 10">
        <r>  0.0002  0.0738  0.0499  0.0066  0.0000  0.0000  0.0000  0.0000  0.0000 </r>
        <r>  0.0002  0.0739  0.0499  0.0066  0.0000  0.0000  0.0000  0.0000  0.0000 </r>
       </set>
      </set>
      <set comment="kpoint 68">
       <set comment="band 1">
        <r>  0.2019  0.0144  0.0160  0.0111  0.0000  0.0000  0.0000  0.0000  0.0000 </r>
        <r>  0.2020  0.0144  0.0160  0.0111  0.0000  0.0000  0.0000  0.0000  0.0000 </r>
       </set>
       <set comment="band 2">
        <r>  0.2000  0.0133  0.0182  0.0106  0.0000  0.0000  0.0000  0.0000  0.0000 </r>
        <r>  0.1999  0.0133  0.0182  0.0106  0.0000  0.0000  0.0000  0.0000  0.0000 </r>
       </set>
       <set comment="band 3">
        <r>  0.0017  0.0687  0.0788  0.0172  0.0000  0.0000  0.0000  0.0000  0.0000 </r>
        <r>  0.0017  0.0687  0.0788  0.0172  0.0000  0.0000  0.0000  0.0000  0.0000 </r>
       </set>
       <set comment="band 4">
        <r>  0.0016  0.0409  0.0189  0.1038  0.0000  0.0000  0.0000  0.0000  0.0000 </r>
        <r>  0.0016  0.0409  0.0189  0.1038  0.0000  0.0000  0.0000  0.0000  0.0000 </r>
       </set>
       <set comment="band 5">
        <r>  0.0337  0.0503  0.0146  0.0118  0.0000  0.0000  0.0000  0.0000  0.0000 </r>
        <r>  0.0337  0.0503  0.0146  0.0118  0.0000  0.0000  0.0000  0.0000  0.0000 </r>
       </set>
       <set comment="band 6">
        <r>  0.0336  0.0011  0.0428  0.0326  0.0000  0.0000  0.0000  0.0000  0.0000 </r>
        <r>  0.0336  0.0011  0.0428  0.0326  0.0000  0.0000  0.0000  0.0000  0.0000 </r>
       </set>
       <set comment="band 7">
        <r>  0.0283  0.0086  0.0809  0.0242  0.0000  0.0000  0.0000  0.0000  0.0000 </r>
        <r>  0.0283  0.0086  0.0809  0.0242  0.0000  0.0000  0.0000  0.0000  0.0000 </r>
       </set>
       <set comment="band 8">
        <r>  0.0267  0.0662  0.0013  0.0464  0.0000  0.0000  0.0000  0.0000  0.0000 </r>
        <r>  0.0267  0.0662  0.0013  0.0464  0.0000  0.0000  0.0000  0.0000  0.0000 </r>
       </set>
       <set comment="band 9">
        <r>  0.0002  0.0602  0.0011  0.0716  0.0000  0.0000  0.0000  0.0000  0.0000 </r>
        <r>  0.0002  0.0600  0.0011  0.0718  0.0000  0.0000  0.0000  0.0000  0.0000 </r>
       </set>
       <set comment="band 10">
        <r>  0.0003  0.0299  0.0630  0.0364  0.0000  0.0000  0.0000  0.0000  0.0000 </r>
        <r>  0.0002  0.0299  0.0632  0.0364  0.0000  0.0000  0.0000  0.0000  0.0000 </r>
       </set>
      </set>
     </set>
    </set>
   </array>
  </projected>
 </calculation>
 <structure name="finalpos" >
  <crystal>
   <varray name="basis" >
    <v>       3.34889800       0.00000000       1.93348700 </v>
    <v>       1.11629900       3.15737200       1.93348700 </v>
    <v>       0.00000000       0.00000000       3.86697500 </v>
   </varray>
   <i name="volume">     40.88829843 </i>
   <varray name="rec_basis" >
    <v>       0.29860569      -0.10557300       0.00000000 </v>
    <v>       0.00000000       0.31671909       0.00000000 </v>
    <v>      -0.14930281      -0.10557302       0.25860007 </v>
   </varray>
  </crystal>
  <varray name="positions" >
   <v>       0.24552100       0.25000000       0.25224000 </v>
   <v>       0.00000000       0.00000000       0.00000000 </v>
  </varray>
 </structure>
</modeling>
