<?xml version="1.0" encoding="ISO-8859-1"?>
<modeling>
 <generator>
  <i name="program" type="string">vasp </i>
  <i name="version" type="string">6.3.0  </i>
  <i name="subversion" type="string">20Jan22 (build Feb 02 2022 18:12:33) complex                          parallel </i>
  <i name="platform" type="string">LinuxIFC </i>
  <i name="date" type="string">2022 04 15 </i>
  <i name="time" type="string">08:52:05 </i>
 </generator>
 <incar>
  <i type="string" name="PREC">Accurate</i>
  <i type="string" name="ALGO">Fast</i>
  <i type="int" name="ISPIN">     2</i>
  <i type="int" name="NELM">   200</i>
  <i type="int" name="NELMIN">     6</i>
  <i name="EDIFF">      0.00001000</i>
  <i type="int" name="NSW">     0</i>
  <i name="ENCUT">    500.00000000</i>
  <i name="ENAUG">   1360.00000000</i>
  <v name="MAGMOM">      0.00000000      0.00000000      0.00000000      0.00000000      0.00000000      0.00000000      0.00000000</v>
  <i name="NELECT">     27.00000000</i>
  <i type="logical" name="LREAL"> F  </i>
  <i type="int" name="ISMEAR">     0</i>
  <i name="SIGMA">      0.05000000</i>
  <i type="logical" name="LWAVE"> T  </i>
  <i type="logical" name="LCHARG"> T  </i>
  <i type="logical" name="LVTOT"> T  </i>
  <i type="int" name="LORBIT">    11</i>
  <i type="logical" name="LELF"> F  </i>
  <i type="logical" name="LASPH"> T  </i>
  <i type="logical" name="LAECHG"> F  </i>
  <i type="string" name="GGA">Ps</i>
  <i type="logical" name="LMIXTAU"> T  </i>
 </incar>
 <primitive_cell>
  <structure name="primitive_cell" >
   <crystal>
    <varray name="basis" >
     <v>       5.43784835       0.00000000       0.00000000 </v>
     <v>       0.00000000       5.43784835       0.00000000 </v>
     <v>       0.00000000       0.00000000       5.43784835 </v>
    </varray>
    <i name="volume">    160.79823434 </i>
    <varray name="rec_basis" >
     <v>       0.18389626       0.00000000       0.00000000 </v>
     <v>       0.00000000       0.18389626       0.00000000 </v>
     <v>       0.00000000       0.00000000       0.18389626 </v>
    </varray>
   </crystal>
   <varray name="positions" >
    <v>       0.24504615       0.75495385       0.24504615 </v>
    <v>       0.00000000       0.00000000       0.50000000 </v>
    <v>       0.24504615       0.24504615       0.75495385 </v>
    <v>       0.00000000       0.50000000       0.00000000 </v>
    <v>       0.75495385       0.75495385       0.75495385 </v>
    <v>       0.50000000       0.00000000       0.00000000 </v>
    <v>       0.75495385       0.24504615       0.24504615 </v>
   </varray>
  </structure>
  <varray name="primitive_index" >
   <v type="int" >        1 </v>
   <v type="int" >        2 </v>
   <v type="int" >        3 </v>
   <v type="int" >        4 </v>
   <v type="int" >        5 </v>
   <v type="int" >        6 </v>
   <v type="int" >        7 </v>
  </varray>
 </primitive_cell>
 <kpoints>
  <generation param="Gamma">
   <v type="int" name="divisions">       4        4        4 </v>
   <v name="usershift">      0.00000000       0.00000000       0.00000000 </v>
   <v name="genvec1">      0.25000000       0.00000000       0.00000000 </v>
   <v name="genvec2">      0.00000000       0.25000000       0.00000000 </v>
   <v name="genvec3">      0.00000000       0.00000000       0.25000000 </v>
   <v name="shift">      0.00000000       0.00000000       0.00000000 </v>
  </generation>
  <varray name="kpointlist" >
   <v>       0.00000000       0.00000000       0.00000000 </v>
   <v>       0.25000000       0.00000000       0.00000000 </v>
   <v>       0.50000000       0.00000000       0.00000000 </v>
   <v>       0.25000000       0.25000000       0.00000000 </v>
   <v>       0.50000000       0.25000000       0.00000000 </v>
   <v>       0.50000000       0.50000000       0.00000000 </v>
   <v>       0.25000000       0.25000000       0.25000000 </v>
   <v>       0.50000000       0.25000000       0.25000000 </v>
   <v>       0.50000000       0.50000000       0.25000000 </v>
   <v>       0.50000000       0.50000000       0.50000000 </v>
  </varray>
  <varray name="weights" >
   <v>       0.01562500 </v>
   <v>       0.09375000 </v>
   <v>       0.04687500 </v>
   <v>       0.18750000 </v>
   <v>       0.18750000 </v>
   <v>       0.04687500 </v>
   <v>       0.12500000 </v>
   <v>       0.18750000 </v>
   <v>       0.09375000 </v>
   <v>       0.01562500 </v>
  </varray>
 </kpoints>
 <parameters>
  <separator name="general" >
   <i type="string" name="SYSTEM">unknown system</i>
   <i type="logical" name="LCOMPAT"> F  </i>
  </separator>
  <separator name="electronic" >
   <i type="string" name="PREC">accura</i>
   <i name="ENMAX">    500.00000000</i>
   <i name="ENAUG">   1360.00000000</i>
   <i name="EDIFF">      0.00001000</i>
   <i type="int" name="IALGO">    68</i>
   <i type="int" name="IWAVPR">    10</i>
   <i type="int" name="NBANDS">   144</i>
   <i type="int" name="NBANDSLOW">    -1</i>
   <i type="int" name="NBANDSHIGH">    -1</i>
   <i name="NELECT">     27.00000000</i>
   <i type="int" name="TURBO">     0</i>
   <i type="int" name="IRESTART">     0</i>
   <i type="int" name="NREBOOT">     0</i>
   <i type="int" name="NMIN">     0</i>
   <i name="EREF">      0.00000000</i>
   <separator name="electronic smearing" >
    <i type="int" name="ISMEAR">     0</i>
    <i name="SIGMA">      0.05000000</i>
    <i name="KSPACING">      0.50000000</i>
    <i type="logical" name="KGAMMA"> T  </i>
    <i type="logical" name="KBLOWUP"> T  </i>
   </separator>
   <separator name="electronic projectors" >
    <i type="logical" name="LREAL"> F  </i>
    <v name="ROPT">      0.00000000</v>
    <i type="int" name="LMAXPAW">  -100</i>
    <i type="int" name="LMAXMIX">     2</i>
    <i type="logical" name="NLSPLINE"> F  </i>
   </separator>
   <separator name="electronic startup" >
    <i type="int" name="ISTART">     0</i>
    <i type="int" name="ICHARG">     2</i>
    <i type="int" name="INIWAV">     1</i>
   </separator>
   <separator name="electronic spin" >
    <i type="int" name="ISPIN">     2</i>
    <i type="logical" name="LNONCOLLINEAR"> F  </i>
    <v name="MAGMOM">      0.00000000      0.00000000      0.00000000      0.00000000      0.00000000      0.00000000      0.00000000</v>
    <i name="NUPDOWN">     -1.00000000</i>
    <i type="logical" name="LSORBIT"> F  </i>
    <v name="SAXIS">      0.00000000      0.00000000      1.00000000</v>
    <i type="logical" name="LSPIRAL"> F  </i>
    <v name="QSPIRAL">      0.00000000      0.00000000      0.00000000</v>
    <i type="logical" name="LZEROZ"> F  </i>
   </separator>
   <separator name="electronic exchange-correlation" >
    <i type="logical" name="LASPH"> T  </i>
    <i type="logical" name="LMETAGGA"> F  </i>
   </separator>
   <separator name="electronic convergence" >
    <i type="int" name="NELM">   200</i>
    <i type="int" name="NELMDL">    -5</i>
    <i type="int" name="NELMIN">     6</i>
    <i name="ENINI">    500.00000000</i>
    <separator name="electronic convergence detail" >
     <i type="logical" name="LDIAG"> T  </i>
     <i type="logical" name="LSUBROT"> F  </i>
     <i name="WEIMIN">      0.00000000</i>
     <i name="EBREAK">      0.00000002</i>
     <i name="DEPER">      0.30000000</i>
     <i type="int" name="NRMM">     4</i>
     <i name="TIME">      0.40000000</i>
    </separator>
   </separator>
   <separator name="electronic mixer" >
    <i name="AMIX">      0.40000000</i>
    <i name="BMIX">      1.00000000</i>
    <i name="AMIN">      0.10000000</i>
    <i name="AMIX_MAG">      1.60000000</i>
    <i name="BMIX_MAG">      1.00000000</i>
    <separator name="electronic mixer details" >
     <i type="int" name="IMIX">     4</i>
     <i type="logical" name="MIXFIRST"> F  </i>
     <i type="int" name="MAXMIX">   -45</i>
     <i name="WC">    100.00000000</i>
     <i type="int" name="INIMIX">     1</i>
     <i type="int" name="MIXPRE">     1</i>
     <i type="int" name="MREMOVE">     5</i>
    </separator>
   </separator>
   <separator name="electronic dipolcorrection" >
    <i type="logical" name="LDIPOL"> F  </i>
    <i type="logical" name="LMONO"> F  </i>
    <i type="int" name="IDIPOL">     0</i>
    <i name="EPSILON">      1.00000000</i>
    <v name="DIPOL">   -100.00000000   -100.00000000   -100.00000000</v>
    <i name="EFIELD">      0.00000000</i>
   </separator>
  </separator>
  <separator name="grids" >
   <i type="int" name="NGX">    40</i>
   <i type="int" name="NGY">    40</i>
   <i type="int" name="NGZ">    40</i>
   <i type="int" name="NGXF">    80</i>
   <i type="int" name="NGYF">    80</i>
   <i type="int" name="NGZF">    80</i>
   <i type="logical" name="ADDGRID"> F  </i>
  </separator>
  <separator name="ionic" >
   <i type="int" name="NSW">     0</i>
   <i type="int" name="IBRION">    -1</i>
   <i type="int" name="MDALGO">     0</i>
   <i type="int" name="ISIF">     2</i>
   <i name="PSTRESS">      0.00000000</i>
   <i name="EDIFFG">      0.00010000</i>
   <i type="int" name="NFREE">     0</i>
   <i name="POTIM">      0.50000000</i>
   <i name="SMASS">     -3.00000000</i>
   <i name="SCALEE">      1.00000000</i>
  </separator>
  <separator name="ionic md" >
   <i name="TEBEG">      0.00010000</i>
   <i name="TEEND">      0.00010000</i>
   <i type="int" name="NBLOCK">     1</i>
   <i type="int" name="KBLOCK">     1</i>
   <i type="int" name="NPACO">   256</i>
   <i name="APACO">     10.00000000</i>
  </separator>
  <separator name="symmetry" >
   <i type="int" name="ISYM">     2</i>
   <i name="SYMPREC">      0.00001000</i>
  </separator>
  <separator name="dos" >
   <i type="int" name="LORBIT">    11</i>
   <v name="RWIGS">     -1.00000000</v>
   <i type="int" name="NEDOS">   301</i>
   <i name="EMIN">     10.00000000</i>
   <i name="EMAX">    -10.00000000</i>
   <i name="EFERMI">      0.00000000</i>
  </separator>
  <separator name="writing" >
   <i type="int" name="NWRITE">     2</i>
   <i type="logical" name="LWAVE"> T  </i>
   <i type="logical" name="LDOWNSAMPLE"> F  </i>
   <i type="logical" name="LCHARG"> T  </i>
   <i type="logical" name="LPARD"> F  </i>
   <i type="logical" name="LVTOT"> T  </i>
   <i type="logical" name="LVHAR"> F  </i>
   <i type="logical" name="LELF"> F  </i>
   <i type="logical" name="LOPTICS"> F  </i>
   <v name="STM">      0.00000000      0.00000000      0.00000000      0.00000000      0.00000000      0.00000000      0.00000000</v>
  </separator>
  <separator name="performance" >
   <i type="int" name="NPAR">   144</i>
   <i type="int" name="NSIM">     4</i>
   <i type="int" name="NBLK">    -1</i>
   <i type="logical" name="LPLANE"> T  </i>
   <i type="logical" name="LSCALAPACK"> T  </i>
   <i type="logical" name="LSCAAWARE"> T  </i>
   <i type="logical" name="LSCALU"> F  </i>
   <i type="logical" name="LASYNC"> F  </i>
   <i type="logical" name="LORBITALREAL"> F  </i>
  </separator>
  <separator name="miscellaneous" >
   <i type="int" name="IDIOT">     3</i>
   <i type="int" name="PHON_NSTRUCT">    -1</i>
   <i type="logical" name="LMUSIC"> F  </i>
   <v name="POMASS">     28.08500000</v>
   <v name="DARWINR">      0.00000000</v>
   <v name="DARWINV">      1.00000000</v>
   <i type="logical" name="LCORR"> T  </i>
  </separator>
  <i type="logical" name="GGA_COMPAT"> T  </i>
  <i type="logical" name="LBERRY"> F  </i>
  <i type="int" name="ICORELEVEL">     0</i>
  <i type="logical" name="LDAU"> F  </i>
  <i type="int" name="I_CONSTRAINED_M">     0</i>
  <separator name="electronic exchange-correlation" >
   <i type="string" name="GGA">PS</i>
   <i type="int" name="VOSKOWN">     0</i>
   <i type="logical" name="LHFCALC"> F  </i>
   <i type="string" name="PRECFOCK"></i>
   <i type="logical" name="LSYMGRAD"> F  </i>
   <i type="logical" name="LHFONE"> F  </i>
   <i type="logical" name="LRHFCALC"> F  </i>
   <i type="logical" name="LTHOMAS"> F  </i>
   <i type="logical" name="LMODELHF"> F  </i>
   <i type="logical" name="LFOCKACE"> F  </i>
   <i name="ENCUT4O">     -1.00000000</i>
   <i type="int" name="EXXOEP">     0</i>
   <i type="int" name="FOURORBIT">     0</i>
   <i name="AEXX">      0.00000000</i>
   <i name="HFALPHA">      0.00000000</i>
   <i name="MCALPHA">      0.00000000</i>
   <i name="ALDAX">      1.00000000</i>
   <i name="AGGAX">      1.00000000</i>
   <i name="ALDAC">      1.00000000</i>
   <i name="AGGAC">      1.00000000</i>
   <i type="int" name="NKREDX">     1</i>
   <i type="int" name="NKREDY">     1</i>
   <i type="int" name="NKREDZ">     1</i>
   <i type="logical" name="SHIFTRED"> F  </i>
   <i type="logical" name="ODDONLY"> F  </i>
   <i type="logical" name="EVENONLY"> F  </i>
   <i type="int" name="LMAXFOCK">     0</i>
   <i type="int" name="NMAXFOCKAE">     0</i>
   <i type="logical" name="LFOCKAEDFT"> F  </i>
   <i name="HFSCREEN">      0.00000000</i>
   <i name="HFSCREENC">      0.00000000</i>
   <i type="int" name="NBANDSGWLOW">     0</i>
  </separator>
  <separator name="vdW DFT" >
   <i type="logical" name="LUSE_VDW"> F  </i>
   <i name="Zab_VDW">     -0.84910000</i>
   <i name="PARAM1">      0.12340000</i>
   <i name="PARAM2">      1.00000000</i>
   <i name="PARAM3">      0.00000000</i>
  </separator>
  <separator name="model GW" >
   <i type="int" name="MODEL_GW">     0</i>
   <i name="MODEL_EPS0">     13.78270580</i>
   <i name="MODEL_ALPHA">      1.00000000</i>
  </separator>
  <separator name="linear response parameters" >
   <i type="logical" name="LEPSILON"> F  </i>
   <i type="logical" name="LRPA"> F  </i>
   <i type="logical" name="LNABLA"> F  </i>
   <i type="logical" name="LVEL"> F  </i>
   <i name="CSHIFT">      0.10000000</i>
   <i name="OMEGAMAX">     -1.00000000</i>
   <i name="DEG_THRESHOLD">      0.00200000</i>
   <i name="RTIME">     -0.10000000</i>
   <i name="WPLASMAI">      0.00000000</i>
   <v name="DFIELD">      0.00000000      0.00000000      0.00000000</v>
   <v name="WPLASMA">      0.00000000      0.00000000      0.00000000      0.00000000      0.00000000      0.00000000      0.00000000      0.00000000      0.00000000</v>
  </separator>
  <separator name="orbital magnetization" >
   <i type="logical" name="NUCIND"> F  </i>
   <v name="MAGPOS">      0.00000000      0.00000000      0.00000000</v>
   <i type="logical" name="LNICSALL"> T  </i>
   <i type="logical" name="ORBITALMAG"> F  </i>
   <i type="logical" name="LMAGBLOCH"> F  </i>
   <i type="logical" name="LCHIMAG"> F  </i>
   <i type="logical" name="LGAUGE"> T  </i>
   <i type="int" name="MAGATOM">     0</i>
   <v name="MAGDIPOL">      0.00000000      0.00000000      0.00000000</v>
   <v name="AVECCONST">      0.00000000      0.00000000      0.00000000</v>
  </separator>
  <separator name="response functions" >
   <i type="logical" name="LFINITE_TEMPERATURE"> F  </i>
   <i type="logical" name="LADDER"> F  </i>
   <i type="logical" name="LRPAFORCE"> F  </i>
   <i type="logical" name="LFXC"> F  </i>
   <i type="logical" name="LHARTREE"> T  </i>
   <i type="int" name="IBSE">     0</i>
   <v type="int" name="KPOINT">    -1     0     0     0</v>
   <i type="logical" name="LTCTC"> F  </i>
   <i type="logical" name="LTCTE"> F  </i>
   <i type="logical" name="LTETE"> F  </i>
   <i type="logical" name="LTRIPLET"> F  </i>
   <i type="logical" name="LFXCEPS"> F  </i>
   <i type="logical" name="LFXHEG"> F  </i>
   <i type="int" name="NATURALO">     2</i>
   <i type="logical" name="LHOLEGF"> F  </i>
   <i type="logical" name="L2ORDER"> F  </i>
   <i type="logical" name="LDMP1"> F  </i>
   <i type="logical" name="LMP2LT"> F  </i>
   <i type="logical" name="LSMP2LT"> F  </i>
   <i type="logical" name="LGWLF"> F  </i>
   <i name="ENCUTGW">     -2.00000000</i>
   <i name="ENCUTGWSOFT">     -2.00000000</i>
   <i name="ENCUTLF">     -1.00000000</i>
   <i type="logical" name="LESF_SPLINES"> F  </i>
   <i type="int" name="LMAXMP2">    -1</i>
   <i name="SCISSOR">      0.00000000</i>
   <i type="int" name="NOMEGA">     0</i>
   <i type="int" name="NOMEGAR">     0</i>
   <i type="int" name="NBANDSGW">    -1</i>
   <i type="int" name="NBANDSO">    -1</i>
   <i type="int" name="NBANDSV">    -1</i>
   <i type="int" name="NELMGW">     1</i>
   <i type="int" name="NELMHF">     1</i>
   <i type="int" name="DIM">     3</i>
   <i type="int" name="IESPILON">     4</i>
   <i type="int" name="ANTIRES">     0</i>
   <i name="OMEGAMAX">    -30.00000000</i>
   <i name="OMEGAMIN">    -30.00000000</i>
   <i name="OMEGATL">   -200.00000000</i>
   <i type="int" name="OMEGAGRID">     0</i>
   <i name="CSHIFT">     -0.10000000</i>
   <i type="logical" name="LSELFENERGY"> F  </i>
   <i type="logical" name="LSPECTRAL"> F  </i>
   <i type="logical" name="LSPECTRALGW"> F  </i>
   <i type="logical" name="LSINGLES"> F  </i>
   <i type="logical" name="LFERMIGW"> F  </i>
   <i type="logical" name="ODDONLYGW"> F  </i>
   <i type="logical" name="EVENONLYGW"> F  </i>
   <i type="int" name="NKREDLFX">     1</i>
   <i type="int" name="NKREDLFY">     1</i>
   <i type="int" name="NKREDLFZ">     1</i>
   <i type="int" name="MAXMEM">  2800</i>
   <i type="int" name="TELESCOPE">     0</i>
   <i type="int" name="NTAUPAR">    -1</i>
   <i type="int" name="NOMEGAPAR">    -1</i>
   <i name="DAMP_NEWTON">      0.80000001</i>
   <i name="LAMBDA">      1.00000000</i>
  </separator>
  <separator name="External order field" >
   <i name="OFIELD_KAPPA">      0.00000000</i>
   <v name="OFIELD_K">      0.00000000      0.00000000      0.00000000</v>
   <i name="OFIELD_Q6_NEAR">      0.00000000</i>
   <i name="OFIELD_Q6_FAR">      0.00000000</i>
   <i name="OFIELD_A">      0.00000000</i>
  </separator>
  <separator name="optional k-points parameters" >
   <i type="int" name="KPOINTS_OPT_MODE">     1</i>
   <i type="logical" name="LKPOINTS_OPT"> F  </i>
  </separator>
 </parameters>
 <atominfo>
  <atoms>       7 </atoms>
  <types>       1 </types>
  <array name="atoms" >
   <dimension dim="1">ion</dimension>
   <field type="string">element</field>
   <field type="int">atomtype</field>
   <set>
    <rc><c>Si</c><c>   1</c></rc>
    <rc><c>Si</c><c>   1</c></rc>
    <rc><c>Si</c><c>   1</c></rc>
    <rc><c>Si</c><c>   1</c></rc>
    <rc><c>Si</c><c>   1</c></rc>
    <rc><c>Si</c><c>   1</c></rc>
    <rc><c>Si</c><c>   1</c></rc>
   </set>
  </array>
  <array name="atomtypes" >
   <dimension dim="1">type</dimension>
   <field type="int">atomspertype</field>
   <field type="string">element</field>
   <field>mass</field>
   <field>valence</field>
   <field type="string">pseudopotential</field>
   <set>
    <rc><c>   7</c><c>Si</c><c>     28.08500000</c><c>      4.00000000</c><c>  PAW_PBE Si 05Jan2001                  </c></rc>
   </set>
  </array>
 </atominfo>
 <structure name="initialpos" >
  <crystal>
   <varray name="basis" >
    <v>       5.43784835       0.00000000       0.00000000 </v>
    <v>       0.00000000       5.43784835       0.00000000 </v>
    <v>       0.00000000       0.00000000       5.43784835 </v>
   </varray>
   <i name="volume">    160.79823434 </i>
   <varray name="rec_basis" >
    <v>       0.18389626       0.00000000       0.00000000 </v>
    <v>       0.00000000       0.18389626       0.00000000 </v>
    <v>       0.00000000       0.00000000       0.18389626 </v>
   </varray>
  </crystal>
  <varray name="positions" >
   <v>       0.24504615       0.75495385       0.24504615 </v>
   <v>       0.00000000       0.00000000       0.50000000 </v>
   <v>       0.24504615       0.24504615       0.75495385 </v>
   <v>       0.00000000       0.50000000       0.00000000 </v>
   <v>       0.75495385       0.75495385       0.75495385 </v>
   <v>       0.50000000       0.00000000       0.00000000 </v>
   <v>       0.75495385       0.24504615       0.24504615 </v>
  </varray>
 </structure>
 <calculation>
  <scstep>
   <time name="dav">    5.20    5.21</time>
   <time name="total">    5.41    5.42</time>
   <energy>
    <i name="alphaZ">     10.25815623 </i>
    <i name="ewald">   -738.71150943 </i>
    <i name="hartreedc">    -63.31552218 </i>
    <i name="XCdc">    -62.38578099 </i>
    <i name="pawpsdc">    612.34974655 </i>
    <i name="pawaedc">   -491.33201702 </i>
    <i name="eentropy">     -0.00502451 </i>
    <i name="bandstr">     -9.03187177 </i>
    <i name="atom">    718.02812073 </i>
    <i name="e_fr_energy">    -24.14570240 </i>
    <i name="e_wo_entrp">    -24.14067789 </i>
    <i name="e_0_energy">    -24.14319014 </i>
   </energy>
  </scstep>
  <scstep>
   <time name="dav">   12.37   12.38</time>
   <time name="total">   12.37   12.39</time>
   <energy>
    <i name="e_fr_energy">    -42.28847712 </i>
    <i name="e_wo_entrp">    -42.28318785 </i>
    <i name="e_0_energy">    -42.28583248 </i>
   </energy>
  </scstep>
  <scstep>
   <time name="dav">    5.34    5.36</time>
   <time name="total">    5.34    5.36</time>
   <energy>
    <i name="e_fr_energy">    -42.30304363 </i>
    <i name="e_wo_entrp">    -42.29775435 </i>
    <i name="e_0_energy">    -42.30039899 </i>
   </energy>
  </scstep>
  <scstep>
   <time name="dav">   25.46   25.48</time>
   <time name="total">   25.47   25.48</time>
   <energy>
    <i name="e_fr_energy">    -42.30305144 </i>
    <i name="e_wo_entrp">    -42.29776216 </i>
    <i name="e_0_energy">    -42.30040680 </i>
   </energy>
  </scstep>
  <scstep>
   <time name="dav">    5.68    5.70</time>
   <time name="total">    5.73    5.75</time>
   <energy>
    <i name="e_fr_energy">    -42.30305144 </i>
    <i name="e_wo_entrp">    -42.29776216 </i>
    <i name="e_0_energy">    -42.30040680 </i>
   </energy>
  </scstep>
  <scstep>
   <time name="diag">    0.81    0.81</time>
   <time name="diis">    0.19    0.19</time>
   <time name="orth">    0.11    0.11</time>
   <time name="total">    1.38    1.40</time>
   <energy>
    <i name="e_fr_energy">    -41.78522853 </i>
    <i name="e_wo_entrp">    -41.77993925 </i>
    <i name="e_0_energy">    -41.78258389 </i>
   </energy>
  </scstep>
  <scstep>
   <time name="diag">    0.78    0.78</time>
   <time name="diis">    0.30    0.30</time>
   <time name="orth">    0.11    0.11</time>
   <time name="total">    1.46    1.48</time>
   <energy>
    <i name="e_fr_energy">    -41.58331657 </i>
    <i name="e_wo_entrp">    -41.57802729 </i>
    <i name="e_0_energy">    -41.58067193 </i>
   </energy>
  </scstep>
  <scstep>
   <time name="diag">    0.78    0.78</time>
   <time name="diis">    0.27    0.27</time>
   <time name="orth">    0.11    0.11</time>
   <time name="total">    1.42    1.43</time>
   <energy>
    <i name="e_fr_energy">    -41.57510519 </i>
    <i name="e_wo_entrp">    -41.56981591 </i>
    <i name="e_0_energy">    -41.57246055 </i>
   </energy>
  </scstep>
  <scstep>
   <time name="diag">    0.77    0.77</time>
   <time name="diis">    0.31    0.31</time>
   <time name="orth">    0.11    0.11</time>
   <time name="total">    1.46    1.48</time>
   <energy>
    <i name="e_fr_energy">    -41.57499844 </i>
    <i name="e_wo_entrp">    -41.56970916 </i>
    <i name="e_0_energy">    -41.57235380 </i>
   </energy>
  </scstep>
  <scstep>
   <time name="diag">    0.76    0.76</time>
   <time name="diis">    0.30    0.30</time>
   <time name="orth">    0.11    0.11</time>
   <time name="total">    1.44    1.46</time>
   <energy>
    <i name="e_fr_energy">    -41.57505548 </i>
    <i name="e_wo_entrp">    -41.56976621 </i>
    <i name="e_0_energy">    -41.57241085 </i>
   </energy>
  </scstep>
  <scstep>
   <time name="diag">    0.76    0.76</time>
   <time name="diis">    0.32    0.32</time>
   <time name="orth">    0.11    0.11</time>
   <time name="total">    1.44    1.46</time>
   <energy>
    <i name="e_fr_energy">    -41.57501551 </i>
    <i name="e_wo_entrp">    -41.56972623 </i>
    <i name="e_0_energy">    -41.57237087 </i>
   </energy>
  </scstep>
  <scstep>
   <time name="diag">    0.75    0.75</time>
   <time name="diis">    0.31    0.31</time>
   <time name="orth">    0.11    0.11</time>
   <time name="total">    1.39    1.41</time>
   <energy>
    <i name="alphaZ">     10.25815623 </i>
    <i name="ewald">   -738.71150943 </i>
    <i name="hartreedc">    -74.06920335 </i>
    <i name="XCdc">    -63.49656529 </i>
    <i name="pawpsdc">   2429.41931972 </i>
    <i name="pawaedc">  -2308.83465285 </i>
    <i name="eentropy">     -0.00528928 </i>
    <i name="bandstr">    -14.16339250 </i>
    <i name="atom">    718.02812073 </i>
    <i name="e_fr_energy">    -41.57501602 </i>
    <i name="e_wo_entrp">    -41.56972674 </i>
    <i name="e_0_energy">    -41.57237138 </i>
   </energy>
  </scstep>
  <structure>
   <crystal>
    <varray name="basis" >
     <v>       5.43784835       0.00000000       0.00000000 </v>
     <v>       0.00000000       5.43784835       0.00000000 </v>
     <v>       0.00000000       0.00000000       5.43784835 </v>
    </varray>
    <i name="volume">    160.79823434 </i>
    <varray name="rec_basis" >
     <v>       0.18389626       0.00000000       0.00000000 </v>
     <v>       0.00000000       0.18389626       0.00000000 </v>
     <v>       0.00000000       0.00000000       0.18389626 </v>
    </varray>
   </crystal>
   <varray name="positions" >
    <v>       0.24504615       0.75495385       0.24504615 </v>
    <v>       0.00000000       0.00000000       0.50000000 </v>
    <v>       0.24504615       0.24504615       0.75495385 </v>
    <v>       0.00000000       0.50000000       0.00000000 </v>
    <v>       0.75495385       0.75495385       0.75495385 </v>
    <v>       0.50000000       0.00000000       0.00000000 </v>
    <v>       0.75495385       0.24504615       0.24504615 </v>
   </varray>
  </structure>
  <varray name="forces" >
   <v>      -0.02455732       0.02455732      -0.02455732 </v>
   <v>      -0.00000000      -0.00000000       0.00000000 </v>
   <v>      -0.02455732      -0.02455732       0.02455732 </v>
   <v>      -0.00000000      -0.00000000       0.00000000 </v>
   <v>       0.02455732       0.02455732       0.02455732 </v>
   <v>      -0.00000000       0.00000000       0.00000000 </v>
   <v>       0.02455732      -0.02455732      -0.02455732 </v>
  </varray>
  <varray name="stress" >
   <v>    -108.67121206       0.00000000       0.00000000 </v>
   <v>       0.00000000    -108.67121206       0.00000000 </v>
   <v>       0.00000000      -0.00000000    -108.67121206 </v>
  </varray>
  <energy>
   <i name="e_fr_energy">    -41.57501602 </i>
   <i name="e_wo_entrp">    -41.56972674 </i>
   <i name="e_0_energy">    -41.57237138 </i>
  </energy>
  <time name="totalsc">   67.17   67.48</time>
  <eigenvalues>
   <array>
    <dimension dim="1">band</dimension>
    <dimension dim="2">kpoint</dimension>
    <dimension dim="3">spin</dimension>
    <field>eigene</field>
    <field>occ</field>
    <set>
     <set comment="spin 1">
      <set comment="kpoint 1">
       <r>   -7.0034    1.0000 </r>
       <r>   -3.3159    1.0000 </r>
       <r>   -3.3159    1.0000 </r>
       <r>   -2.9645    1.0000 </r>
       <r>   -2.9645    1.0000 </r>
       <r>   -2.9645    1.0000 </r>
       <r>    1.4977    1.0000 </r>
       <r>    1.7022    1.0000 </r>
       <r>    1.7022    1.0000 </r>
       <r>    1.7022    1.0000 </r>
       <r>    2.7614    1.0000 </r>
       <r>    2.7614    1.0000 </r>
       <r>    2.7614    1.0000 </r>
       <r>    5.7037    0.0000 </r>
       <r>    5.7037    0.0000 </r>
       <r>    5.7037    0.0000 </r>
       <r>    5.8915    0.0000 </r>
       <r>    5.8915    0.0000 </r>
       <r>    6.0562    0.0000 </r>
       <r>    6.1345    0.0000 </r>
       <r>    6.1345    0.0000 </r>
       <r>    6.1345    0.0000 </r>
       <r>    8.9442    0.0000 </r>
       <r>    8.9442    0.0000 </r>
       <r>    8.9442    0.0000 </r>
       <r>   10.5711    0.0000 </r>
       <r>   12.9155    0.0000 </r>
       <r>   12.9155    0.0000 </r>
       <r>   13.4453    0.0000 </r>
       <r>   14.7008    0.0000 </r>
       <r>   14.7008    0.0000 </r>
       <r>   14.7008    0.0000 </r>
       <r>   15.4505    0.0000 </r>
       <r>   15.4505    0.0000 </r>
       <r>   15.4505    0.0000 </r>
       <r>   15.4744    0.0000 </r>
       <r>   15.4744    0.0000 </r>
       <r>   15.4744    0.0000 </r>
       <r>   16.5312    0.0000 </r>
       <r>   16.5312    0.0000 </r>
       <r>   16.5312    0.0000 </r>
       <r>   17.0888    0.0000 </r>
       <r>   17.4605    0.0000 </r>
       <r>   17.4605    0.0000 </r>
       <r>   17.5336    0.0000 </r>
       <r>   17.5336    0.0000 </r>
       <r>   17.5336    0.0000 </r>
       <r>   18.5154    0.0000 </r>
       <r>   18.5154    0.0000 </r>
       <r>   18.5154    0.0000 </r>
       <r>   19.2276    0.0000 </r>
       <r>   19.4134    0.0000 </r>
       <r>   19.4134    0.0000 </r>
       <r>   20.3713    0.0000 </r>
       <r>   21.1238    0.0000 </r>
       <r>   21.1238    0.0000 </r>
       <r>   21.1238    0.0000 </r>
       <r>   23.5280    0.0000 </r>
       <r>   23.7962    0.0000 </r>
       <r>   23.7962    0.0000 </r>
       <r>   23.7962    0.0000 </r>
       <r>   24.6419    0.0000 </r>
       <r>   24.6419    0.0000 </r>
       <r>   24.6419    0.0000 </r>
       <r>   25.1287    0.0000 </r>
       <r>   25.1287    0.0000 </r>
       <r>   25.1287    0.0000 </r>
       <r>   25.1985    0.0000 </r>
       <r>   25.1985    0.0000 </r>
       <r>   25.1985    0.0000 </r>
       <r>   25.8935    0.0000 </r>
       <r>   25.8935    0.0000 </r>
       <r>   26.2217    0.0000 </r>
       <r>   26.2217    0.0000 </r>
       <r>   26.5964    0.0000 </r>
       <r>   26.5964    0.0000 </r>
       <r>   26.5964    0.0000 </r>
       <r>   27.4443    0.0000 </r>
       <r>   27.4443    0.0000 </r>
       <r>   27.4443    0.0000 </r>
       <r>   27.6912    0.0000 </r>
       <r>   28.2153    0.0000 </r>
       <r>   28.2153    0.0000 </r>
       <r>   28.2153    0.0000 </r>
       <r>   29.3250    0.0000 </r>
       <r>   29.3250    0.0000 </r>
       <r>   31.0003    0.0000 </r>
       <r>   31.5617    0.0000 </r>
       <r>   31.5617    0.0000 </r>
       <r>   31.5617    0.0000 </r>
       <r>   32.8848    0.0000 </r>
       <r>   32.8848    0.0000 </r>
       <r>   33.4934    0.0000 </r>
       <r>   33.4934    0.0000 </r>
       <r>   33.4934    0.0000 </r>
       <r>   33.7177    0.0000 </r>
       <r>   33.7177    0.0000 </r>
       <r>   33.7177    0.0000 </r>
       <r>   35.9326    0.0000 </r>
       <r>   35.9326    0.0000 </r>
       <r>   35.9326    0.0000 </r>
       <r>   37.2265    0.0000 </r>
       <r>   37.2265    0.0000 </r>
       <r>   37.2265    0.0000 </r>
       <r>   39.1497    0.0000 </r>
       <r>   39.1497    0.0000 </r>
       <r>   39.1584    0.0000 </r>
       <r>   39.1584    0.0000 </r>
       <r>   39.1584    0.0000 </r>
       <r>   39.1714    0.0000 </r>
       <r>   39.1714    0.0000 </r>
       <r>   39.1714    0.0000 </r>
       <r>   39.5106    0.0000 </r>
       <r>   40.5123    0.0000 </r>
       <r>   40.5123    0.0000 </r>
       <r>   40.5123    0.0000 </r>
       <r>   40.5234    0.0000 </r>
       <r>   40.9283    0.0000 </r>
       <r>   40.9283    0.0000 </r>
       <r>   40.9283    0.0000 </r>
       <r>   42.2042    0.0000 </r>
       <r>   42.2042    0.0000 </r>
       <r>   42.3955    0.0000 </r>
       <r>   42.3955    0.0000 </r>
       <r>   42.3955    0.0000 </r>
       <r>   42.6919    0.0000 </r>
       <r>   42.9447    0.0000 </r>
       <r>   43.2202    0.0000 </r>
       <r>   43.2202    0.0000 </r>
       <r>   43.2202    0.0000 </r>
       <r>   43.3024    0.0000 </r>
       <r>   43.3024    0.0000 </r>
       <r>   44.3511    0.0000 </r>
       <r>   44.3511    0.0000 </r>
       <r>   44.3511    0.0000 </r>
       <r>   45.0414    0.0000 </r>
       <r>   45.0424    0.0000 </r>
       <r>   45.2997    0.0000 </r>
       <r>   45.2997    0.0000 </r>
       <r>   45.2997    0.0000 </r>
       <r>   45.5620    0.0000 </r>
       <r>   45.5620    0.0000 </r>
       <r>   45.5620    0.0000 </r>
       <r>   46.2287    0.0000 </r>
      </set>
      <set comment="kpoint 2">
       <r>   -6.7654    1.0000 </r>
       <r>   -4.6483    1.0000 </r>
       <r>   -3.2529    1.0000 </r>
       <r>   -2.8999    1.0000 </r>
       <r>   -2.8999    1.0000 </r>
       <r>   -1.5459    1.0000 </r>
       <r>    1.2558    1.0000 </r>
       <r>    1.4392    1.0000 </r>
       <r>    1.4392    1.0000 </r>
       <r>    1.6741    1.0000 </r>
       <r>    2.1242    1.0000 </r>
       <r>    2.6058    1.0000 </r>
       <r>    2.6058    1.0000 </r>
       <r>    5.0200    0.0000 </r>
       <r>    5.4759    0.0000 </r>
       <r>    5.4759    0.0000 </r>
       <r>    5.8085    0.0000 </r>
       <r>    6.4288    0.0000 </r>
       <r>    6.9971    0.0000 </r>
       <r>    6.9971    0.0000 </r>
       <r>    7.0349    0.0000 </r>
       <r>    7.3552    0.0000 </r>
       <r>    8.5652    0.0000 </r>
       <r>    9.8943    0.0000 </r>
       <r>    9.8943    0.0000 </r>
       <r>   10.9044    0.0000 </r>
       <r>   12.1400    0.0000 </r>
       <r>   12.3983    0.0000 </r>
       <r>   12.3983    0.0000 </r>
       <r>   12.5923    0.0000 </r>
       <r>   13.2118    0.0000 </r>
       <r>   13.5983    0.0000 </r>
       <r>   14.5425    0.0000 </r>
       <r>   14.5788    0.0000 </r>
       <r>   14.5788    0.0000 </r>
       <r>   14.9364    0.0000 </r>
       <r>   15.8579    0.0000 </r>
       <r>   15.8579    0.0000 </r>
       <r>   16.0860    0.0000 </r>
       <r>   16.8491    0.0000 </r>
       <r>   16.9255    0.0000 </r>
       <r>   16.9255    0.0000 </r>
       <r>   17.1424    0.0000 </r>
       <r>   17.5087    0.0000 </r>
       <r>   17.9479    0.0000 </r>
       <r>   18.4389    0.0000 </r>
       <r>   18.4389    0.0000 </r>
       <r>   19.1632    0.0000 </r>
       <r>   19.1632    0.0000 </r>
       <r>   19.5023    0.0000 </r>
       <r>   19.8615    0.0000 </r>
       <r>   20.0909    0.0000 </r>
       <r>   20.8989    0.0000 </r>
       <r>   21.2241    0.0000 </r>
       <r>   21.5213    0.0000 </r>
       <r>   21.5213    0.0000 </r>
       <r>   21.6669    0.0000 </r>
       <r>   22.3091    0.0000 </r>
       <r>   22.4729    0.0000 </r>
       <r>   22.4729    0.0000 </r>
       <r>   23.0657    0.0000 </r>
       <r>   23.4779    0.0000 </r>
       <r>   23.4779    0.0000 </r>
       <r>   23.8500    0.0000 </r>
       <r>   24.2612    0.0000 </r>
       <r>   24.5019    0.0000 </r>
       <r>   24.6149    0.0000 </r>
       <r>   24.6149    0.0000 </r>
       <r>   25.2009    0.0000 </r>
       <r>   25.6813    0.0000 </r>
       <r>   25.6813    0.0000 </r>
       <r>   26.3561    0.0000 </r>
       <r>   26.9582    0.0000 </r>
       <r>   27.2723    0.0000 </r>
       <r>   27.2723    0.0000 </r>
       <r>   27.8221    0.0000 </r>
       <r>   28.0191    0.0000 </r>
       <r>   28.1901    0.0000 </r>
       <r>   28.5951    0.0000 </r>
       <r>   28.7145    0.0000 </r>
       <r>   28.7661    0.0000 </r>
       <r>   28.7661    0.0000 </r>
       <r>   29.4111    0.0000 </r>
       <r>   29.7006    0.0000 </r>
       <r>   29.7006    0.0000 </r>
       <r>   30.0879    0.0000 </r>
       <r>   30.5051    0.0000 </r>
       <r>   30.8745    0.0000 </r>
       <r>   31.3740    0.0000 </r>
       <r>   31.4656    0.0000 </r>
       <r>   31.4656    0.0000 </r>
       <r>   32.7546    0.0000 </r>
       <r>   32.7546    0.0000 </r>
       <r>   32.8572    0.0000 </r>
       <r>   34.1239    0.0000 </r>
       <r>   34.8513    0.0000 </r>
       <r>   34.8513    0.0000 </r>
       <r>   34.8836    0.0000 </r>
       <r>   35.2480    0.0000 </r>
       <r>   36.0387    0.0000 </r>
       <r>   36.0387    0.0000 </r>
       <r>   36.6780    0.0000 </r>
       <r>   36.6780    0.0000 </r>
       <r>   36.9103    0.0000 </r>
       <r>   36.9978    0.0000 </r>
       <r>   37.2827    0.0000 </r>
       <r>   37.4679    0.0000 </r>
       <r>   37.5491    0.0000 </r>
       <r>   37.5491    0.0000 </r>
       <r>   38.3952    0.0000 </r>
       <r>   38.3952    0.0000 </r>
       <r>   38.5431    0.0000 </r>
       <r>   38.6962    0.0000 </r>
       <r>   40.0084    0.0000 </r>
       <r>   40.0362    0.0000 </r>
       <r>   40.0362    0.0000 </r>
       <r>   40.6157    0.0000 </r>
       <r>   40.6995    0.0000 </r>
       <r>   40.6995    0.0000 </r>
       <r>   40.7728    0.0000 </r>
       <r>   41.0184    0.0000 </r>
       <r>   41.8032    0.0000 </r>
       <r>   42.0602    0.0000 </r>
       <r>   42.2462    0.0000 </r>
       <r>   42.4614    0.0000 </r>
       <r>   42.4614    0.0000 </r>
       <r>   42.8323    0.0000 </r>
       <r>   43.4376    0.0000 </r>
       <r>   43.4376    0.0000 </r>
       <r>   43.6689    0.0000 </r>
       <r>   44.4025    0.0000 </r>
       <r>   44.4512    0.0000 </r>
       <r>   44.6388    0.0000 </r>
       <r>   44.7363    0.0000 </r>
       <r>   44.7364    0.0000 </r>
       <r>   44.9312    0.0000 </r>
       <r>   45.0845    0.0000 </r>
       <r>   45.0845    0.0000 </r>
       <r>   45.2054    0.0000 </r>
       <r>   45.3873    0.0000 </r>
       <r>   45.7496    0.0000 </r>
       <r>   45.7496    0.0000 </r>
       <r>   46.2281    0.0000 </r>
       <r>   46.2368    0.0000 </r>
      </set>
      <set comment="kpoint 3">
       <r>   -6.3055    1.0000 </r>
       <r>   -5.5503    1.0000 </r>
       <r>   -3.1851    1.0000 </r>
       <r>   -2.8302    1.0000 </r>
       <r>   -2.8302    1.0000 </r>
       <r>   -0.4713    1.0000 </r>
       <r>    0.7206    1.0000 </r>
       <r>    0.8913    1.0000 </r>
       <r>    1.1379    1.0000 </r>
       <r>    1.1379    1.0000 </r>
       <r>    2.6310    1.0000 </r>
       <r>    2.6310    1.0000 </r>
       <r>    3.0152    1.0000 </r>
       <r>    3.7272    1.0000 </r>
       <r>    5.0403    0.0000 </r>
       <r>    5.0403    0.0000 </r>
       <r>    6.1749    0.0000 </r>
       <r>    6.5736    0.0000 </r>
       <r>    8.1432    0.0000 </r>
       <r>    9.1330    0.0000 </r>
       <r>    9.1330    0.0000 </r>
       <r>    9.2060    0.0000 </r>
       <r>    9.4024    0.0000 </r>
       <r>    9.7056    0.0000 </r>
       <r>    9.7544    0.0000 </r>
       <r>    9.7544    0.0000 </r>
       <r>   10.5202    0.0000 </r>
       <r>   10.6063    0.0000 </r>
       <r>   11.2408    0.0000 </r>
       <r>   11.2408    0.0000 </r>
       <r>   13.1954    0.0000 </r>
       <r>   13.1954    0.0000 </r>
       <r>   13.5084    0.0000 </r>
       <r>   14.2416    0.0000 </r>
       <r>   14.7744    0.0000 </r>
       <r>   14.8519    0.0000 </r>
       <r>   15.3226    0.0000 </r>
       <r>   15.8330    0.0000 </r>
       <r>   15.8330    0.0000 </r>
       <r>   16.4514    0.0000 </r>
       <r>   16.9310    0.0000 </r>
       <r>   17.5187    0.0000 </r>
       <r>   17.6463    0.0000 </r>
       <r>   17.6463    0.0000 </r>
       <r>   18.3510    0.0000 </r>
       <r>   18.3842    0.0000 </r>
       <r>   18.7636    0.0000 </r>
       <r>   18.7636    0.0000 </r>
       <r>   19.6069    0.0000 </r>
       <r>   19.7639    0.0000 </r>
       <r>   19.7639    0.0000 </r>
       <r>   20.6632    0.0000 </r>
       <r>   21.5733    0.0000 </r>
       <r>   21.5733    0.0000 </r>
       <r>   21.6015    0.0000 </r>
       <r>   21.7852    0.0000 </r>
       <r>   22.3828    0.0000 </r>
       <r>   22.3828    0.0000 </r>
       <r>   22.5677    0.0000 </r>
       <r>   22.5677    0.0000 </r>
       <r>   23.0041    0.0000 </r>
       <r>   23.0893    0.0000 </r>
       <r>   23.6263    0.0000 </r>
       <r>   23.6263    0.0000 </r>
       <r>   23.9306    0.0000 </r>
       <r>   24.0264    0.0000 </r>
       <r>   24.1877    0.0000 </r>
       <r>   24.7696    0.0000 </r>
       <r>   24.8278    0.0000 </r>
       <r>   25.6558    0.0000 </r>
       <r>   26.4160    0.0000 </r>
       <r>   26.4160    0.0000 </r>
       <r>   26.5865    0.0000 </r>
       <r>   26.7683    0.0000 </r>
       <r>   27.0988    0.0000 </r>
       <r>   27.0988    0.0000 </r>
       <r>   27.3655    0.0000 </r>
       <r>   27.3965    0.0000 </r>
       <r>   29.5643    0.0000 </r>
       <r>   29.5925    0.0000 </r>
       <r>   29.9828    0.0000 </r>
       <r>   29.9828    0.0000 </r>
       <r>   30.2501    0.0000 </r>
       <r>   31.4186    0.0000 </r>
       <r>   31.7293    0.0000 </r>
       <r>   31.7742    0.0000 </r>
       <r>   31.7742    0.0000 </r>
       <r>   32.0469    0.0000 </r>
       <r>   32.2737    0.0000 </r>
       <r>   32.5698    0.0000 </r>
       <r>   32.5698    0.0000 </r>
       <r>   32.6552    0.0000 </r>
       <r>   32.6552    0.0000 </r>
       <r>   32.6586    0.0000 </r>
       <r>   33.8754    0.0000 </r>
       <r>   34.0597    0.0000 </r>
       <r>   34.2172    0.0000 </r>
       <r>   34.2172    0.0000 </r>
       <r>   34.4189    0.0000 </r>
       <r>   34.6565    0.0000 </r>
       <r>   34.7522    0.0000 </r>
       <r>   34.7522    0.0000 </r>
       <r>   35.0051    0.0000 </r>
       <r>   35.5203    0.0000 </r>
       <r>   35.5203    0.0000 </r>
       <r>   35.8906    0.0000 </r>
       <r>   36.3481    0.0000 </r>
       <r>   36.3481    0.0000 </r>
       <r>   36.6955    0.0000 </r>
       <r>   38.0737    0.0000 </r>
       <r>   38.3460    0.0000 </r>
       <r>   38.3460    0.0000 </r>
       <r>   38.9148    0.0000 </r>
       <r>   39.8285    0.0000 </r>
       <r>   40.0098    0.0000 </r>
       <r>   40.3552    0.0000 </r>
       <r>   40.5742    0.0000 </r>
       <r>   40.5742    0.0000 </r>
       <r>   40.5849    0.0000 </r>
       <r>   41.5377    0.0000 </r>
       <r>   41.5377    0.0000 </r>
       <r>   41.5959    0.0000 </r>
       <r>   41.7570    0.0000 </r>
       <r>   42.0178    0.0000 </r>
       <r>   42.0178    0.0000 </r>
       <r>   42.2412    0.0000 </r>
       <r>   42.7280    0.0000 </r>
       <r>   42.7280    0.0000 </r>
       <r>   42.8740    0.0000 </r>
       <r>   42.8956    0.0000 </r>
       <r>   43.3945    0.0000 </r>
       <r>   43.3945    0.0000 </r>
       <r>   44.3879    0.0000 </r>
       <r>   44.7679    0.0000 </r>
       <r>   44.8706    0.0000 </r>
       <r>   44.8706    0.0000 </r>
       <r>   45.2040    0.0000 </r>
       <r>   45.2565    0.0000 </r>
       <r>   45.2566    0.0000 </r>
       <r>   45.5724    0.0000 </r>
       <r>   45.7054    0.0000 </r>
       <r>   45.8828    0.0000 </r>
       <r>   46.7126    0.0000 </r>
       <r>   46.7890    0.0000 </r>
      </set>
      <set comment="kpoint 4">
       <r>   -6.5302    1.0000 </r>
       <r>   -4.7192    1.0000 </r>
       <r>   -4.2452    1.0000 </r>
       <r>   -2.9610    1.0000 </r>
       <r>   -2.0502    1.0000 </r>
       <r>   -1.1794    1.0000 </r>
       <r>    0.4926    1.0000 </r>
       <r>    1.3115    1.0000 </r>
       <r>    1.4971    1.0000 </r>
       <r>    1.8364    1.0000 </r>
       <r>    1.8426    1.0000 </r>
       <r>    2.7802    1.0000 </r>
       <r>    2.8393    1.0000 </r>
       <r>    4.2118    0.5000 </r>
       <r>    4.9582    0.0000 </r>
       <r>    5.8444    0.0000 </r>
       <r>    6.2566    0.0000 </r>
       <r>    6.8403    0.0000 </r>
       <r>    7.2021    0.0000 </r>
       <r>    7.5354    0.0000 </r>
       <r>    7.5577    0.0000 </r>
       <r>    9.0307    0.0000 </r>
       <r>    9.5085    0.0000 </r>
       <r>    9.5643    0.0000 </r>
       <r>    9.7627    0.0000 </r>
       <r>   10.2637    0.0000 </r>
       <r>   11.6000    0.0000 </r>
       <r>   11.6160    0.0000 </r>
       <r>   12.2270    0.0000 </r>
       <r>   12.3517    0.0000 </r>
       <r>   12.6573    0.0000 </r>
       <r>   13.2355    0.0000 </r>
       <r>   13.2578    0.0000 </r>
       <r>   14.1606    0.0000 </r>
       <r>   14.4077    0.0000 </r>
       <r>   15.0036    0.0000 </r>
       <r>   15.1023    0.0000 </r>
       <r>   15.4606    0.0000 </r>
       <r>   15.9883    0.0000 </r>
       <r>   16.3621    0.0000 </r>
       <r>   16.5231    0.0000 </r>
       <r>   16.7559    0.0000 </r>
       <r>   17.7269    0.0000 </r>
       <r>   18.1845    0.0000 </r>
       <r>   18.6078    0.0000 </r>
       <r>   18.8612    0.0000 </r>
       <r>   18.8759    0.0000 </r>
       <r>   19.2814    0.0000 </r>
       <r>   19.5417    0.0000 </r>
       <r>   19.6282    0.0000 </r>
       <r>   19.9419    0.0000 </r>
       <r>   20.0737    0.0000 </r>
       <r>   20.3575    0.0000 </r>
       <r>   21.0581    0.0000 </r>
       <r>   21.3227    0.0000 </r>
       <r>   21.5455    0.0000 </r>
       <r>   21.6873    0.0000 </r>
       <r>   22.4472    0.0000 </r>
       <r>   22.5719    0.0000 </r>
       <r>   22.8298    0.0000 </r>
       <r>   22.9259    0.0000 </r>
       <r>   23.1833    0.0000 </r>
       <r>   23.4374    0.0000 </r>
       <r>   23.9379    0.0000 </r>
       <r>   24.4846    0.0000 </r>
       <r>   24.8949    0.0000 </r>
       <r>   25.1762    0.0000 </r>
       <r>   25.1862    0.0000 </r>
       <r>   25.9462    0.0000 </r>
       <r>   25.9507    0.0000 </r>
       <r>   26.4146    0.0000 </r>
       <r>   26.5084    0.0000 </r>
       <r>   26.6677    0.0000 </r>
       <r>   27.0668    0.0000 </r>
       <r>   27.2929    0.0000 </r>
       <r>   27.5635    0.0000 </r>
       <r>   27.5984    0.0000 </r>
       <r>   27.9294    0.0000 </r>
       <r>   28.4593    0.0000 </r>
       <r>   28.6766    0.0000 </r>
       <r>   28.8760    0.0000 </r>
       <r>   29.2463    0.0000 </r>
       <r>   29.4187    0.0000 </r>
       <r>   30.0409    0.0000 </r>
       <r>   30.4213    0.0000 </r>
       <r>   30.8014    0.0000 </r>
       <r>   31.0869    0.0000 </r>
       <r>   31.1901    0.0000 </r>
       <r>   32.2172    0.0000 </r>
       <r>   32.3319    0.0000 </r>
       <r>   32.6347    0.0000 </r>
       <r>   33.0106    0.0000 </r>
       <r>   33.1805    0.0000 </r>
       <r>   33.2012    0.0000 </r>
       <r>   33.5983    0.0000 </r>
       <r>   33.7333    0.0000 </r>
       <r>   34.5236    0.0000 </r>
       <r>   34.6014    0.0000 </r>
       <r>   34.7743    0.0000 </r>
       <r>   35.3489    0.0000 </r>
       <r>   35.5726    0.0000 </r>
       <r>   35.5759    0.0000 </r>
       <r>   36.1250    0.0000 </r>
       <r>   36.6729    0.0000 </r>
       <r>   36.8924    0.0000 </r>
       <r>   37.1773    0.0000 </r>
       <r>   37.4339    0.0000 </r>
       <r>   37.6052    0.0000 </r>
       <r>   37.8421    0.0000 </r>
       <r>   38.0251    0.0000 </r>
       <r>   38.2425    0.0000 </r>
       <r>   38.2637    0.0000 </r>
       <r>   38.7075    0.0000 </r>
       <r>   38.7537    0.0000 </r>
       <r>   39.2207    0.0000 </r>
       <r>   39.3139    0.0000 </r>
       <r>   39.6410    0.0000 </r>
       <r>   39.6814    0.0000 </r>
       <r>   40.1395    0.0000 </r>
       <r>   40.1872    0.0000 </r>
       <r>   40.7555    0.0000 </r>
       <r>   41.1092    0.0000 </r>
       <r>   41.3586    0.0000 </r>
       <r>   42.2494    0.0000 </r>
       <r>   42.3944    0.0000 </r>
       <r>   42.4179    0.0000 </r>
       <r>   42.6494    0.0000 </r>
       <r>   43.0887    0.0000 </r>
       <r>   43.2081    0.0000 </r>
       <r>   43.4194    0.0000 </r>
       <r>   43.5150    0.0000 </r>
       <r>   43.6028    0.0000 </r>
       <r>   44.2503    0.0000 </r>
       <r>   44.2822    0.0000 </r>
       <r>   44.6540    0.0000 </r>
       <r>   44.9718    0.0000 </r>
       <r>   44.9842    0.0000 </r>
       <r>   45.1702    0.0000 </r>
       <r>   45.1713    0.0000 </r>
       <r>   46.0695    0.0000 </r>
       <r>   46.0881    0.0000 </r>
       <r>   46.2375    0.0000 </r>
       <r>   46.4941    0.0000 </r>
       <r>   46.8120    0.0000 </r>
      </set>
      <set comment="kpoint 5">
       <r>   -6.0626    1.0000 </r>
       <r>   -5.4244    1.0000 </r>
       <r>   -4.2739    1.0000 </r>
       <r>   -3.0672    1.0000 </r>
       <r>   -1.7923    1.0000 </r>
       <r>   -0.6354    1.0000 </r>
       <r>    0.2217    1.0000 </r>
       <r>    0.6045    1.0000 </r>
       <r>    1.4910    1.0000 </r>
       <r>    1.7157    1.0000 </r>
       <r>    2.4112    1.0000 </r>
       <r>    2.4808    1.0000 </r>
       <r>    3.0141    1.0000 </r>
       <r>    3.7727    1.0000 </r>
       <r>    5.0369    0.0000 </r>
       <r>    5.1223    0.0000 </r>
       <r>    7.3235    0.0000 </r>
       <r>    7.7450    0.0000 </r>
       <r>    7.7541    0.0000 </r>
       <r>    7.8187    0.0000 </r>
       <r>    9.0426    0.0000 </r>
       <r>    9.3699    0.0000 </r>
       <r>    9.4456    0.0000 </r>
       <r>    9.8914    0.0000 </r>
       <r>    9.9704    0.0000 </r>
       <r>   10.1565    0.0000 </r>
       <r>   10.3907    0.0000 </r>
       <r>   10.7990    0.0000 </r>
       <r>   11.7037    0.0000 </r>
       <r>   11.9231    0.0000 </r>
       <r>   12.4637    0.0000 </r>
       <r>   12.5146    0.0000 </r>
       <r>   13.1322    0.0000 </r>
       <r>   13.1810    0.0000 </r>
       <r>   13.5148    0.0000 </r>
       <r>   14.2623    0.0000 </r>
       <r>   15.4897    0.0000 </r>
       <r>   15.6078    0.0000 </r>
       <r>   15.8588    0.0000 </r>
       <r>   16.4158    0.0000 </r>
       <r>   16.7912    0.0000 </r>
       <r>   17.0164    0.0000 </r>
       <r>   17.4021    0.0000 </r>
       <r>   17.8707    0.0000 </r>
       <r>   18.8115    0.0000 </r>
       <r>   18.9147    0.0000 </r>
       <r>   19.0799    0.0000 </r>
       <r>   19.3659    0.0000 </r>
       <r>   19.5983    0.0000 </r>
       <r>   19.8644    0.0000 </r>
       <r>   20.0749    0.0000 </r>
       <r>   20.3578    0.0000 </r>
       <r>   20.4068    0.0000 </r>
       <r>   20.6019    0.0000 </r>
       <r>   21.0862    0.0000 </r>
       <r>   21.4380    0.0000 </r>
       <r>   22.1712    0.0000 </r>
       <r>   22.3506    0.0000 </r>
       <r>   22.5215    0.0000 </r>
       <r>   22.9829    0.0000 </r>
       <r>   22.9847    0.0000 </r>
       <r>   23.7201    0.0000 </r>
       <r>   23.8599    0.0000 </r>
       <r>   23.8880    0.0000 </r>
       <r>   24.7975    0.0000 </r>
       <r>   24.9465    0.0000 </r>
       <r>   25.1436    0.0000 </r>
       <r>   25.6728    0.0000 </r>
       <r>   25.7273    0.0000 </r>
       <r>   26.0344    0.0000 </r>
       <r>   26.1617    0.0000 </r>
       <r>   26.7340    0.0000 </r>
       <r>   27.2875    0.0000 </r>
       <r>   27.2903    0.0000 </r>
       <r>   27.3798    0.0000 </r>
       <r>   27.6064    0.0000 </r>
       <r>   27.9769    0.0000 </r>
       <r>   28.3892    0.0000 </r>
       <r>   28.8322    0.0000 </r>
       <r>   29.1515    0.0000 </r>
       <r>   29.1722    0.0000 </r>
       <r>   29.7209    0.0000 </r>
       <r>   29.7556    0.0000 </r>
       <r>   30.4306    0.0000 </r>
       <r>   30.8807    0.0000 </r>
       <r>   31.2664    0.0000 </r>
       <r>   31.6798    0.0000 </r>
       <r>   31.6958    0.0000 </r>
       <r>   32.3222    0.0000 </r>
       <r>   32.3988    0.0000 </r>
       <r>   32.4857    0.0000 </r>
       <r>   32.9896    0.0000 </r>
       <r>   32.9945    0.0000 </r>
       <r>   33.1592    0.0000 </r>
       <r>   33.5606    0.0000 </r>
       <r>   33.9475    0.0000 </r>
       <r>   34.0099    0.0000 </r>
       <r>   34.3972    0.0000 </r>
       <r>   34.7008    0.0000 </r>
       <r>   34.9090    0.0000 </r>
       <r>   35.0699    0.0000 </r>
       <r>   35.1442    0.0000 </r>
       <r>   35.6865    0.0000 </r>
       <r>   36.1966    0.0000 </r>
       <r>   36.2927    0.0000 </r>
       <r>   36.3938    0.0000 </r>
       <r>   36.5125    0.0000 </r>
       <r>   36.9278    0.0000 </r>
       <r>   37.3097    0.0000 </r>
       <r>   37.4605    0.0000 </r>
       <r>   37.7443    0.0000 </r>
       <r>   38.2596    0.0000 </r>
       <r>   38.3892    0.0000 </r>
       <r>   38.6315    0.0000 </r>
       <r>   39.0052    0.0000 </r>
       <r>   39.2350    0.0000 </r>
       <r>   39.3736    0.0000 </r>
       <r>   39.5353    0.0000 </r>
       <r>   40.3617    0.0000 </r>
       <r>   40.3960    0.0000 </r>
       <r>   40.5030    0.0000 </r>
       <r>   40.8299    0.0000 </r>
       <r>   41.0309    0.0000 </r>
       <r>   41.7297    0.0000 </r>
       <r>   41.8047    0.0000 </r>
       <r>   42.0624    0.0000 </r>
       <r>   42.1270    0.0000 </r>
       <r>   42.8402    0.0000 </r>
       <r>   42.9060    0.0000 </r>
       <r>   43.2251    0.0000 </r>
       <r>   43.3372    0.0000 </r>
       <r>   43.5678    0.0000 </r>
       <r>   44.0090    0.0000 </r>
       <r>   44.0585    0.0000 </r>
       <r>   44.3636    0.0000 </r>
       <r>   44.8906    0.0000 </r>
       <r>   45.1475    0.0000 </r>
       <r>   45.2474    0.0000 </r>
       <r>   45.5400    0.0000 </r>
       <r>   45.7400    0.0000 </r>
       <r>   45.7449    0.0000 </r>
       <r>   46.1549    0.0000 </r>
       <r>   46.3679    0.0000 </r>
       <r>   46.5431    0.0000 </r>
      </set>
      <set comment="kpoint 6">
       <r>   -5.4349    1.0000 </r>
       <r>   -5.2689    1.0000 </r>
       <r>   -5.2689    1.0000 </r>
       <r>   -3.3532    1.0000 </r>
       <r>   -0.7325    1.0000 </r>
       <r>   -0.6311    1.0000 </r>
       <r>   -0.6311    1.0000 </r>
       <r>    0.5531    1.0000 </r>
       <r>    1.3240    1.0000 </r>
       <r>    1.3240    1.0000 </r>
       <r>    2.6979    1.0000 </r>
       <r>    3.0039    1.0000 </r>
       <r>    3.3144    1.0000 </r>
       <r>    3.4237    1.0000 </r>
       <r>    5.4860    0.0000 </r>
       <r>    5.4860    0.0000 </r>
       <r>    7.0006    0.0000 </r>
       <r>    7.0006    0.0000 </r>
       <r>    8.6213    0.0000 </r>
       <r>    8.7668    0.0000 </r>
       <r>    9.4034    0.0000 </r>
       <r>    9.5344    0.0000 </r>
       <r>    9.7291    0.0000 </r>
       <r>    9.7291    0.0000 </r>
       <r>   10.0065    0.0000 </r>
       <r>   10.3029    0.0000 </r>
       <r>   10.3029    0.0000 </r>
       <r>   10.3625    0.0000 </r>
       <r>   11.1964    0.0000 </r>
       <r>   11.9156    0.0000 </r>
       <r>   11.9156    0.0000 </r>
       <r>   12.9423    0.0000 </r>
       <r>   12.9423    0.0000 </r>
       <r>   13.1162    0.0000 </r>
       <r>   13.1365    0.0000 </r>
       <r>   13.2052    0.0000 </r>
       <r>   14.4889    0.0000 </r>
       <r>   15.5997    0.0000 </r>
       <r>   15.5997    0.0000 </r>
       <r>   15.7071    0.0000 </r>
       <r>   17.1121    0.0000 </r>
       <r>   17.7416    0.0000 </r>
       <r>   17.7416    0.0000 </r>
       <r>   17.8803    0.0000 </r>
       <r>   18.3942    0.0000 </r>
       <r>   18.3942    0.0000 </r>
       <r>   18.5803    0.0000 </r>
       <r>   19.1741    0.0000 </r>
       <r>   19.3061    0.0000 </r>
       <r>   19.3061    0.0000 </r>
       <r>   19.6036    0.0000 </r>
       <r>   20.8841    0.0000 </r>
       <r>   21.6441    0.0000 </r>
       <r>   21.6744    0.0000 </r>
       <r>   21.6744    0.0000 </r>
       <r>   21.8924    0.0000 </r>
       <r>   22.1464    0.0000 </r>
       <r>   22.1480    0.0000 </r>
       <r>   22.1480    0.0000 </r>
       <r>   22.2246    0.0000 </r>
       <r>   23.2489    0.0000 </r>
       <r>   23.5087    0.0000 </r>
       <r>   23.5670    0.0000 </r>
       <r>   23.5670    0.0000 </r>
       <r>   24.7596    0.0000 </r>
       <r>   25.4174    0.0000 </r>
       <r>   26.1111    0.0000 </r>
       <r>   26.1111    0.0000 </r>
       <r>   26.4320    0.0000 </r>
       <r>   26.4320    0.0000 </r>
       <r>   26.6459    0.0000 </r>
       <r>   27.2088    0.0000 </r>
       <r>   27.2800    0.0000 </r>
       <r>   27.2800    0.0000 </r>
       <r>   27.7472    0.0000 </r>
       <r>   28.0158    0.0000 </r>
       <r>   29.0639    0.0000 </r>
       <r>   29.4221    0.0000 </r>
       <r>   29.4221    0.0000 </r>
       <r>   29.7671    0.0000 </r>
       <r>   29.9042    0.0000 </r>
       <r>   29.9042    0.0000 </r>
       <r>   30.1703    0.0000 </r>
       <r>   30.7566    0.0000 </r>
       <r>   31.2048    0.0000 </r>
       <r>   31.2262    0.0000 </r>
       <r>   31.5764    0.0000 </r>
       <r>   31.5764    0.0000 </r>
       <r>   31.9188    0.0000 </r>
       <r>   32.0236    0.0000 </r>
       <r>   32.1096    0.0000 </r>
       <r>   32.1096    0.0000 </r>
       <r>   32.7458    0.0000 </r>
       <r>   32.7458    0.0000 </r>
       <r>   32.7468    0.0000 </r>
       <r>   32.9467    0.0000 </r>
       <r>   32.9467    0.0000 </r>
       <r>   33.6464    0.0000 </r>
       <r>   33.8180    0.0000 </r>
       <r>   33.8235    0.0000 </r>
       <r>   34.5503    0.0000 </r>
       <r>   34.7171    0.0000 </r>
       <r>   35.6859    0.0000 </r>
       <r>   35.9123    0.0000 </r>
       <r>   35.9123    0.0000 </r>
       <r>   36.0757    0.0000 </r>
       <r>   36.5898    0.0000 </r>
       <r>   36.5898    0.0000 </r>
       <r>   37.6162    0.0000 </r>
       <r>   37.6162    0.0000 </r>
       <r>   37.7387    0.0000 </r>
       <r>   38.9680    0.0000 </r>
       <r>   38.9680    0.0000 </r>
       <r>   38.9874    0.0000 </r>
       <r>   39.4067    0.0000 </r>
       <r>   40.3638    0.0000 </r>
       <r>   40.4141    0.0000 </r>
       <r>   40.8090    0.0000 </r>
       <r>   40.8090    0.0000 </r>
       <r>   40.9304    0.0000 </r>
       <r>   40.9983    0.0000 </r>
       <r>   41.2571    0.0000 </r>
       <r>   41.4466    0.0000 </r>
       <r>   41.9013    0.0000 </r>
       <r>   41.9013    0.0000 </r>
       <r>   42.0825    0.0000 </r>
       <r>   42.2363    0.0000 </r>
       <r>   42.5838    0.0000 </r>
       <r>   42.8174    0.0000 </r>
       <r>   42.8174    0.0000 </r>
       <r>   43.0398    0.0000 </r>
       <r>   43.0398    0.0000 </r>
       <r>   43.0865    0.0000 </r>
       <r>   43.2941    0.0000 </r>
       <r>   43.2941    0.0000 </r>
       <r>   43.5361    0.0000 </r>
       <r>   43.7905    0.0000 </r>
       <r>   44.1041    0.0000 </r>
       <r>   44.1041    0.0000 </r>
       <r>   44.3649    0.0000 </r>
       <r>   44.5560    0.0000 </r>
       <r>   44.5560    0.0000 </r>
       <r>   44.9501    0.0000 </r>
       <r>   45.5250    0.0000 </r>
      </set>
      <set comment="kpoint 7">
       <r>   -6.3016    1.0000 </r>
       <r>   -4.6260    1.0000 </r>
       <r>   -4.6260    1.0000 </r>
       <r>   -3.2974    1.0000 </r>
       <r>   -1.4788    1.0000 </r>
       <r>   -1.4788    1.0000 </r>
       <r>    0.0633    1.0000 </r>
       <r>    1.1644    1.0000 </r>
       <r>    1.1644    1.0000 </r>
       <r>    2.3397    1.0000 </r>
       <r>    2.3755    1.0000 </r>
       <r>    2.9605    1.0000 </r>
       <r>    2.9605    1.0000 </r>
       <r>    3.8234    1.0000 </r>
       <r>    5.6381    0.0000 </r>
       <r>    5.6381    0.0000 </r>
       <r>    6.2929    0.0000 </r>
       <r>    6.5923    0.0000 </r>
       <r>    6.5923    0.0000 </r>
       <r>    8.8068    0.0000 </r>
       <r>    8.8068    0.0000 </r>
       <r>    8.8762    0.0000 </r>
       <r>    9.8591    0.0000 </r>
       <r>    9.9361    0.0000 </r>
       <r>    9.9361    0.0000 </r>
       <r>   10.3383    0.0000 </r>
       <r>   10.3383    0.0000 </r>
       <r>   10.4063    0.0000 </r>
       <r>   11.8533    0.0000 </r>
       <r>   11.8533    0.0000 </r>
       <r>   12.7481    0.0000 </r>
       <r>   13.2522    0.0000 </r>
       <r>   13.2522    0.0000 </r>
       <r>   14.0367    0.0000 </r>
       <r>   14.2241    0.0000 </r>
       <r>   15.2521    0.0000 </r>
       <r>   15.4701    0.0000 </r>
       <r>   15.4701    0.0000 </r>
       <r>   15.8644    0.0000 </r>
       <r>   15.8644    0.0000 </r>
       <r>   15.9881    0.0000 </r>
       <r>   17.2269    0.0000 </r>
       <r>   17.3802    0.0000 </r>
       <r>   17.5578    0.0000 </r>
       <r>   17.5578    0.0000 </r>
       <r>   17.9239    0.0000 </r>
       <r>   18.9609    0.0000 </r>
       <r>   18.9609    0.0000 </r>
       <r>   19.4918    0.0000 </r>
       <r>   19.4918    0.0000 </r>
       <r>   19.6367    0.0000 </r>
       <r>   20.3772    0.0000 </r>
       <r>   20.3772    0.0000 </r>
       <r>   22.1759    0.0000 </r>
       <r>   22.1759    0.0000 </r>
       <r>   22.4604    0.0000 </r>
       <r>   22.5109    0.0000 </r>
       <r>   22.7374    0.0000 </r>
       <r>   22.7374    0.0000 </r>
       <r>   23.2128    0.0000 </r>
       <r>   23.4553    0.0000 </r>
       <r>   23.4553    0.0000 </r>
       <r>   23.9288    0.0000 </r>
       <r>   24.0317    0.0000 </r>
       <r>   24.0317    0.0000 </r>
       <r>   24.4907    0.0000 </r>
       <r>   24.7691    0.0000 </r>
       <r>   24.9925    0.0000 </r>
       <r>   24.9925    0.0000 </r>
       <r>   26.2724    0.0000 </r>
       <r>   26.2724    0.0000 </r>
       <r>   26.3595    0.0000 </r>
       <r>   26.7274    0.0000 </r>
       <r>   26.9528    0.0000 </r>
       <r>   26.9528    0.0000 </r>
       <r>   27.7062    0.0000 </r>
       <r>   27.7062    0.0000 </r>
       <r>   29.1844    0.0000 </r>
       <r>   29.2072    0.0000 </r>
       <r>   29.2072    0.0000 </r>
       <r>   29.9501    0.0000 </r>
       <r>   29.9501    0.0000 </r>
       <r>   30.0019    0.0000 </r>
       <r>   30.0698    0.0000 </r>
       <r>   30.5537    0.0000 </r>
       <r>   30.5537    0.0000 </r>
       <r>   31.6158    0.0000 </r>
       <r>   32.3094    0.0000 </r>
       <r>   32.3094    0.0000 </r>
       <r>   32.6189    0.0000 </r>
       <r>   32.8730    0.0000 </r>
       <r>   32.8730    0.0000 </r>
       <r>   33.6178    0.0000 </r>
       <r>   33.6178    0.0000 </r>
       <r>   33.7544    0.0000 </r>
       <r>   33.7788    0.0000 </r>
       <r>   34.1995    0.0000 </r>
       <r>   34.5521    0.0000 </r>
       <r>   34.5646    0.0000 </r>
       <r>   34.5646    0.0000 </r>
       <r>   34.9468    0.0000 </r>
       <r>   34.9468    0.0000 </r>
       <r>   36.0544    0.0000 </r>
       <r>   36.0544    0.0000 </r>
       <r>   36.2517    0.0000 </r>
       <r>   36.3876    0.0000 </r>
       <r>   36.4264    0.0000 </r>
       <r>   36.4264    0.0000 </r>
       <r>   37.2924    0.0000 </r>
       <r>   37.4044    0.0000 </r>
       <r>   37.4044    0.0000 </r>
       <r>   38.1159    0.0000 </r>
       <r>   38.1159    0.0000 </r>
       <r>   38.9486    0.0000 </r>
       <r>   39.2528    0.0000 </r>
       <r>   39.2528    0.0000 </r>
       <r>   39.3735    0.0000 </r>
       <r>   40.1818    0.0000 </r>
       <r>   40.1818    0.0000 </r>
       <r>   40.7864    0.0000 </r>
       <r>   40.7864    0.0000 </r>
       <r>   41.2320    0.0000 </r>
       <r>   41.4040    0.0000 </r>
       <r>   41.4040    0.0000 </r>
       <r>   41.5933    0.0000 </r>
       <r>   41.7750    0.0000 </r>
       <r>   41.8492    0.0000 </r>
       <r>   41.8492    0.0000 </r>
       <r>   42.9535    0.0000 </r>
       <r>   42.9535    0.0000 </r>
       <r>   42.9763    0.0000 </r>
       <r>   43.4506    0.0000 </r>
       <r>   43.5944    0.0000 </r>
       <r>   43.5944    0.0000 </r>
       <r>   44.0967    0.0000 </r>
       <r>   44.7575    0.0000 </r>
       <r>   44.7575    0.0000 </r>
       <r>   44.9303    0.0000 </r>
       <r>   45.3169    0.0000 </r>
       <r>   45.7583    0.0000 </r>
       <r>   45.7583    0.0000 </r>
       <r>   46.9021    0.0000 </r>
       <r>   46.9034    0.0000 </r>
       <r>   47.0016    0.0000 </r>
      </set>
      <set comment="kpoint 8">
       <r>   -5.8390    1.0000 </r>
       <r>   -5.3099    1.0000 </r>
       <r>   -4.5196    1.0000 </r>
       <r>   -3.2961    1.0000 </r>
       <r>   -1.7791    1.0000 </r>
       <r>   -1.1460    1.0000 </r>
       <r>   -0.4994    1.0000 </r>
       <r>    1.1439    1.0000 </r>
       <r>    2.0075    1.0000 </r>
       <r>    2.1875    1.0000 </r>
       <r>    2.4264    1.0000 </r>
       <r>    2.5251    1.0000 </r>
       <r>    2.9129    1.0000 </r>
       <r>    4.5409    0.0000 </r>
       <r>    5.0744    0.0000 </r>
       <r>    5.4807    0.0000 </r>
       <r>    6.9228    0.0000 </r>
       <r>    7.6574    0.0000 </r>
       <r>    7.8636    0.0000 </r>
       <r>    7.9650    0.0000 </r>
       <r>    8.0298    0.0000 </r>
       <r>    8.7037    0.0000 </r>
       <r>    9.7122    0.0000 </r>
       <r>    9.8024    0.0000 </r>
       <r>   10.1008    0.0000 </r>
       <r>   10.2460    0.0000 </r>
       <r>   10.4594    0.0000 </r>
       <r>   10.8668    0.0000 </r>
       <r>   11.9882    0.0000 </r>
       <r>   12.0272    0.0000 </r>
       <r>   12.4445    0.0000 </r>
       <r>   12.7654    0.0000 </r>
       <r>   12.8265    0.0000 </r>
       <r>   13.3922    0.0000 </r>
       <r>   14.2182    0.0000 </r>
       <r>   14.8881    0.0000 </r>
       <r>   15.1901    0.0000 </r>
       <r>   15.2539    0.0000 </r>
       <r>   15.4546    0.0000 </r>
       <r>   15.8827    0.0000 </r>
       <r>   16.0239    0.0000 </r>
       <r>   16.6988    0.0000 </r>
       <r>   16.9516    0.0000 </r>
       <r>   17.1681    0.0000 </r>
       <r>   18.3688    0.0000 </r>
       <r>   18.7040    0.0000 </r>
       <r>   18.7837    0.0000 </r>
       <r>   18.9617    0.0000 </r>
       <r>   19.0251    0.0000 </r>
       <r>   19.0530    0.0000 </r>
       <r>   20.4209    0.0000 </r>
       <r>   20.6453    0.0000 </r>
       <r>   20.8612    0.0000 </r>
       <r>   20.9349    0.0000 </r>
       <r>   21.4443    0.0000 </r>
       <r>   22.2465    0.0000 </r>
       <r>   22.3326    0.0000 </r>
       <r>   22.6785    0.0000 </r>
       <r>   22.9489    0.0000 </r>
       <r>   23.2026    0.0000 </r>
       <r>   23.4401    0.0000 </r>
       <r>   23.6248    0.0000 </r>
       <r>   23.9941    0.0000 </r>
       <r>   24.2841    0.0000 </r>
       <r>   24.3677    0.0000 </r>
       <r>   24.8980    0.0000 </r>
       <r>   25.1423    0.0000 </r>
       <r>   25.9439    0.0000 </r>
       <r>   26.0957    0.0000 </r>
       <r>   26.3301    0.0000 </r>
       <r>   26.6310    0.0000 </r>
       <r>   26.7205    0.0000 </r>
       <r>   27.0369    0.0000 </r>
       <r>   27.5653    0.0000 </r>
       <r>   28.0686    0.0000 </r>
       <r>   28.1554    0.0000 </r>
       <r>   28.3840    0.0000 </r>
       <r>   28.8159    0.0000 </r>
       <r>   29.5582    0.0000 </r>
       <r>   29.6033    0.0000 </r>
       <r>   29.7218    0.0000 </r>
       <r>   30.0779    0.0000 </r>
       <r>   30.3946    0.0000 </r>
       <r>   30.4378    0.0000 </r>
       <r>   30.6195    0.0000 </r>
       <r>   31.0921    0.0000 </r>
       <r>   31.1804    0.0000 </r>
       <r>   31.2861    0.0000 </r>
       <r>   31.9321    0.0000 </r>
       <r>   32.0210    0.0000 </r>
       <r>   32.3222    0.0000 </r>
       <r>   32.5033    0.0000 </r>
       <r>   32.8848    0.0000 </r>
       <r>   33.4169    0.0000 </r>
       <r>   34.0979    0.0000 </r>
       <r>   34.3570    0.0000 </r>
       <r>   34.4772    0.0000 </r>
       <r>   34.7478    0.0000 </r>
       <r>   34.8672    0.0000 </r>
       <r>   35.0950    0.0000 </r>
       <r>   35.1623    0.0000 </r>
       <r>   35.3460    0.0000 </r>
       <r>   35.6150    0.0000 </r>
       <r>   35.8272    0.0000 </r>
       <r>   36.1125    0.0000 </r>
       <r>   36.2649    0.0000 </r>
       <r>   36.4560    0.0000 </r>
       <r>   36.8588    0.0000 </r>
       <r>   36.9334    0.0000 </r>
       <r>   37.0405    0.0000 </r>
       <r>   37.2676    0.0000 </r>
       <r>   37.4710    0.0000 </r>
       <r>   37.5546    0.0000 </r>
       <r>   37.5962    0.0000 </r>
       <r>   38.0515    0.0000 </r>
       <r>   38.4845    0.0000 </r>
       <r>   39.0987    0.0000 </r>
       <r>   39.6518    0.0000 </r>
       <r>   39.7468    0.0000 </r>
       <r>   40.0202    0.0000 </r>
       <r>   40.1034    0.0000 </r>
       <r>   40.5883    0.0000 </r>
       <r>   41.1034    0.0000 </r>
       <r>   41.4540    0.0000 </r>
       <r>   41.4588    0.0000 </r>
       <r>   41.6076    0.0000 </r>
       <r>   41.7137    0.0000 </r>
       <r>   42.3005    0.0000 </r>
       <r>   42.3249    0.0000 </r>
       <r>   42.7655    0.0000 </r>
       <r>   43.2821    0.0000 </r>
       <r>   43.3222    0.0000 </r>
       <r>   43.6591    0.0000 </r>
       <r>   43.7361    0.0000 </r>
       <r>   44.1064    0.0000 </r>
       <r>   44.3655    0.0000 </r>
       <r>   44.8983    0.0000 </r>
       <r>   45.0751    0.0000 </r>
       <r>   45.4864    0.0000 </r>
       <r>   45.6935    0.0000 </r>
       <r>   45.9797    0.0000 </r>
       <r>   46.3620    0.0000 </r>
       <r>   47.0951    0.0000 </r>
       <r>   47.1123    0.0000 </r>
      </set>
      <set comment="kpoint 9">
       <r>   -5.2765    1.0000 </r>
       <r>   -5.1727    1.0000 </r>
       <r>   -5.1727    1.0000 </r>
       <r>   -3.4558    1.0000 </r>
       <r>   -1.5217    1.0000 </r>
       <r>   -1.3568    1.0000 </r>
       <r>   -1.3568    1.0000 </r>
       <r>    1.5004    1.0000 </r>
       <r>    1.9716    1.0000 </r>
       <r>    2.3689    1.0000 </r>
       <r>    2.3689    1.0000 </r>
       <r>    3.0765    1.0000 </r>
       <r>    3.3270    1.0000 </r>
       <r>    4.8976    0.0000 </r>
       <r>    5.6366    0.0000 </r>
       <r>    5.6366    0.0000 </r>
       <r>    6.9229    0.0000 </r>
       <r>    6.9229    0.0000 </r>
       <r>    7.6048    0.0000 </r>
       <r>    8.2687    0.0000 </r>
       <r>    8.2687    0.0000 </r>
       <r>    8.3679    0.0000 </r>
       <r>    8.8523    0.0000 </r>
       <r>    9.3750    0.0000 </r>
       <r>    9.4406    0.0000 </r>
       <r>   10.5142    0.0000 </r>
       <r>   10.5142    0.0000 </r>
       <r>   11.0383    0.0000 </r>
       <r>   12.5082    0.0000 </r>
       <r>   12.6264    0.0000 </r>
       <r>   12.6404    0.0000 </r>
       <r>   12.6404    0.0000 </r>
       <r>   13.7547    0.0000 </r>
       <r>   14.0421    0.0000 </r>
       <r>   14.0421    0.0000 </r>
       <r>   14.3648    0.0000 </r>
       <r>   14.6401    0.0000 </r>
       <r>   15.1528    0.0000 </r>
       <r>   15.1528    0.0000 </r>
       <r>   15.3499    0.0000 </r>
       <r>   16.0717    0.0000 </r>
       <r>   16.2836    0.0000 </r>
       <r>   16.2836    0.0000 </r>
       <r>   17.1231    0.0000 </r>
       <r>   18.3396    0.0000 </r>
       <r>   18.3396    0.0000 </r>
       <r>   18.6108    0.0000 </r>
       <r>   18.7995    0.0000 </r>
       <r>   19.0258    0.0000 </r>
       <r>   19.2307    0.0000 </r>
       <r>   19.2307    0.0000 </r>
       <r>   19.5847    0.0000 </r>
       <r>   20.4977    0.0000 </r>
       <r>   21.7392    0.0000 </r>
       <r>   21.7392    0.0000 </r>
       <r>   22.1266    0.0000 </r>
       <r>   22.4072    0.0000 </r>
       <r>   22.7121    0.0000 </r>
       <r>   22.7180    0.0000 </r>
       <r>   22.7180    0.0000 </r>
       <r>   23.9498    0.0000 </r>
       <r>   23.9807    0.0000 </r>
       <r>   23.9807    0.0000 </r>
       <r>   25.2889    0.0000 </r>
       <r>   25.6712    0.0000 </r>
       <r>   25.8277    0.0000 </r>
       <r>   26.0029    0.0000 </r>
       <r>   26.0029    0.0000 </r>
       <r>   26.9639    0.0000 </r>
       <r>   26.9639    0.0000 </r>
       <r>   27.2104    0.0000 </r>
       <r>   27.2349    0.0000 </r>
       <r>   27.5743    0.0000 </r>
       <r>   27.7226    0.0000 </r>
       <r>   27.7226    0.0000 </r>
       <r>   28.6513    0.0000 </r>
       <r>   28.9307    0.0000 </r>
       <r>   28.9307    0.0000 </r>
       <r>   29.2392    0.0000 </r>
       <r>   29.2736    0.0000 </r>
       <r>   29.8024    0.0000 </r>
       <r>   30.4235    0.0000 </r>
       <r>   30.4235    0.0000 </r>
       <r>   30.5643    0.0000 </r>
       <r>   30.8177    0.0000 </r>
       <r>   30.8177    0.0000 </r>
       <r>   30.8758    0.0000 </r>
       <r>   31.3736    0.0000 </r>
       <r>   32.2482    0.0000 </r>
       <r>   32.2482    0.0000 </r>
       <r>   32.3569    0.0000 </r>
       <r>   32.3853    0.0000 </r>
       <r>   33.1030    0.0000 </r>
       <r>   33.3436    0.0000 </r>
       <r>   33.3436    0.0000 </r>
       <r>   33.5114    0.0000 </r>
       <r>   33.8337    0.0000 </r>
       <r>   33.8337    0.0000 </r>
       <r>   33.8605    0.0000 </r>
       <r>   34.3050    0.0000 </r>
       <r>   34.8835    0.0000 </r>
       <r>   35.4006    0.0000 </r>
       <r>   35.4006    0.0000 </r>
       <r>   35.4825    0.0000 </r>
       <r>   36.1224    0.0000 </r>
       <r>   36.3086    0.0000 </r>
       <r>   36.3086    0.0000 </r>
       <r>   36.4516    0.0000 </r>
       <r>   37.0618    0.0000 </r>
       <r>   37.5392    0.0000 </r>
       <r>   37.5392    0.0000 </r>
       <r>   37.6603    0.0000 </r>
       <r>   37.7142    0.0000 </r>
       <r>   38.5542    0.0000 </r>
       <r>   38.5542    0.0000 </r>
       <r>   38.6518    0.0000 </r>
       <r>   39.3264    0.0000 </r>
       <r>   39.3901    0.0000 </r>
       <r>   39.3901    0.0000 </r>
       <r>   39.4009    0.0000 </r>
       <r>   39.8526    0.0000 </r>
       <r>   39.8526    0.0000 </r>
       <r>   40.1073    0.0000 </r>
       <r>   40.8926    0.0000 </r>
       <r>   41.0616    0.0000 </r>
       <r>   41.6297    0.0000 </r>
       <r>   41.6297    0.0000 </r>
       <r>   41.8139    0.0000 </r>
       <r>   42.2249    0.0000 </r>
       <r>   42.9118    0.0000 </r>
       <r>   43.2710    0.0000 </r>
       <r>   43.3419    0.0000 </r>
       <r>   43.3419    0.0000 </r>
       <r>   43.6237    0.0000 </r>
       <r>   44.3041    0.0000 </r>
       <r>   44.3041    0.0000 </r>
       <r>   44.5516    0.0000 </r>
       <r>   45.3315    0.0000 </r>
       <r>   45.3315    0.0000 </r>
       <r>   45.5920    0.0000 </r>
       <r>   45.7543    0.0000 </r>
       <r>   45.7671    0.0000 </r>
       <r>   45.7672    0.0000 </r>
       <r>   46.2927    0.0000 </r>
      </set>
      <set comment="kpoint 10">
       <r>   -5.0628    1.0000 </r>
       <r>   -5.0628    1.0000 </r>
       <r>   -5.0628    1.0000 </r>
       <r>   -3.6714    1.0000 </r>
       <r>   -1.8547    1.0000 </r>
       <r>   -1.8547    1.0000 </r>
       <r>   -1.8547    1.0000 </r>
       <r>    0.9818    1.0000 </r>
       <r>    3.1663    1.0000 </r>
       <r>    3.1663    1.0000 </r>
       <r>    3.3265    1.0000 </r>
       <r>    3.3265    1.0000 </r>
       <r>    3.3265    1.0000 </r>
       <r>    5.9650    0.0000 </r>
       <r>    5.9650    0.0000 </r>
       <r>    5.9650    0.0000 </r>
       <r>    6.2902    0.0000 </r>
       <r>    6.2902    0.0000 </r>
       <r>    6.2902    0.0000 </r>
       <r>    7.8622    0.0000 </r>
       <r>    7.8622    0.0000 </r>
       <r>    7.8622    0.0000 </r>
       <r>    9.0441    0.0000 </r>
       <r>    9.0441    0.0000 </r>
       <r>    9.9477    0.0000 </r>
       <r>    9.9477    0.0000 </r>
       <r>    9.9477    0.0000 </r>
       <r>   10.0591    0.0000 </r>
       <r>   12.4261    0.0000 </r>
       <r>   13.1283    0.0000 </r>
       <r>   13.1283    0.0000 </r>
       <r>   13.1283    0.0000 </r>
       <r>   15.1283    0.0000 </r>
       <r>   15.1283    0.0000 </r>
       <r>   15.1283    0.0000 </r>
       <r>   15.2936    0.0000 </r>
       <r>   15.2936    0.0000 </r>
       <r>   15.6664    0.0000 </r>
       <r>   15.6664    0.0000 </r>
       <r>   15.6664    0.0000 </r>
       <r>   16.4508    0.0000 </r>
       <r>   16.5971    0.0000 </r>
       <r>   16.5971    0.0000 </r>
       <r>   16.5971    0.0000 </r>
       <r>   16.6886    0.0000 </r>
       <r>   16.6886    0.0000 </r>
       <r>   16.6886    0.0000 </r>
       <r>   17.7409    0.0000 </r>
       <r>   17.7409    0.0000 </r>
       <r>   17.7409    0.0000 </r>
       <r>   18.2306    0.0000 </r>
       <r>   18.2306    0.0000 </r>
       <r>   19.4798    0.0000 </r>
       <r>   21.1580    0.0000 </r>
       <r>   21.1580    0.0000 </r>
       <r>   21.1580    0.0000 </r>
       <r>   24.5867    0.0000 </r>
       <r>   25.0575    0.0000 </r>
       <r>   25.0575    0.0000 </r>
       <r>   25.0575    0.0000 </r>
       <r>   25.3857    0.0000 </r>
       <r>   25.3857    0.0000 </r>
       <r>   25.3857    0.0000 </r>
       <r>   25.8665    0.0000 </r>
       <r>   26.1638    0.0000 </r>
       <r>   26.1638    0.0000 </r>
       <r>   26.3047    0.0000 </r>
       <r>   26.3047    0.0000 </r>
       <r>   26.3047    0.0000 </r>
       <r>   26.6959    0.0000 </r>
       <r>   26.6959    0.0000 </r>
       <r>   26.6959    0.0000 </r>
       <r>   26.8145    0.0000 </r>
       <r>   26.8145    0.0000 </r>
       <r>   26.8145    0.0000 </r>
       <r>   28.3496    0.0000 </r>
       <r>   28.3496    0.0000 </r>
       <r>   28.3496    0.0000 </r>
       <r>   30.0873    0.0000 </r>
       <r>   30.0873    0.0000 </r>
       <r>   30.3123    0.0000 </r>
       <r>   30.7190    0.0000 </r>
       <r>   30.7190    0.0000 </r>
       <r>   30.7190    0.0000 </r>
       <r>   31.5822    0.0000 </r>
       <r>   31.5822    0.0000 </r>
       <r>   31.5822    0.0000 </r>
       <r>   31.7578    0.0000 </r>
       <r>   31.7578    0.0000 </r>
       <r>   32.2232    0.0000 </r>
       <r>   32.2232    0.0000 </r>
       <r>   32.2232    0.0000 </r>
       <r>   32.6728    0.0000 </r>
       <r>   32.6728    0.0000 </r>
       <r>   32.6728    0.0000 </r>
       <r>   33.1702    0.0000 </r>
       <r>   33.1702    0.0000 </r>
       <r>   33.1702    0.0000 </r>
       <r>   33.9208    0.0000 </r>
       <r>   33.9208    0.0000 </r>
       <r>   34.1750    0.0000 </r>
       <r>   35.3872    0.0000 </r>
       <r>   36.7306    0.0000 </r>
       <r>   36.7306    0.0000 </r>
       <r>   36.7306    0.0000 </r>
       <r>   36.9928    0.0000 </r>
       <r>   36.9928    0.0000 </r>
       <r>   36.9928    0.0000 </r>
       <r>   37.1156    0.0000 </r>
       <r>   37.1156    0.0000 </r>
       <r>   37.1156    0.0000 </r>
       <r>   37.6017    0.0000 </r>
       <r>   37.6017    0.0000 </r>
       <r>   38.0748    0.0000 </r>
       <r>   38.0748    0.0000 </r>
       <r>   38.0748    0.0000 </r>
       <r>   38.2072    0.0000 </r>
       <r>   38.2072    0.0000 </r>
       <r>   38.2072    0.0000 </r>
       <r>   38.6737    0.0000 </r>
       <r>   39.5095    0.0000 </r>
       <r>   39.5095    0.0000 </r>
       <r>   39.5095    0.0000 </r>
       <r>   41.2835    0.0000 </r>
       <r>   41.2835    0.0000 </r>
       <r>   41.3475    0.0000 </r>
       <r>   41.7833    0.0000 </r>
       <r>   41.7833    0.0000 </r>
       <r>   41.7833    0.0000 </r>
       <r>   41.8388    0.0000 </r>
       <r>   41.9859    0.0000 </r>
       <r>   41.9859    0.0000 </r>
       <r>   41.9859    0.0000 </r>
       <r>   42.5310    0.0000 </r>
       <r>   42.5310    0.0000 </r>
       <r>   42.5310    0.0000 </r>
       <r>   45.4143    0.0000 </r>
       <r>   45.4143    0.0000 </r>
       <r>   45.9703    0.0000 </r>
       <r>   45.9703    0.0000 </r>
       <r>   45.9703    0.0000 </r>
       <r>   47.5538    0.0000 </r>
       <r>   47.5543    0.0000 </r>
       <r>   47.5552    0.0000 </r>
      </set>
     </set>
     <set comment="spin 2">
      <set comment="kpoint 1">
       <r>   -7.0034    1.0000 </r>
       <r>   -3.3159    1.0000 </r>
       <r>   -3.3159    1.0000 </r>
       <r>   -2.9645    1.0000 </r>
       <r>   -2.9645    1.0000 </r>
       <r>   -2.9645    1.0000 </r>
       <r>    1.4977    1.0000 </r>
       <r>    1.7022    1.0000 </r>
       <r>    1.7022    1.0000 </r>
       <r>    1.7022    1.0000 </r>
       <r>    2.7614    1.0000 </r>
       <r>    2.7614    1.0000 </r>
       <r>    2.7614    1.0000 </r>
       <r>    5.7037    0.0000 </r>
       <r>    5.7037    0.0000 </r>
       <r>    5.7037    0.0000 </r>
       <r>    5.8915    0.0000 </r>
       <r>    5.8915    0.0000 </r>
       <r>    6.0562    0.0000 </r>
       <r>    6.1345    0.0000 </r>
       <r>    6.1345    0.0000 </r>
       <r>    6.1345    0.0000 </r>
       <r>    8.9442    0.0000 </r>
       <r>    8.9442    0.0000 </r>
       <r>    8.9442    0.0000 </r>
       <r>   10.5711    0.0000 </r>
[...]
        <r>  0.0027  0.0001  0.0002  0.0002  0.0000  0.0000  0.0000  0.0000  0.0000 </r>
       </set>
       <set comment="band 117">
        <r>  0.0000  0.0021  0.0040  0.0006  0.0000  0.0000  0.0000  0.0000  0.0000 </r>
        <r>  0.0000  0.0130  0.0000  0.0066  0.0000  0.0000  0.0000  0.0000  0.0000 </r>
        <r>  0.0000  0.0011  0.0008  0.0006  0.0000  0.0000  0.0000  0.0000  0.0000 </r>
        <r>  0.0000  0.0000  0.0130  0.0004  0.0000  0.0000  0.0000  0.0000  0.0000 </r>
        <r>  0.0000  0.0021  0.0008  0.0011  0.0000  0.0000  0.0000  0.0000  0.0000 </r>
        <r>  0.0000  0.0004  0.0066  0.0000  0.0000  0.0000  0.0000  0.0000  0.0000 </r>
        <r>  0.0000  0.0011  0.0040  0.0011  0.0000  0.0000  0.0000  0.0000  0.0000 </r>
       </set>
       <set comment="band 118">
        <r>  0.0000  0.0013  0.0006  0.0013  0.0000  0.0000  0.0000  0.0000  0.0000 </r>
        <r>  0.0000  0.0054  0.0000  0.0119  0.0000  0.0000  0.0000  0.0000  0.0000 </r>
        <r>  0.0000  0.0007  0.0036  0.0013  0.0000  0.0000  0.0000  0.0000  0.0000 </r>
        <r>  0.0000  0.0000  0.0054  0.0027  0.0000  0.0000  0.0000  0.0000  0.0000 </r>
        <r>  0.0000  0.0013  0.0036  0.0022  0.0000  0.0000  0.0000  0.0000  0.0000 </r>
        <r>  0.0000  0.0027  0.0119  0.0000  0.0000  0.0000  0.0000  0.0000  0.0000 </r>
        <r>  0.0000  0.0007  0.0006  0.0022  0.0000  0.0000  0.0000  0.0000  0.0000 </r>
       </set>
       <set comment="band 119">
        <r>  0.0000  0.0014  0.0003  0.0029  0.0000  0.0000  0.0000  0.0000  0.0000 </r>
        <r>  0.0000  0.0016  0.0000  0.0015  0.0000  0.0000  0.0000  0.0000  0.0000 </r>
        <r>  0.0000  0.0031  0.0005  0.0029  0.0000  0.0000  0.0000  0.0000  0.0000 </r>
        <r>  0.0000  0.0000  0.0016  0.0170  0.0000  0.0000  0.0000  0.0000  0.0000 </r>
        <r>  0.0000  0.0014  0.0005  0.0016  0.0000  0.0000  0.0000  0.0000  0.0000 </r>
        <r>  0.0000  0.0170  0.0015  0.0000  0.0000  0.0000  0.0000  0.0000  0.0000 </r>
        <r>  0.0000  0.0031  0.0003  0.0016  0.0000  0.0000  0.0000  0.0000  0.0000 </r>
       </set>
       <set comment="band 120">
        <r>  0.0166  0.0000  0.0000  0.0000  0.0000  0.0000  0.0000  0.0000  0.0000 </r>
        <r>  0.0000  0.0000  0.0000  0.0000  0.0000  0.0000  0.0000  0.0000  0.0000 </r>
        <r>  0.0166  0.0000  0.0000  0.0000  0.0000  0.0000  0.0000  0.0000  0.0000 </r>
        <r>  0.0000  0.0000  0.0000  0.0000  0.0000  0.0000  0.0000  0.0000  0.0000 </r>
        <r>  0.0166  0.0000  0.0000  0.0000  0.0000  0.0000  0.0000  0.0000  0.0000 </r>
        <r>  0.0000  0.0000  0.0000  0.0000  0.0000  0.0000  0.0000  0.0000  0.0000 </r>
        <r>  0.0166  0.0000  0.0000  0.0000  0.0000  0.0000  0.0000  0.0000  0.0000 </r>
       </set>
       <set comment="band 121">
        <r>  0.0248  0.0026  0.0030  0.0016  0.0000  0.0000  0.0000  0.0000  0.0000 </r>
        <r>  0.0005  0.0101  0.0000  0.0016  0.0000  0.0000  0.0000  0.0000  0.0000 </r>
        <r>  0.0033  0.0008  0.0004  0.0001  0.0000  0.0000  0.0000  0.0000  0.0000 </r>
        <r>  0.0008  0.0000  0.0101  0.0011  0.0000  0.0000  0.0000  0.0000  0.0000 </r>
        <r>  0.0064  0.0013  0.0006  0.0002  0.0000  0.0000  0.0000  0.0000  0.0000 </r>
        <r>  0.0048  0.0011  0.0016  0.0000  0.0000  0.0000  0.0000  0.0000  0.0000 </r>
        <r>  0.0174  0.0017  0.0025  0.0009  0.0000  0.0000  0.0000  0.0000  0.0000 </r>
       </set>
       <set comment="band 122">
        <r>  0.0120  0.0013  0.0005  0.0018  0.0000  0.0000  0.0000  0.0000  0.0000 </r>
        <r>  0.0052  0.0014  0.0000  0.0004  0.0000  0.0000  0.0000  0.0000  0.0000 </r>
        <r>  0.0226  0.0027  0.0013  0.0026  0.0000  0.0000  0.0000  0.0000  0.0000 </r>
        <r>  0.0002  0.0000  0.0014  0.0110  0.0000  0.0000  0.0000  0.0000  0.0000 </r>
        <r>  0.0048  0.0009  0.0001  0.0008  0.0000  0.0000  0.0000  0.0000  0.0000 </r>
        <r>  0.0007  0.0110  0.0004  0.0000  0.0000  0.0000  0.0000  0.0000  0.0000 </r>
        <r>  0.0125  0.0020  0.0005  0.0013  0.0000  0.0000  0.0000  0.0000  0.0000 </r>
       </set>
       <set comment="band 123">
        <r>  0.0021  0.0000  0.0004  0.0005  0.0000  0.0000  0.0000  0.0000  0.0000 </r>
        <r>  0.0003  0.0013  0.0000  0.0108  0.0000  0.0000  0.0000  0.0000  0.0000 </r>
        <r>  0.0131  0.0005  0.0022  0.0013  0.0000  0.0000  0.0000  0.0000  0.0000 </r>
        <r>  0.0051  0.0000  0.0013  0.0007  0.0000  0.0000  0.0000  0.0000  0.0000 </r>
        <r>  0.0277  0.0018  0.0032  0.0030  0.0000  0.0000  0.0000  0.0000  0.0000 </r>
        <r>  0.0006  0.0007  0.0108  0.0000  0.0000  0.0000  0.0000  0.0000  0.0000 </r>
        <r>  0.0090  0.0002  0.0009  0.0017  0.0000  0.0000  0.0000  0.0000  0.0000 </r>
       </set>
       <set comment="band 124">
        <r>  0.0000  0.0030  0.0072  0.0021  0.0000  0.0000  0.0000  0.0000  0.0000 </r>
        <r>  0.0000  0.0000  0.0071  0.0000  0.0000  0.0000  0.0000  0.0000  0.0000 </r>
        <r>  0.0000  0.0030  0.0072  0.0021  0.0000  0.0000  0.0000  0.0000  0.0000 </r>
        <r>  0.0000  0.0029  0.0000  0.0000  0.0000  0.0000  0.0000  0.0000  0.0000 </r>
        <r>  0.0000  0.0030  0.0072  0.0021  0.0000  0.0000  0.0000  0.0000  0.0000 </r>
        <r>  0.0000  0.0000  0.0000  0.0020  0.0000  0.0000  0.0000  0.0000  0.0000 </r>
        <r>  0.0000  0.0030  0.0072  0.0021  0.0000  0.0000  0.0000  0.0000  0.0000 </r>
       </set>
       <set comment="band 125">
        <r>  0.0000  0.0052  0.0010  0.0061  0.0000  0.0000  0.0000  0.0000  0.0000 </r>
        <r>  0.0000  0.0000  0.0009  0.0000  0.0000  0.0000  0.0000  0.0000  0.0000 </r>
        <r>  0.0000  0.0052  0.0010  0.0061  0.0000  0.0000  0.0000  0.0000  0.0000 </r>
        <r>  0.0000  0.0051  0.0000  0.0000  0.0000  0.0000  0.0000  0.0000  0.0000 </r>
        <r>  0.0000  0.0052  0.0010  0.0061  0.0000  0.0000  0.0000  0.0000  0.0000 </r>
        <r>  0.0000  0.0000  0.0000  0.0060  0.0000  0.0000  0.0000  0.0000  0.0000 </r>
        <r>  0.0000  0.0052  0.0010  0.0061  0.0000  0.0000  0.0000  0.0000  0.0000 </r>
       </set>
       <set comment="band 126">
        <r>  0.0000  0.0000  0.0000  0.0000  0.0000  0.0000  0.0000  0.0000  0.0000 </r>
        <r>  0.0000  0.0000  0.0000  0.0000  0.0000  0.0000  0.0000  0.0000  0.0000 </r>
        <r>  0.0000  0.0000  0.0000  0.0000  0.0000  0.0000  0.0000  0.0000  0.0000 </r>
        <r>  0.0000  0.0000  0.0000  0.0000  0.0000  0.0000  0.0000  0.0000  0.0000 </r>
        <r>  0.0000  0.0000  0.0000  0.0000  0.0000  0.0000  0.0000  0.0000  0.0000 </r>
        <r>  0.0000  0.0000  0.0000  0.0000  0.0000  0.0000  0.0000  0.0000  0.0000 </r>
        <r>  0.0000  0.0000  0.0000  0.0000  0.0000  0.0000  0.0000  0.0000  0.0000 </r>
       </set>
       <set comment="band 127">
        <r>  0.0010  0.0003  0.0004  0.0030  0.0000  0.0000  0.0000  0.0000  0.0000 </r>
        <r>  0.0027  0.0037  0.0000  0.0008  0.0000  0.0000  0.0000  0.0000  0.0000 </r>
        <r>  0.0001  0.0014  0.0004  0.0044  0.0000  0.0000  0.0000  0.0000  0.0000 </r>
        <r>  0.0063  0.0000  0.0037  0.0004  0.0000  0.0000  0.0000  0.0000  0.0000 </r>
        <r>  0.0002  0.0016  0.0003  0.0041  0.0000  0.0000  0.0000  0.0000  0.0000 </r>
        <r>  0.0283  0.0004  0.0008  0.0000  0.0000  0.0000  0.0000  0.0000  0.0000 </r>
        <r>  0.0007  0.0004  0.0008  0.0032  0.0000  0.0000  0.0000  0.0000  0.0000 </r>
       </set>
       <set comment="band 128">
        <r>  0.0004  0.0002  0.0046  0.0005  0.0000  0.0000  0.0000  0.0000  0.0000 </r>
        <r>  0.0342  0.0003  0.0000  0.0001  0.0000  0.0000  0.0000  0.0000  0.0000 </r>
        <r>  0.0006  0.0003  0.0042  0.0003  0.0000  0.0000  0.0000  0.0000  0.0000 </r>
        <r>  0.0011  0.0000  0.0003  0.0044  0.0000  0.0000  0.0000  0.0000  0.0000 </r>
        <r>  0.0003  0.0003  0.0046  0.0006  0.0000  0.0000  0.0000  0.0000  0.0000 </r>
        <r>  0.0020  0.0044  0.0001  0.0000  0.0000  0.0000  0.0000  0.0000  0.0000 </r>
        <r>  0.0007  0.0003  0.0043  0.0001  0.0000  0.0000  0.0000  0.0000  0.0000 </r>
       </set>
       <set comment="band 129">
        <r>  0.0001  0.0047  0.0001  0.0016  0.0000  0.0000  0.0000  0.0000  0.0000 </r>
        <r>  0.0004  0.0009  0.0000  0.0039  0.0000  0.0000  0.0000  0.0000  0.0000 </r>
        <r>  0.0008  0.0034  0.0005  0.0004  0.0000  0.0000  0.0000  0.0000  0.0000 </r>
        <r>  0.0299  0.0000  0.0009  0.0001  0.0000  0.0000  0.0000  0.0000  0.0000 </r>
        <r>  0.0010  0.0032  0.0001  0.0003  0.0000  0.0000  0.0000  0.0000  0.0000 </r>
        <r>  0.0070  0.0001  0.0039  0.0000  0.0000  0.0000  0.0000  0.0000  0.0000 </r>
        <r>  0.0002  0.0044  0.0000  0.0017  0.0000  0.0000  0.0000  0.0000  0.0000 </r>
       </set>
       <set comment="band 130">
        <r>  0.0072  0.0018  0.0018  0.0018  0.0000  0.0000  0.0000  0.0000  0.0000 </r>
        <r>  0.0000  0.0000  0.0034  0.0000  0.0000  0.0000  0.0000  0.0000  0.0000 </r>
        <r>  0.0072  0.0018  0.0018  0.0018  0.0000  0.0000  0.0000  0.0000  0.0000 </r>
        <r>  0.0000  0.0034  0.0000  0.0000  0.0000  0.0000  0.0000  0.0000  0.0000 </r>
        <r>  0.0072  0.0018  0.0018  0.0018  0.0000  0.0000  0.0000  0.0000  0.0000 </r>
        <r>  0.0000  0.0000  0.0000  0.0034  0.0000  0.0000  0.0000  0.0000  0.0000 </r>
        <r>  0.0072  0.0018  0.0018  0.0018  0.0000  0.0000  0.0000  0.0000  0.0000 </r>
       </set>
       <set comment="band 131">
        <r>  0.0000  0.0005  0.0006  0.0018  0.0000  0.0000  0.0000  0.0000  0.0000 </r>
        <r>  0.0000  0.0000  0.0000  0.0001  0.0000  0.0000  0.0000  0.0000  0.0000 </r>
        <r>  0.0000  0.0013  0.0002  0.0018  0.0000  0.0000  0.0000  0.0000  0.0000 </r>
        <r>  0.0000  0.0000  0.0000  0.0001  0.0000  0.0000  0.0000  0.0000  0.0000 </r>
        <r>  0.0000  0.0005  0.0002  0.0005  0.0000  0.0000  0.0000  0.0000  0.0000 </r>
        <r>  0.0000  0.0001  0.0001  0.0000  0.0000  0.0000  0.0000  0.0000  0.0000 </r>
        <r>  0.0000  0.0013  0.0006  0.0005  0.0000  0.0000  0.0000  0.0000  0.0000 </r>
       </set>
       <set comment="band 132">
        <r>  0.0000  0.0019  0.0016  0.0002  0.0000  0.0000  0.0000  0.0000  0.0000 </r>
        <r>  0.0000  0.0001  0.0000  0.0000  0.0000  0.0000  0.0000  0.0000  0.0000 </r>
        <r>  0.0000  0.0002  0.0004  0.0002  0.0000  0.0000  0.0000  0.0000  0.0000 </r>
        <r>  0.0000  0.0000  0.0001  0.0000  0.0000  0.0000  0.0000  0.0000  0.0000 </r>
        <r>  0.0000  0.0019  0.0004  0.0007  0.0000  0.0000  0.0000  0.0000  0.0000 </r>
        <r>  0.0000  0.0000  0.0000  0.0000  0.0000  0.0000  0.0000  0.0000  0.0000 </r>
        <r>  0.0000  0.0002  0.0016  0.0007  0.0000  0.0000  0.0000  0.0000  0.0000 </r>
       </set>
       <set comment="band 133">
        <r>  0.0000  0.0001  0.0003  0.0004  0.0000  0.0000  0.0000  0.0000  0.0000 </r>
        <r>  0.0000  0.0001  0.0000  0.0001  0.0000  0.0000  0.0000  0.0000  0.0000 </r>
        <r>  0.0000  0.0010  0.0019  0.0004  0.0000  0.0000  0.0000  0.0000  0.0000 </r>
        <r>  0.0000  0.0000  0.0001  0.0000  0.0000  0.0000  0.0000  0.0000  0.0000 </r>
        <r>  0.0000  0.0001  0.0019  0.0012  0.0000  0.0000  0.0000  0.0000  0.0000 </r>
        <r>  0.0000  0.0000  0.0001  0.0000  0.0000  0.0000  0.0000  0.0000  0.0000 </r>
        <r>  0.0000  0.0010  0.0003  0.0012  0.0000  0.0000  0.0000  0.0000  0.0000 </r>
       </set>
       <set comment="band 134">
        <r>  0.0140  0.0000  0.0001  0.0002  0.0000  0.0000  0.0000  0.0000  0.0000 </r>
        <r>  0.0081  0.0000  0.0000  0.0000  0.0000  0.0000  0.0000  0.0000  0.0000 </r>
        <r>  0.0283  0.0000  0.0001  0.0001  0.0000  0.0000  0.0000  0.0000  0.0000 </r>
        <r>  0.0013  0.0000  0.0000  0.0000  0.0000  0.0000  0.0000  0.0000  0.0000 </r>
        <r>  0.0051  0.0001  0.0003  0.0001  0.0000  0.0000  0.0000  0.0000  0.0000 </r>
        <r>  0.0020  0.0000  0.0000  0.0000  0.0000  0.0000  0.0000  0.0000  0.0000 </r>
        <r>  0.0079  0.0002  0.0001  0.0000  0.0000  0.0000  0.0000  0.0000  0.0000 </r>
       </set>
       <set comment="band 135">
        <r>  0.0242  0.0000  0.0001  0.0001  0.0000  0.0000  0.0000  0.0000  0.0000 </r>
        <r>  0.0014  0.0000  0.0000  0.0000  0.0000  0.0000  0.0000  0.0000  0.0000 </r>
        <r>  0.0058  0.0001  0.0001  0.0002  0.0000  0.0000  0.0000  0.0000  0.0000 </r>
        <r>  0.0009  0.0000  0.0000  0.0000  0.0000  0.0000  0.0000  0.0000  0.0000 </r>
        <r>  0.0082  0.0002  0.0000  0.0002  0.0000  0.0000  0.0000  0.0000  0.0000 </r>
        <r>  0.0091  0.0000  0.0000  0.0000  0.0000  0.0000  0.0000  0.0000  0.0000 </r>
        <r>  0.0171  0.0000  0.0002  0.0001  0.0000  0.0000  0.0000  0.0000  0.0000 </r>
       </set>
       <set comment="band 136">
        <r>  0.0033  0.0003  0.0001  0.0001  0.0000  0.0000  0.0000  0.0000  0.0000 </r>
        <r>  0.0018  0.0000  0.0000  0.0000  0.0000  0.0000  0.0000  0.0000  0.0000 </r>
        <r>  0.0074  0.0002  0.0002  0.0000  0.0000  0.0000  0.0000  0.0000  0.0000 </r>
        <r>  0.0092  0.0000  0.0000  0.0000  0.0000  0.0000  0.0000  0.0000  0.0000 </r>
        <r>  0.0281  0.0000  0.0000  0.0001  0.0000  0.0000  0.0000  0.0000  0.0000 </r>
        <r>  0.0003  0.0000  0.0000  0.0000  0.0000  0.0000  0.0000  0.0000  0.0000 </r>
        <r>  0.0165  0.0001  0.0000  0.0002  0.0000  0.0000  0.0000  0.0000  0.0000 </r>
       </set>
       <set comment="band 137">
        <r>  0.0000  0.0005  0.0004  0.0003  0.0000  0.0000  0.0000  0.0000  0.0000 </r>
        <r>  0.0000  0.0000  0.0003  0.0000  0.0000  0.0000  0.0000  0.0000  0.0000 </r>
        <r>  0.0000  0.0005  0.0004  0.0003  0.0000  0.0000  0.0000  0.0000  0.0000 </r>
        <r>  0.0000  0.0004  0.0000  0.0000  0.0000  0.0000  0.0000  0.0000  0.0000 </r>
        <r>  0.0000  0.0005  0.0004  0.0003  0.0000  0.0000  0.0000  0.0000  0.0000 </r>
        <r>  0.0000  0.0000  0.0000  0.0003  0.0000  0.0000  0.0000  0.0000  0.0000 </r>
        <r>  0.0000  0.0005  0.0004  0.0003  0.0000  0.0000  0.0000  0.0000  0.0000 </r>
       </set>
       <set comment="band 138">
        <r>  0.0000  0.0003  0.0004  0.0005  0.0000  0.0000  0.0000  0.0000  0.0000 </r>
        <r>  0.0000  0.0000  0.0003  0.0000  0.0000  0.0000  0.0000  0.0000  0.0000 </r>
        <r>  0.0000  0.0003  0.0004  0.0005  0.0000  0.0000  0.0000  0.0000  0.0000 </r>
        <r>  0.0000  0.0003  0.0000  0.0000  0.0000  0.0000  0.0000  0.0000  0.0000 </r>
        <r>  0.0000  0.0003  0.0004  0.0005  0.0000  0.0000  0.0000  0.0000  0.0000 </r>
        <r>  0.0000  0.0000  0.0000  0.0004  0.0000  0.0000  0.0000  0.0000  0.0000 </r>
        <r>  0.0000  0.0003  0.0004  0.0005  0.0000  0.0000  0.0000  0.0000  0.0000 </r>
       </set>
       <set comment="band 139">
        <r>  0.0000  0.0001  0.0000  0.0001  0.0000  0.0000  0.0000  0.0000  0.0000 </r>
        <r>  0.0000  0.0000  0.0000  0.0000  0.0000  0.0000  0.0000  0.0000  0.0000 </r>
        <r>  0.0000  0.0000  0.0001  0.0001  0.0000  0.0000  0.0000  0.0000  0.0000 </r>
        <r>  0.0000  0.0000  0.0000  0.0000  0.0000  0.0000  0.0000  0.0000  0.0000 </r>
        <r>  0.0000  0.0001  0.0001  0.0000  0.0000  0.0000  0.0000  0.0000  0.0000 </r>
        <r>  0.0000  0.0000  0.0000  0.0000  0.0000  0.0000  0.0000  0.0000  0.0000 </r>
        <r>  0.0000  0.0000  0.0000  0.0000  0.0000  0.0000  0.0000  0.0000  0.0000 </r>
       </set>
       <set comment="band 140">
        <r>  0.0000  0.0000  0.0001  0.0000  0.0000  0.0000  0.0000  0.0000  0.0000 </r>
        <r>  0.0000  0.0000  0.0000  0.0000  0.0000  0.0000  0.0000  0.0000  0.0000 </r>
        <r>  0.0000  0.0000  0.0000  0.0000  0.0000  0.0000  0.0000  0.0000  0.0000 </r>
        <r>  0.0000  0.0000  0.0000  0.0000  0.0000  0.0000  0.0000  0.0000  0.0000 </r>
        <r>  0.0000  0.0000  0.0000  0.0001  0.0000  0.0000  0.0000  0.0000  0.0000 </r>
        <r>  0.0000  0.0000  0.0000  0.0000  0.0000  0.0000  0.0000  0.0000  0.0000 </r>
        <r>  0.0000  0.0000  0.0001  0.0001  0.0000  0.0000  0.0000  0.0000  0.0000 </r>
       </set>
       <set comment="band 141">
        <r>  0.0000  0.0000  0.0000  0.0001  0.0000  0.0000  0.0000  0.0000  0.0000 </r>
        <r>  0.0000  0.0000  0.0000  0.0000  0.0000  0.0000  0.0000  0.0000  0.0000 </r>
        <r>  0.0000  0.0001  0.0000  0.0001  0.0000  0.0000  0.0000  0.0000  0.0000 </r>
        <r>  0.0000  0.0000  0.0000  0.0000  0.0000  0.0000  0.0000  0.0000  0.0000 </r>
        <r>  0.0000  0.0000  0.0000  0.0001  0.0000  0.0000  0.0000  0.0000  0.0000 </r>
        <r>  0.0000  0.0000  0.0000  0.0000  0.0000  0.0000  0.0000  0.0000  0.0000 </r>
        <r>  0.0000  0.0001  0.0000  0.0001  0.0000  0.0000  0.0000  0.0000  0.0000 </r>
       </set>
       <set comment="band 142">
        <r>  0.0078  0.0003  0.0001  0.0008  0.0000  0.0000  0.0000  0.0000  0.0000 </r>
        <r>  0.0001  0.0016  0.0000  0.0004  0.0000  0.0000  0.0000  0.0000  0.0000 </r>
        <r>  0.0010  0.0001  0.0001  0.0005  0.0000  0.0000  0.0000  0.0000  0.0000 </r>
        <r>  0.0001  0.0000  0.0016  0.0002  0.0000  0.0000  0.0000  0.0000  0.0000 </r>
        <r>  0.0014  0.0000  0.0001  0.0005  0.0000  0.0000  0.0000  0.0000  0.0000 </r>
        <r>  0.0005  0.0002  0.0004  0.0000  0.0000  0.0000  0.0000  0.0000  0.0000 </r>
        <r>  0.0073  0.0003  0.0001  0.0008  0.0000  0.0000  0.0000  0.0000  0.0000 </r>
       </set>
       <set comment="band 143">
        <r>  0.0048  0.0001  0.0008  0.0001  0.0000  0.0000  0.0000  0.0000  0.0000 </r>
        <r>  0.0006  0.0001  0.0000  0.0001  0.0000  0.0000  0.0000  0.0000  0.0000 </r>
        <r>  0.0057  0.0001  0.0008  0.0001  0.0000  0.0000  0.0000  0.0000  0.0000 </r>
        <r>  0.0000  0.0000  0.0001  0.0020  0.0000  0.0000  0.0000  0.0000  0.0000 </r>
        <r>  0.0024  0.0000  0.0007  0.0000  0.0000  0.0000  0.0000  0.0000  0.0000 </r>
        <r>  0.0000  0.0019  0.0001  0.0000  0.0000  0.0000  0.0000  0.0000  0.0000 </r>
        <r>  0.0045  0.0001  0.0007  0.0001  0.0000  0.0000  0.0000  0.0000  0.0000 </r>
       </set>
       <set comment="band 144">
        <r>  0.0002  0.0004  0.0000  0.0001  0.0000  0.0000  0.0000  0.0000  0.0000 </r>
        <r>  0.0000  0.0004  0.0000  0.0017  0.0000  0.0000  0.0000  0.0000  0.0000 </r>
        <r>  0.0070  0.0009  0.0000  0.0004  0.0000  0.0000  0.0000  0.0000  0.0000 </r>
        <r>  0.0005  0.0000  0.0004  0.0001  0.0000  0.0000  0.0000  0.0000  0.0000 </r>
        <r>  0.0083  0.0007  0.0001  0.0003  0.0000  0.0000  0.0000  0.0000  0.0000 </r>
        <r>  0.0001  0.0001  0.0016  0.0000  0.0000  0.0000  0.0000  0.0000  0.0000 </r>
        <r>  0.0020  0.0007  0.0001  0.0000  0.0000  0.0000  0.0000  0.0000  0.0000 </r>
       </set>
      </set>
     </set>
    </set>
   </array>
  </projected>
 </calculation>
 <structure name="finalpos" >
  <crystal>
   <varray name="basis" >
    <v>       5.43784835       0.00000000       0.00000000 </v>
    <v>       0.00000000       5.43784835       0.00000000 </v>
    <v>       0.00000000       0.00000000       5.43784835 </v>
   </varray>
   <i name="volume">    160.79823434 </i>
   <varray name="rec_basis" >
    <v>       0.18389626       0.00000000       0.00000000 </v>
    <v>       0.00000000       0.18389626       0.00000000 </v>
    <v>       0.00000000       0.00000000       0.18389626 </v>
   </varray>
  </crystal>
  <varray name="positions" >
   <v>       0.24504615       0.75495385       0.24504615 </v>
   <v>       0.00000000       0.00000000       0.50000000 </v>
   <v>       0.24504615       0.24504615       0.75495385 </v>
   <v>       0.00000000       0.50000000       0.00000000 </v>
   <v>       0.75495385       0.75495385       0.75495385 </v>
   <v>       0.50000000       0.00000000       0.00000000 </v>
   <v>       0.75495385       0.24504615       0.24504615 </v>
  </varray>
 </structure>
</modeling>
