 vasp.6.1.2 22Jul20 (build Dec 10 2020 10:33:42) complex

 executed on             LinuxIFC date 2022.09.02  12:53:50
 running on   96 total cores
 distrk:  each k-point on   96 cores,    1 groups
 distr:  one band on NCORE=   1 cores,   96 groups


--------------------------------------------------------------------------------------------------------


 INCAR:
 POTCAR:    PAW_PBE Na_pv 19Sep2006
 POTCAR:    PAW_PBE Cl 06Sep2000
 WARNING: For LVTOT=.TRUE., VASP.5.x writes the TOTAL local potential to the
     file LOCPOT. If you want only the Hartree contributions, use LVHAR=.TRUE.
     instead.

 -----------------------------------------------------------------------------
|                                                                             |
|           W    W    AA    RRRRR   N    N  II  N    N   GGGG   !!!           |
|           W    W   A  A   R    R  NN   N  II  NN   N  G    G  !!!           |
|           W    W  A    A  R    R  N N  N  II  N N  N  G       !!!           |
|           W WW W  AAAAAA  RRRRR   N  N N  II  N  N N  G  GGG   !            |
|           WW  WW  A    A  R   R   N   NN  II  N   NN  G    G                |
|           W    W  A    A  R    R  N    N  II  N    N   GGGG   !!!           |
|                                                                             |
|     For optimal performance we recommend to set                             |
|       NCORE = 4 - approx SQRT(number of cores).                             |
|     NCORE specifies how many cores store one orbital (NPAR=cpu/NCORE).      |
|     This setting can greatly improve the performance of VASP for DFT.       |
|     The default, NCORE=1 might be grossly inefficient on modern             |
|     multi-core architectures or massively parallel machines. Do your        |
|     own testing!!!!                                                         |
|     Unfortunately you need to use the default for GW and RPA                |
|     calculations (for HF NCORE is supported but not extensively tested      |
|     yet).                                                                   |
|                                                                             |
 -----------------------------------------------------------------------------

 POTCAR:    PAW_PBE Na_pv 19Sep2006
   VRHFIN =Na: p6s1
   LEXCH  = PE
   EATOM  =   766.0439 eV,   56.3026 Ry

   TITEL  = PAW_PBE Na_pv 19Sep2006
   LULTRA =        F    use ultrasoft PP ?
   IUNSCR =        1    unscreen: 0-lin 1-nonlin 2-no
   RPACOR =    1.800    partial core radius
   POMASS =   22.990; ZVAL   =    7.000    mass and valenz
   RCORE  =    2.200    outmost cutoff radius
   RWIGS  =    2.200; RWIGS  =    1.164    wigner-seitz radius (au A)
   ENMAX  =  259.561; ENMIN  =  194.671 eV
   ICORE  =        2    local potential
   LCOR   =        T    correct aug charges
   LPAW   =        T    paw PP
   EAUG   =  368.056
   DEXC   =    0.000
   RMAX   =    2.245    core radius for proj-oper
   RAUG   =    1.300    factor for augmentation sphere
   RDEP   =    2.259    radius for radial grids
   RDEPT  =    1.738    core radius for aug-charge

   Atomic configuration
    5 entries
     n  l   j            E        occ.
     1  0  0.50     -1033.6933   2.0000
     2  0  0.50       -56.7526   2.0000
     2  1  1.50       -28.6721   6.0000
     3  0  0.50        -2.7440   1.0000
     3  2  1.50        -1.3606   0.0000
   Description
     l       E           TYP  RCUT    TYP  RCUT
     1    -28.6720912     23  2.000
     1      6.8029130     23  2.000
     0     -2.7439560     23  2.200
     0     34.0145650     23  2.200
     2     -1.3605826     23  2.200
  local pseudopotential read in
  partial core-charges read in
  partial kinetic energy density read in
  atomic valenz-charges read in
  non local Contribution for L=           1  read in
    real space projection operators read in
  non local Contribution for L=           1  read in
    real space projection operators read in
  non local Contribution for L=           0  read in
    real space projection operators read in
  non local Contribution for L=           0  read in
    real space projection operators read in
    PAW grid and wavefunctions read in

   number of l-projection  operators is LMAX  =           4
   number of lm-projection operators is LMMAX =           8

 POTCAR:    PAW_PBE Cl 06Sep2000
   VRHFIN =Cl: s2p5
   LEXCH  = PE
   EATOM  =   409.7259 eV,   30.1140 Ry

   TITEL  = PAW_PBE Cl 06Sep2000
   LULTRA =        F    use ultrasoft PP ?
   IUNSCR =        1    unscreen: 0-lin 1-nonlin 2-no
   RPACOR =    1.500    partial core radius
   POMASS =   35.453; ZVAL   =    7.000    mass and valenz
   RCORE  =    1.900    outmost cutoff radius
   RWIGS  =    2.100; RWIGS  =    1.111    wigner-seitz radius (au A)
   ENMAX  =  262.472; ENMIN  =  196.854 eV
   ICORE  =        2    local potential
   LCOR   =        T    correct aug charges
   LPAW   =        T    paw PP
   EAUG   =  356.192
   DEXC   =    0.000
   RMAX   =    1.945    core radius for proj-oper
   RAUG   =    1.300    factor for augmentation sphere
   RDEP   =    2.020    radius for radial grids
   RDEPT  =    1.678    core radius for aug-charge

   Atomic configuration
    6 entries
     n  l   j            E        occ.
     1  0  0.50     -2751.1850   2.0000
     2  0  0.50      -252.6861   2.0000
     2  1  1.50      -191.6157   6.0000
     3  0  0.50       -20.6916   2.0000
     3  1  0.50        -8.5949   5.0000
     3  2  1.50        -8.1635   0.0000
   Description
     l       E           TYP  RCUT    TYP  RCUT
     0    -20.6915656     23  1.900
     0    -22.0521482     23  1.900
     1     -8.5948577     23  1.900
     1     -5.3847331     23  1.900
     2     -8.1634956     23  1.900
  local pseudopotential read in
  partial core-charges read in
  partial kinetic energy density read in
  atomic valenz-charges read in
  non local Contribution for L=           0  read in
    real space projection operators read in
  non local Contribution for L=           0  read in
    real space projection operators read in
  non local Contribution for L=           1  read in
    real space projection operators read in
  non local Contribution for L=           1  read in
    real space projection operators read in
    PAW grid and wavefunctions read in

   number of l-projection  operators is LMAX  =           4
   number of lm-projection operators is LMMAX =           8

 -----------------------------------------------------------------------------
|                                                                             |
|               ----> ADVICE to this user running VASP <----                  |
|                                                                             |
|     You enforced a specific xc type in the INCAR file but a different       |
|     type was found in the POTCAR file.                                      |
|     I HOPE YOU KNOW WHAT YOU ARE DOING!                                     |
|                                                                             |
 -----------------------------------------------------------------------------

  PAW_PBE Na_pv 19Sep2006               :
 energy of atom  1       EATOM= -766.0439
 kinetic energy error for atom=    0.0010 (will be added to EATOM!!)
  PAW_PBE Cl 06Sep2000                  :
 energy of atom  2       EATOM= -409.7259
 kinetic energy error for atom=    0.0012 (will be added to EATOM!!)


 POSCAR: Na4 Cl4
  positions in direct lattice
  No initial velocities read in
 exchange correlation table for  LEXCH =       14
   RHO(1)=    0.500       N(1)  =     2000
   RHO(2)=  100.500       N(2)  =     4000

 VTST: version 3.2, (02/03/18)

 CHAIN: initializing optimizer

 OPT: Using VASP Dynamics algorithm
 CHAIN: Read ICHAIN            0

 POSCAR: Na4 Cl4
  positions in direct lattice
  No initial velocities read in



--------------------------------------------------------------------------------------------------------


 ion  position               nearest neighbor table
   1  0.000  0.000  0.000-
   2  0.000  0.500  0.500-
   3  0.500  0.000  0.500-
   4  0.500  0.500  0.000-
   5  0.500  0.000  0.000-
   6  0.500  0.500  0.500-
   7  0.000  0.000  0.500-
   8  0.000  0.500  0.000-

  LATTYP: Found a simple cubic cell.
 ALAT       =     5.6916940000

  Lattice vectors:

 A1 = (   5.6916940000,   0.0000000000,   0.0000000000)
 A2 = (   0.0000000000,   5.6916940000,   0.0000000000)
 A3 = (   0.0000000000,   0.0000000000,   5.6916940000)


Analysis of symmetry for initial positions (statically):
=====================================================================
 Subroutine PRICEL returns following result:

  LATTYP: Found a face centered cubic cell.
 ALAT       =     5.6916940000

  Lattice vectors:

 A1 = (   2.8458470000,   2.8458470000,  -0.0000000000)
 A2 = (   2.8458470000,   0.0000000000,  -2.8458470000)
 A3 = (   0.0000000000,   2.8458470000,  -2.8458470000)

   4 primitive cells build up your supercell.


 Routine SETGRP: Setting up the symmetry group for a
 simple cubic supercell.


 Subroutine GETGRP returns: Found 48 space group operations
 (whereof 48 operations were pure point group operations)
 out of a pool of 48 trial point group operations.


The static configuration has the point symmetry O_h .


Analysis of symmetry for dynamics (positions and initial velocities):
=====================================================================
 Subroutine PRICEL returns following result:

  LATTYP: Found a face centered cubic cell.
 ALAT       =     5.6916940000

  Lattice vectors:

 A1 = (   2.8458470000,   2.8458470000,  -0.0000000000)
 A2 = (   2.8458470000,   0.0000000000,  -2.8458470000)
 A3 = (   0.0000000000,   2.8458470000,  -2.8458470000)

   4 primitive cells build up your supercell.


 Routine SETGRP: Setting up the symmetry group for a
 simple cubic supercell.


 Subroutine GETGRP returns: Found 48 space group operations
 (whereof 48 operations were pure point group operations)
 out of a pool of 48 trial point group operations.


The dynamic configuration has the point symmetry O_h .


Analysis of structural, dynamic, and magnetic symmetry:
=====================================================================
 Subroutine PRICEL returns following result:

  LATTYP: Found a face centered cubic cell.
 ALAT       =     5.6916940000

  Lattice vectors:

 A1 = (   2.8458470000,   2.8458470000,  -0.0000000000)
 A2 = (   2.8458470000,   0.0000000000,  -2.8458470000)
 A3 = (   0.0000000000,   2.8458470000,  -2.8458470000)

   4 primitive cells build up your supercell.


 Routine SETGRP: Setting up the symmetry group for a
 simple cubic supercell.


 Subroutine GETGRP returns: Found 48 space group operations
 (whereof 48 operations were pure point group operations)
 out of a pool of 48 trial point group operations.


The magnetic configuration has the point symmetry O_h .


 Subroutine INISYM returns: Found 48 space group operations
 (whereof 48 operations are pure point group operations),
 and found     4 'primitive' translations


----------------------------------------------------------------------------------------

                                     Primitive cell

  volume of cell :      46.0961

  direct lattice vectors                    reciprocal lattice vectors
     2.845847000  2.845847000 -0.000000000     0.175694617  0.175694617  0.175694617
     2.845847000  0.000000000 -2.845847000     0.175694617 -0.175694617 -0.175694617
     0.000000000  2.845847000 -2.845847000    -0.175694617  0.175694617 -0.175694617

  length of vectors
     4.024635424  4.024635424  4.024635424     0.304312004  0.304312004  0.304312004

  position of ions in fractional coordinates (direct lattice)
     0.000000000  0.000000000  0.000000000
     0.500000000  0.500000000  0.500000000

  ion indices of the primitive-cell ions
   primitive index   ion index
                 1           1
                 2           5

----------------------------------------------------------------------------------------




Automatic generation of k-mesh.
 generate k-points for:    6    6    6
Space group operators:
 irot       det(A)        alpha          n_x          n_y          n_z        tau_x        tau_y        tau_z
    1     1.000000     0.000000     1.000000     0.000000     0.000000     0.000000     0.000000     0.000000
    2    -1.000000     0.000000     1.000000     0.000000     0.000000     0.000000     0.000000     0.000000
    3     1.000000   120.000000    -0.577350    -0.577350    -0.577350     0.000000     0.000000     0.000000
    4    -1.000000   120.000000    -0.577350    -0.577350    -0.577350     0.000000     0.000000     0.000000
    5     1.000000   120.000000     0.577350     0.577350     0.577350     0.000000     0.000000     0.000000
    6    -1.000000   120.000000     0.577350     0.577350     0.577350     0.000000     0.000000     0.000000
    7     1.000000    90.000000     0.000000     0.000000    -1.000000     0.000000     0.000000     0.000000
    8    -1.000000    90.000000     0.000000     0.000000    -1.000000     0.000000     0.000000     0.000000
    9     1.000000   180.000000     0.000000     0.707107     0.707107     0.000000     0.000000     0.000000
   10    -1.000000   180.000000     0.000000     0.707107     0.707107     0.000000     0.000000     0.000000
   11     1.000000    90.000000     0.000000     1.000000     0.000000     0.000000     0.000000     0.000000
   12    -1.000000    90.000000     0.000000     1.000000     0.000000     0.000000     0.000000     0.000000
   13     1.000000   180.000000     0.000000     0.000000     1.000000     0.000000     0.000000     0.000000
   14    -1.000000   180.000000     0.000000     0.000000     1.000000     0.000000     0.000000     0.000000
   15     1.000000   120.000000    -0.577350     0.577350     0.577350     0.000000     0.000000     0.000000
   16    -1.000000   120.000000    -0.577350     0.577350     0.577350     0.000000     0.000000     0.000000
   17     1.000000   120.000000    -0.577350     0.577350    -0.577350     0.000000     0.000000     0.000000
   18    -1.000000   120.000000    -0.577350     0.577350    -0.577350     0.000000     0.000000     0.000000
   19     1.000000    90.000000     0.000000     0.000000     1.000000     0.000000     0.000000     0.000000
   20    -1.000000    90.000000     0.000000     0.000000     1.000000     0.000000     0.000000     0.000000
   21     1.000000    90.000000    -1.000000     0.000000     0.000000     0.000000     0.000000     0.000000
   22    -1.000000    90.000000    -1.000000     0.000000     0.000000     0.000000     0.000000     0.000000
   23     1.000000   180.000000     0.707107     0.000000     0.707107     0.000000     0.000000     0.000000
   24    -1.000000   180.000000     0.707107     0.000000     0.707107     0.000000     0.000000     0.000000
   25     1.000000   120.000000     0.577350    -0.577350     0.577350     0.000000     0.000000     0.000000
   26    -1.000000   120.000000     0.577350    -0.577350     0.577350     0.000000     0.000000     0.000000
   27     1.000000   120.000000    -0.577350    -0.577350     0.577350     0.000000     0.000000     0.000000
   28    -1.000000   120.000000    -0.577350    -0.577350     0.577350     0.000000     0.000000     0.000000
   29     1.000000   180.000000     1.000000     0.000000     0.000000     0.000000     0.000000     0.000000
   30    -1.000000   180.000000     1.000000     0.000000     0.000000     0.000000     0.000000     0.000000
   31     1.000000    90.000000     0.000000    -1.000000     0.000000     0.000000     0.000000     0.000000
   32    -1.000000    90.000000     0.000000    -1.000000     0.000000     0.000000     0.000000     0.000000
   33     1.000000   180.000000     0.707107     0.707107     0.000000     0.000000     0.000000     0.000000
   34    -1.000000   180.000000     0.707107     0.707107     0.000000     0.000000     0.000000     0.000000
   35     1.000000    90.000000     1.000000     0.000000     0.000000     0.000000     0.000000     0.000000
   36    -1.000000    90.000000     1.000000     0.000000     0.000000     0.000000     0.000000     0.000000
   37     1.000000   120.000000     0.577350    -0.577350    -0.577350     0.000000     0.000000     0.000000
   38    -1.000000   120.000000     0.577350    -0.577350    -0.577350     0.000000     0.000000     0.000000
   39     1.000000   180.000000     0.000000     1.000000     0.000000     0.000000     0.000000     0.000000
   40    -1.000000   180.000000     0.000000     1.000000     0.000000     0.000000     0.000000     0.000000
   41     1.000000   120.000000     0.577350     0.577350    -0.577350     0.000000     0.000000     0.000000
   42    -1.000000   120.000000     0.577350     0.577350    -0.577350     0.000000     0.000000     0.000000
   43     1.000000   180.000000     0.000000    -0.707107     0.707107     0.000000     0.000000     0.000000
   44    -1.000000   180.000000     0.000000    -0.707107     0.707107     0.000000     0.000000     0.000000
   45     1.000000   180.000000     0.707107    -0.707107     0.000000     0.000000     0.000000     0.000000
   46    -1.000000   180.000000     0.707107    -0.707107     0.000000     0.000000     0.000000     0.000000
   47     1.000000   180.000000     0.707107     0.000000    -0.707107     0.000000     0.000000     0.000000
   48    -1.000000   180.000000     0.707107     0.000000    -0.707107     0.000000     0.000000     0.000000
 TETIRR: Found    104 inequivalent tetrahedra from     1296

 Subroutine IBZKPT returns following result:
 ===========================================

 Found     20 irreducible k-points:

 Following reciprocal coordinates:
            Coordinates               Weight
  0.000000  0.000000  0.000000      1.000000
  0.166667  0.000000  0.000000      6.000000
  0.333333  0.000000  0.000000      6.000000
  0.500000  0.000000  0.000000      3.000000
  0.166667  0.166667  0.000000     12.000000
  0.333333  0.166667  0.000000     24.000000
  0.500000  0.166667  0.000000     12.000000
  0.333333  0.333333  0.000000     12.000000
  0.500000  0.333333  0.000000     12.000000
  0.500000  0.500000  0.000000      3.000000
  0.166667  0.166667  0.166667      8.000000
  0.333333  0.166667  0.166667     24.000000
  0.500000  0.166667  0.166667     12.000000
  0.333333  0.333333  0.166667     24.000000
  0.500000  0.333333  0.166667     24.000000
  0.500000  0.500000  0.166667      6.000000
  0.333333  0.333333  0.333333      8.000000
  0.500000  0.333333  0.333333     12.000000
  0.500000  0.500000  0.333333      6.000000
  0.500000  0.500000  0.500000      1.000000

 Following cartesian coordinates:
            Coordinates               Weight
  0.000000  0.000000  0.000000      1.000000
  0.029282  0.000000  0.000000      6.000000
  0.058565  0.000000  0.000000      6.000000
  0.087847  0.000000  0.000000      3.000000
  0.029282  0.029282  0.000000     12.000000
  0.058565  0.029282  0.000000     24.000000
  0.087847  0.029282  0.000000     12.000000
  0.058565  0.058565  0.000000     12.000000
  0.087847  0.058565  0.000000     12.000000
  0.087847  0.087847  0.000000      3.000000
  0.029282  0.029282  0.029282      8.000000
  0.058565  0.029282  0.029282     24.000000
  0.087847  0.029282  0.029282     12.000000
  0.058565  0.058565  0.029282     24.000000
  0.087847  0.058565  0.029282     24.000000
  0.087847  0.087847  0.029282      6.000000
  0.058565  0.058565  0.058565      8.000000
  0.087847  0.058565  0.058565     12.000000
  0.087847  0.087847  0.058565      6.000000
  0.087847  0.087847  0.087847      1.000000


 Subroutine IBZKPT_HF returns following result:
 ==============================================

 Found    216 k-points in 1st BZ
 the following    216 k-points will be used (e.g. in the exchange kernel)
 Following reciprocal coordinates:   # in IRBZ
  0.000000  0.000000  0.000000    0.00462963   1 t-inv F
  0.166667  0.000000  0.000000    0.00462963   2 t-inv F
  0.333333  0.000000  0.000000    0.00462963   3 t-inv F
  0.500000  0.000000  0.000000    0.00462963   4 t-inv F
  0.166667  0.166667  0.000000    0.00462963   5 t-inv F
  0.333333  0.166667  0.000000    0.00462963   6 t-inv F
  0.500000  0.166667  0.000000    0.00462963   7 t-inv F
  0.333333  0.333333  0.000000    0.00462963   8 t-inv F
  0.500000  0.333333  0.000000    0.00462963   9 t-inv F
  0.500000  0.500000  0.000000    0.00462963  10 t-inv F
  0.166667  0.166667  0.166667    0.00462963  11 t-inv F
  0.333333  0.166667  0.166667    0.00462963  12 t-inv F
  0.500000  0.166667  0.166667    0.00462963  13 t-inv F
  0.333333  0.333333  0.166667    0.00462963  14 t-inv F
  0.500000  0.333333  0.166667    0.00462963  15 t-inv F
  0.500000  0.500000  0.166667    0.00462963  16 t-inv F
  0.333333  0.333333  0.333333    0.00462963  17 t-inv F
  0.500000  0.333333  0.333333    0.00462963  18 t-inv F
  0.500000  0.500000  0.333333    0.00462963  19 t-inv F
  0.500000  0.500000  0.500000    0.00462963  20 t-inv F
 -0.166667  0.000000  0.000000    0.00462963   2 t-inv F
  0.000000  0.166667  0.000000    0.00462963   2 t-inv F
  0.000000 -0.166667  0.000000    0.00462963   2 t-inv F
  0.000000  0.000000  0.166667    0.00462963   2 t-inv F
  0.000000  0.000000 -0.166667    0.00462963   2 t-inv F
 -0.333333  0.000000  0.000000    0.00462963   3 t-inv F
  0.000000  0.333333  0.000000    0.00462963   3 t-inv F
  0.000000 -0.333333  0.000000    0.00462963   3 t-inv F
  0.000000  0.000000  0.333333    0.00462963   3 t-inv F
  0.000000  0.000000 -0.333333    0.00462963   3 t-inv F
  0.000000  0.500000  0.000000    0.00462963   4 t-inv F
  0.000000  0.000000  0.500000    0.00462963   4 t-inv F
 -0.166667 -0.166667  0.000000    0.00462963   5 t-inv F
  0.000000  0.166667  0.166667    0.00462963   5 t-inv F
  0.000000 -0.166667 -0.166667    0.00462963   5 t-inv F
  0.166667  0.000000  0.166667    0.00462963   5 t-inv F
 -0.166667  0.000000 -0.166667    0.00462963   5 t-inv F
 -0.166667  0.166667  0.000000    0.00462963   5 t-inv F
  0.166667 -0.166667  0.000000    0.00462963   5 t-inv F
 -0.166667  0.000000  0.166667    0.00462963   5 t-inv F
  0.166667  0.000000 -0.166667    0.00462963   5 t-inv F
  0.000000 -0.166667  0.166667    0.00462963   5 t-inv F
  0.000000  0.166667 -0.166667    0.00462963   5 t-inv F
 -0.333333 -0.166667  0.000000    0.00462963   6 t-inv F
  0.000000  0.333333  0.166667    0.00462963   6 t-inv F
  0.000000 -0.333333 -0.166667    0.00462963   6 t-inv F
  0.166667  0.000000  0.333333    0.00462963   6 t-inv F
 -0.166667  0.000000 -0.333333    0.00462963   6 t-inv F
 -0.166667  0.333333  0.000000    0.00462963   6 t-inv F
  0.166667 -0.333333  0.000000    0.00462963   6 t-inv F
 -0.333333  0.000000  0.166667    0.00462963   6 t-inv F
  0.333333  0.000000 -0.166667    0.00462963   6 t-inv F
  0.000000  0.166667  0.333333    0.00462963   6 t-inv F
  0.000000 -0.166667 -0.333333    0.00462963   6 t-inv F
  0.000000 -0.333333  0.166667    0.00462963   6 t-inv F
  0.000000  0.333333 -0.166667    0.00462963   6 t-inv F
 -0.166667  0.000000  0.333333    0.00462963   6 t-inv F
  0.166667  0.000000 -0.333333    0.00462963   6 t-inv F
  0.333333  0.000000  0.166667    0.00462963   6 t-inv F
 -0.333333  0.000000 -0.166667    0.00462963   6 t-inv F
  0.000000 -0.166667  0.333333    0.00462963   6 t-inv F
  0.000000  0.166667 -0.333333    0.00462963   6 t-inv F
  0.333333 -0.166667  0.000000    0.00462963   6 t-inv F
 -0.333333  0.166667  0.000000    0.00462963   6 t-inv F
  0.166667  0.333333  0.000000    0.00462963   6 t-inv F
 -0.166667 -0.333333  0.000000    0.00462963   6 t-inv F
 -0.500000 -0.166667  0.000000    0.00462963   7 t-inv F
  0.000000  0.500000  0.166667    0.00462963   7 t-inv F
  0.000000 -0.500000 -0.166667    0.00462963   7 t-inv F
  0.166667  0.000000  0.500000    0.00462963   7 t-inv F
 -0.166667  0.000000 -0.500000    0.00462963   7 t-inv F
 -0.166667  0.500000  0.000000    0.00462963   7 t-inv F
  0.166667 -0.500000  0.000000    0.00462963   7 t-inv F
 -0.500000  0.000000  0.166667    0.00462963   7 t-inv F
  0.500000  0.000000 -0.166667    0.00462963   7 t-inv F
  0.000000  0.166667  0.500000    0.00462963   7 t-inv F
  0.000000 -0.166667 -0.500000    0.00462963   7 t-inv F
 -0.333333 -0.333333  0.000000    0.00462963   8 t-inv F
  0.000000  0.333333  0.333333    0.00462963   8 t-inv F
  0.000000 -0.333333 -0.333333    0.00462963   8 t-inv F
  0.333333  0.000000  0.333333    0.00462963   8 t-inv F
 -0.333333  0.000000 -0.333333    0.00462963   8 t-inv F
 -0.333333  0.333333  0.000000    0.00462963   8 t-inv F
  0.333333 -0.333333  0.000000    0.00462963   8 t-inv F
 -0.333333  0.000000  0.333333    0.00462963   8 t-inv F
  0.333333  0.000000 -0.333333    0.00462963   8 t-inv F
  0.000000 -0.333333  0.333333    0.00462963   8 t-inv F
  0.000000  0.333333 -0.333333    0.00462963   8 t-inv F
 -0.500000 -0.333333  0.000000    0.00462963   9 t-inv F
  0.000000  0.500000  0.333333    0.00462963   9 t-inv F
  0.000000 -0.500000 -0.333333    0.00462963   9 t-inv F
  0.333333  0.000000  0.500000    0.00462963   9 t-inv F
 -0.333333  0.000000 -0.500000    0.00462963   9 t-inv F
 -0.333333  0.500000  0.000000    0.00462963   9 t-inv F
  0.333333 -0.500000  0.000000    0.00462963   9 t-inv F
 -0.500000  0.000000  0.333333    0.00462963   9 t-inv F
  0.500000  0.000000 -0.333333    0.00462963   9 t-inv F
  0.000000  0.333333  0.500000    0.00462963   9 t-inv F
  0.000000 -0.333333 -0.500000    0.00462963   9 t-inv F
  0.000000  0.500000  0.500000    0.00462963  10 t-inv F
  0.500000  0.000000  0.500000    0.00462963  10 t-inv F
 -0.166667 -0.166667 -0.166667    0.00462963  11 t-inv F
 -0.166667  0.166667  0.166667    0.00462963  11 t-inv F
  0.166667 -0.166667 -0.166667    0.00462963  11 t-inv F
 -0.166667 -0.166667  0.166667    0.00462963  11 t-inv F
  0.166667  0.166667 -0.166667    0.00462963  11 t-inv F
  0.166667 -0.166667  0.166667    0.00462963  11 t-inv F
 -0.166667  0.166667 -0.166667    0.00462963  11 t-inv F
 -0.333333 -0.166667 -0.166667    0.00462963  12 t-inv F
  0.166667  0.333333  0.166667    0.00462963  12 t-inv F
 -0.166667 -0.333333 -0.166667    0.00462963  12 t-inv F
  0.166667  0.166667  0.333333    0.00462963  12 t-inv F
 -0.166667 -0.166667 -0.333333    0.00462963  12 t-inv F
 -0.166667  0.333333  0.166667    0.00462963  12 t-inv F
  0.166667 -0.333333 -0.166667    0.00462963  12 t-inv F
 -0.333333  0.166667  0.166667    0.00462963  12 t-inv F
  0.333333 -0.166667 -0.166667    0.00462963  12 t-inv F
 -0.166667  0.166667  0.333333    0.00462963  12 t-inv F
  0.166667 -0.166667 -0.333333    0.00462963  12 t-inv F
 -0.333333 -0.166667  0.166667    0.00462963  12 t-inv F
  0.333333  0.166667 -0.166667    0.00462963  12 t-inv F
 -0.166667 -0.333333  0.166667    0.00462963  12 t-inv F
  0.166667  0.333333 -0.166667    0.00462963  12 t-inv F
 -0.166667 -0.166667  0.333333    0.00462963  12 t-inv F
  0.166667  0.166667 -0.333333    0.00462963  12 t-inv F
  0.166667 -0.333333  0.166667    0.00462963  12 t-inv F
 -0.166667  0.333333 -0.166667    0.00462963  12 t-inv F
  0.333333 -0.166667  0.166667    0.00462963  12 t-inv F
 -0.333333  0.166667 -0.166667    0.00462963  12 t-inv F
  0.166667 -0.166667  0.333333    0.00462963  12 t-inv F
 -0.166667  0.166667 -0.333333    0.00462963  12 t-inv F
 -0.500000 -0.166667 -0.166667    0.00462963  13 t-inv F
  0.166667  0.500000  0.166667    0.00462963  13 t-inv F
 -0.166667 -0.500000 -0.166667    0.00462963  13 t-inv F
  0.166667  0.166667  0.500000    0.00462963  13 t-inv F
 -0.166667 -0.166667 -0.500000    0.00462963  13 t-inv F
 -0.166667  0.500000  0.166667    0.00462963  13 t-inv F
  0.166667 -0.500000 -0.166667    0.00462963  13 t-inv F
 -0.166667  0.166667  0.500000    0.00462963  13 t-inv F
  0.166667 -0.166667 -0.500000    0.00462963  13 t-inv F
 -0.500000 -0.166667  0.166667    0.00462963  13 t-inv F
  0.500000  0.166667 -0.166667    0.00462963  13 t-inv F
 -0.333333 -0.333333 -0.166667    0.00462963  14 t-inv F
  0.166667  0.333333  0.333333    0.00462963  14 t-inv F
 -0.166667 -0.333333 -0.333333    0.00462963  14 t-inv F
  0.333333  0.166667  0.333333    0.00462963  14 t-inv F
 -0.333333 -0.166667 -0.333333    0.00462963  14 t-inv F
 -0.333333  0.333333  0.166667    0.00462963  14 t-inv F
  0.333333 -0.333333 -0.166667    0.00462963  14 t-inv F
 -0.333333  0.166667  0.333333    0.00462963  14 t-inv F
  0.333333 -0.166667 -0.333333    0.00462963  14 t-inv F
 -0.166667  0.333333  0.333333    0.00462963  14 t-inv F
  0.166667 -0.333333 -0.333333    0.00462963  14 t-inv F
 -0.333333 -0.333333  0.166667    0.00462963  14 t-inv F
  0.333333  0.333333 -0.166667    0.00462963  14 t-inv F
 -0.166667 -0.333333  0.333333    0.00462963  14 t-inv F
  0.166667  0.333333 -0.333333    0.00462963  14 t-inv F
 -0.333333 -0.166667  0.333333    0.00462963  14 t-inv F
  0.333333  0.166667 -0.333333    0.00462963  14 t-inv F
  0.333333 -0.333333  0.166667    0.00462963  14 t-inv F
 -0.333333  0.333333 -0.166667    0.00462963  14 t-inv F
  0.333333 -0.166667  0.333333    0.00462963  14 t-inv F
 -0.333333  0.166667 -0.333333    0.00462963  14 t-inv F
  0.166667 -0.333333  0.333333    0.00462963  14 t-inv F
 -0.166667  0.333333 -0.333333    0.00462963  14 t-inv F
 -0.500000 -0.333333 -0.166667    0.00462963  15 t-inv F
  0.166667  0.500000  0.333333    0.00462963  15 t-inv F
 -0.166667 -0.500000 -0.333333    0.00462963  15 t-inv F
  0.333333  0.166667  0.500000    0.00462963  15 t-inv F
 -0.333333 -0.166667 -0.500000    0.00462963  15 t-inv F
 -0.333333  0.500000  0.166667    0.00462963  15 t-inv F
  0.333333 -0.500000 -0.166667    0.00462963  15 t-inv F
 -0.500000  0.166667  0.333333    0.00462963  15 t-inv F
  0.500000 -0.166667 -0.333333    0.00462963  15 t-inv F
 -0.166667  0.333333  0.500000    0.00462963  15 t-inv F
  0.166667 -0.333333 -0.500000    0.00462963  15 t-inv F
 -0.500000 -0.333333  0.166667    0.00462963  15 t-inv F
  0.500000  0.333333 -0.166667    0.00462963  15 t-inv F
 -0.166667 -0.500000  0.333333    0.00462963  15 t-inv F
  0.166667  0.500000 -0.333333    0.00462963  15 t-inv F
  0.333333 -0.500000  0.166667    0.00462963  15 t-inv F
 -0.333333  0.500000 -0.166667    0.00462963  15 t-inv F
  0.500000 -0.166667  0.333333    0.00462963  15 t-inv F
 -0.500000  0.166667 -0.333333    0.00462963  15 t-inv F
  0.333333 -0.166667 -0.500000    0.00462963  15 t-inv F
 -0.333333  0.166667  0.500000    0.00462963  15 t-inv F
  0.166667  0.333333 -0.500000    0.00462963  15 t-inv F
 -0.166667 -0.333333  0.500000    0.00462963  15 t-inv F
 -0.500000 -0.500000 -0.166667    0.00462963  16 t-inv F
  0.166667  0.500000  0.500000    0.00462963  16 t-inv F
 -0.166667 -0.500000 -0.500000    0.00462963  16 t-inv F
  0.500000  0.166667  0.500000    0.00462963  16 t-inv F
 -0.500000 -0.166667 -0.500000    0.00462963  16 t-inv F
 -0.333333 -0.333333 -0.333333    0.00462963  17 t-inv F
 -0.333333  0.333333  0.333333    0.00462963  17 t-inv F
  0.333333 -0.333333 -0.333333    0.00462963  17 t-inv F
 -0.333333 -0.333333  0.333333    0.00462963  17 t-inv F
  0.333333  0.333333 -0.333333    0.00462963  17 t-inv F
  0.333333 -0.333333  0.333333    0.00462963  17 t-inv F
 -0.333333  0.333333 -0.333333    0.00462963  17 t-inv F
 -0.500000 -0.333333 -0.333333    0.00462963  18 t-inv F
  0.333333  0.500000  0.333333    0.00462963  18 t-inv F
 -0.333333 -0.500000 -0.333333    0.00462963  18 t-inv F
  0.333333  0.333333  0.500000    0.00462963  18 t-inv F
 -0.333333 -0.333333 -0.500000    0.00462963  18 t-inv F
 -0.333333  0.500000  0.333333    0.00462963  18 t-inv F
  0.333333 -0.500000 -0.333333    0.00462963  18 t-inv F
 -0.333333  0.333333  0.500000    0.00462963  18 t-inv F
  0.333333 -0.333333 -0.500000    0.00462963  18 t-inv F
 -0.500000 -0.333333  0.333333    0.00462963  18 t-inv F
  0.500000  0.333333 -0.333333    0.00462963  18 t-inv F
 -0.500000 -0.500000 -0.333333    0.00462963  19 t-inv F
  0.333333  0.500000  0.500000    0.00462963  19 t-inv F
 -0.333333 -0.500000 -0.500000    0.00462963  19 t-inv F
  0.500000  0.333333  0.500000    0.00462963  19 t-inv F
 -0.500000 -0.333333 -0.500000    0.00462963  19 t-inv F


--------------------------------------------------------------------------------------------------------




 Dimension of arrays:
   k-points           NKPTS =     20   k-points in BZ     NKDIM =     20   number of bands    NBANDS=     96
   number of dos      NEDOS =    301   number of ions     NIONS =      8
   non local maximal  LDIM  =      4   non local SUM 2l+1 LMDIM =      8
   total plane-waves  NPLWV = 110592
   max r-space proj   IRMAX =      1   max aug-charges    IRDMAX=  17440
   dimension x,y,z NGX =    48 NGY =   48 NGZ =   48
   dimension x,y,z NGXF=    96 NGYF=   96 NGZF=   96
   support grid    NGXF=    96 NGYF=   96 NGZF=   96
   ions per type =               4   4
   NGX,Y,Z   is equivalent  to a cutoff of  14.02, 14.02, 14.02 a.u.
   NGXF,Y,Z  is equivalent  to a cutoff of  28.04, 28.04, 28.04 a.u.

 SYSTEM =  unknown system
 POSCAR =  Na4 Cl4

 Startparameter for this run:
   NWRITE =      2    write-flag & timer
   PREC   = accura    normal or accurate (medium, high low for compatibility)
   ISTART =      0    job   : 0-new  1-cont  2-samecut
   ICHARG =      2    charge: 1-file 2-atom 10-const
   ISPIN  =      2    spin polarized calculation?
   LNONCOLLINEAR =      F non collinear calculations
   LSORBIT =      F    spin-orbit coupling
   INIWAV =      1    electr: 0-lowe 1-rand  2-diag
   LASPH  =      T    aspherical Exc in radial PAW
   METAGGA=      F    non-selfconsistent MetaGGA calc.

 Electronic Relaxation 1
   ENCUT  =  680.0 eV  49.98 Ry    7.07 a.u.  12.10 12.10 12.10*2*pi/ulx,y,z
   ENINI  =  680.0     initial cutoff
   ENAUG  = 1360.0 eV  augmentation charge cutoff
   NELM   =    200;   NELMIN=  2; NELMDL= -5     # of ELM steps
   EDIFF  = 0.1E-04   stopping-criterion for ELM
   LREAL  =      F    real-space projection
   NLSPLINE    = F    spline interpolate recip. space projectors
   LCOMPAT=      F    compatible to vasp.4.4
   GGA_COMPAT  = T    GGA compatible to vasp.4.4-vasp.4.6
   LMAXPAW     = -100 max onsite density
   LMAXMIX     =    2 max onsite mixed and CHGCAR
   VOSKOWN=      0    Vosko Wilk Nusair interpolation
   ROPT   =    0.00000   0.00000
 Ionic relaxation
   EDIFFG = -.2E-01   stopping-criterion for IOM
   NSW    =      1    number of steps for IOM
   NBLOCK =      1;   KBLOCK =      1    inner block; outer block
   IBRION =      8    ionic relax: 0-MD 1-quasi-New 2-CG
   NFREE  =      0    steps in history (QN), initial steepest desc. (CG)
   ISIF   =      3    stress and relaxation
   IWAVPR =     11    prediction:  0-non 1-charg 2-wave 3-comb
   ISYM   =      2    0-nonsym 1-usesym 2-fastsym
   LCORR  =      T    Harris-Foulkes like correction to forces

   POTIM  = 0.5000    time-step for ionic-motion
   TEIN   =    0.0    initial temperature
   TEBEG  =    0.0;   TEEND  =   0.0 temperature during run
   SMASS  =  -3.00    Nose mass-parameter (am)
   estimated Nose-frequenzy (Omega)   =  0.10E-29 period in steps = 0.13E+47 mass=  -0.740E-27a.u.
   SCALEE = 1.0000    scale energy and forces
   NPACO  =    256;   APACO  = 16.0  distance and # of slots for P.C.
   PSTRESS=    0.0 pullay stress

  Mass of Ions in am
   POMASS =  22.99 35.45
  Ionic Valenz
   ZVAL   =   7.00  7.00
  Atomic Wigner-Seitz radii
   RWIGS  =  -1.00 -1.00
  virtual crystal weights
   VCA    =   1.00  1.00
   NELECT =      56.0000    total number of electrons
   NUPDOWN=      -1.0000    fix difference up-down

 DOS related values:
   EMIN   =  10.00;   EMAX   =-10.00  energy-range for DOS
   EFERMI =   0.00
   ISMEAR =    -5;   SIGMA  =   0.20  broadening in eV -4-tet -1-fermi 0-gaus

 Electronic relaxation 2 (details)
   IALGO  =     68    algorithm
   LDIAG  =      T    sub-space diagonalisation (order eigenvalues)
   LSUBROT=      F    optimize rotation matrix (better conditioning)
   TURBO    =      0    0=normal 1=particle mesh
   IRESTART =      0    0=no restart 2=restart with 2 vectors
   NREBOOT  =      0    no. of reboots
   NMIN     =      0    reboot dimension
   EREF     =   0.00    reference energy to select bands
   IMIX   =      4    mixing-type and parameters
     AMIX     =   0.40;   BMIX     =  1.00
     AMIX_MAG =   1.60;   BMIX_MAG =  1.00
     AMIN     =   0.10
     WC   =   100.;   INIMIX=   1;  MIXPRE=   1;  MAXMIX= -45

 Intra band minimization:
   WEIMIN = 0.0010     energy-eigenvalue tresh-hold
   EBREAK =  0.26E-07  absolut break condition
   DEPER  =   0.30     relativ break condition

   TIME   =   0.40     timestep for ELM

  volume/ion in A,a.u.               =      23.05       155.54
  Fermi-wavevector in a.u.,A,eV,Ry     =   1.100431  2.079512 16.475939  1.210947
  Thomas-Fermi vector in A             =   2.236841

 Write flags
   LWAVE        =      F    write WAVECAR
   LDOWNSAMPLE  =      F    k-point downsampling of WAVECAR
   LCHARG       =      T    write CHGCAR
   LVTOT        =      T    write LOCPOT, total local potential
   LVHAR        =      F    write LOCPOT, Hartree potential only
   LELF         =      F    write electronic localiz. function (ELF)
   LORBIT       =     11    0 simple, 1 ext, 2 COOP (PROOUT), +10 PAW based schemes


 Dipole corrections
   LMONO  =      F    monopole corrections only (constant potential shift)
   LDIPOL =      F    correct potential (dipole corrections)
   IDIPOL =      0    1-x, 2-y, 3-z, 4-all directions
   EPSILON=  1.0000000 bulk dielectric constant

 Exchange correlation treatment:
   GGA     =    PS    GGA type
   LEXCH   =    14    internal setting for exchange type
   VOSKOWN=      0    Vosko Wilk Nusair interpolation
   LHFCALC =     F    Hartree Fock is set to
   LHFONE  =     F    Hartree Fock one center treatment
   AEXX    =    0.0000 exact exchange contribution

 Linear response parameters
   LEPSILON=     T    determine dielectric tensor
   LRPA    =     F    only Hartree local field effects (RPA)
   LNABLA  =     F    use nabla operator in PAW spheres
   LVEL    =     F    velocity operator in full k-point grid
   LINTERFAST=   F  fast interpolation
   KINTER  =     0    interpolate to denser k-point grid
   CSHIFT  =0.1000    complex shift for real part using Kramers Kronig
   OMEGAMAX=  -1.0    maximum frequency
   DEG_THRESHOLD= 0.2000000E-02 threshold for treating states as degnerate
   RTIME   =   -0.100 relaxation time in fs
  (WPLASMAI=    0.000 imaginary part of plasma frequency in eV, 0.658/RTIME)
   DFIELD  = 0.0000000 0.0000000 0.0000000 field for delta impulse in time

 Orbital magnetization related:
   ORBITALMAG=     F  switch on orbital magnetization
   LCHIMAG   =     F  perturbation theory with respect to B field
   DQ        =  0.001000  dq finite difference perturbation B field
   LLRAUG    =     F  two centre corrections for induced B field

 PEAD related settings:
   LPEAD      =     T    switch on PEAD
   IPEAD      =     4    finite difference order for dpsi/dk
   LCALCPOL   =     F    calculate macroscopic polarization
   LCALCEPS   =     F    calculate dielectric tensor
   EFIELD_PEAD=    0.0000    0.0000    0.0000
   SKIP_EDOTP =     F
   LRPA       =     F
   SKIP_SCF   =     F


--------------------------------------------------------------------------------------------------------


 linear response using symmetry
 charge density and potential will be updated during run
 spin polarized calculation
 RMM-DIIS sequential band-by-band and
  variant of blocked Davidson during initial phase
 perform sub-space diagonalisation
    before iterative eigenvector-optimisation
 modified Broyden-mixing scheme, WC =      100.0
 initial mixing is a Kerker type mixing with AMIX =  0.4000 and BMIX =      1.0000
 Hartree-type preconditioning will be used
 using additional bands           68
 reciprocal scheme for non local part
 use partial core corrections
 calculate Harris-corrections to forces
   (improved forces if not selfconsistent)
 use gradient corrections
 use of overlap-Matrix (Vanderbilt PP)
 Fermi weights with tetrahedron method with Bloechl corrections


--------------------------------------------------------------------------------------------------------


  energy-cutoff  :      680.00
  volume of cell :      184.38
      direct lattice vectors                 reciprocal lattice vectors
     5.691694000  0.000000000  0.000000000     0.175694617  0.000000000  0.000000000
     0.000000000  5.691694000  0.000000000     0.000000000  0.175694617  0.000000000
     0.000000000  0.000000000  5.691694000     0.000000000  0.000000000  0.175694617

  length of vectors
     5.691694000  5.691694000  5.691694000     0.175694617  0.175694617  0.175694617



 k-points in units of 2pi/SCALE and weight: read from INCAR
   0.00000000  0.00000000  0.00000000       0.005
   0.02928244  0.00000000  0.00000000       0.028
   0.05856487  0.00000000  0.00000000       0.028
   0.08784731  0.00000000  0.00000000       0.014
   0.02928244  0.02928244  0.00000000       0.056
   0.05856487  0.02928244  0.00000000       0.111
   0.08784731  0.02928244  0.00000000       0.056
   0.05856487  0.05856487  0.00000000       0.056
   0.08784731  0.05856487  0.00000000       0.056
   0.08784731  0.08784731  0.00000000       0.014
   0.02928244  0.02928244  0.02928244       0.037
   0.05856487  0.02928244  0.02928244       0.111
   0.08784731  0.02928244  0.02928244       0.056
   0.05856487  0.05856487  0.02928244       0.111
   0.08784731  0.05856487  0.02928244       0.111
   0.08784731  0.08784731  0.02928244       0.028
   0.05856487  0.05856487  0.05856487       0.037
   0.08784731  0.05856487  0.05856487       0.056
   0.08784731  0.08784731  0.05856487       0.028
   0.08784731  0.08784731  0.08784731       0.005

 k-points in reciprocal lattice and weights: read from INCAR
   0.00000000  0.00000000  0.00000000       0.005
   0.16666667  0.00000000  0.00000000       0.028
   0.33333333  0.00000000  0.00000000       0.028
   0.50000000  0.00000000  0.00000000       0.014
   0.16666667  0.16666667  0.00000000       0.056
   0.33333333  0.16666667  0.00000000       0.111
   0.50000000  0.16666667  0.00000000       0.056
   0.33333333  0.33333333  0.00000000       0.056
   0.50000000  0.33333333  0.00000000       0.056
   0.50000000  0.50000000  0.00000000       0.014
   0.16666667  0.16666667  0.16666667       0.037
   0.33333333  0.16666667  0.16666667       0.111
   0.50000000  0.16666667  0.16666667       0.056
   0.33333333  0.33333333  0.16666667       0.111
   0.50000000  0.33333333  0.16666667       0.111
   0.50000000  0.50000000  0.16666667       0.028
   0.33333333  0.33333333  0.33333333       0.037
   0.50000000  0.33333333  0.33333333       0.056
   0.50000000  0.50000000  0.33333333       0.028
   0.50000000  0.50000000  0.50000000       0.005

 position of ions in fractional coordinates (direct lattice)
   0.00000000  0.00000000  0.00000000
   0.00000000  0.50000000  0.50000000
   0.50000000  0.00000000  0.50000000
   0.50000000  0.50000000  0.00000000
   0.50000000  0.00000000  0.00000000
   0.50000000  0.50000000  0.50000000
   0.00000000  0.00000000  0.50000000
   0.00000000  0.50000000  0.00000000

 position of ions in cartesian coordinates  (Angst):
   0.00000000  0.00000000  0.00000000
   0.00000000  2.84584700  2.84584700
   2.84584700  0.00000000  2.84584700
   2.84584700  2.84584700  0.00000000
   2.84584700  0.00000000  0.00000000
   2.84584700  2.84584700  2.84584700
   0.00000000  0.00000000  2.84584700
   0.00000000  2.84584700  0.00000000



--------------------------------------------------------------------------------------------------------


 k-point   1 :   0.0000 0.0000 0.0000  plane waves:    7441
 k-point   2 :   0.1667 0.0000 0.0000  plane waves:    7396
 k-point   3 :   0.3333 0.0000 0.0000  plane waves:    7420
 k-point   4 :   0.5000 0.0000 0.0000  plane waves:    7464
 k-point   5 :   0.1667 0.1667 0.0000  plane waves:    7405
 k-point   6 :   0.3333 0.1667 0.0000  plane waves:    7416
 k-point   7 :   0.5000 0.1667 0.0000  plane waves:    7440
 k-point   8 :   0.3333 0.3333 0.0000  plane waves:    7437
 k-point   9 :   0.5000 0.3333 0.0000  plane waves:    7440
 k-point  10 :   0.5000 0.5000 0.0000  plane waves:    7380
 k-point  11 :   0.1667 0.1667 0.1667  plane waves:    7421
 k-point  12 :   0.3333 0.1667 0.1667  plane waves:    7414
 k-point  13 :   0.5000 0.1667 0.1667  plane waves:    7424
 k-point  14 :   0.3333 0.3333 0.1667  plane waves:    7422
 k-point  15 :   0.5000 0.3333 0.1667  plane waves:    7432
 k-point  16 :   0.5000 0.5000 0.1667  plane waves:    7404
 k-point  17 :   0.3333 0.3333 0.3333  plane waves:    7424
 k-point  18 :   0.5000 0.3333 0.3333  plane waves:    7442
 k-point  19 :   0.5000 0.5000 0.3333  plane waves:    7448
 k-point  20 :   0.5000 0.5000 0.5000  plane waves:    7400

 maximum and minimum number of plane-waves per node :      7464     7380

 maximum number of plane-waves:      7464
 maximum index in each direction:
   IXMAX=   12   IYMAX=   12   IZMAX=   12
   IXMIN=  -12   IYMIN=  -12   IZMIN=  -12


 serial   3D FFT for wavefunctions
 parallel 3D FFT for charge:
    minimum data exchange during FFTs selected (reduces bandwidth)


 total amount of memory used by VASP MPI-rank0    65507. kBytes
=======================================================================

   base      :      30000. kBytes
   nonl-proj :      20127. kBytes
   fftplans  :        808. kBytes
   grid      :       9670. kBytes
   one-center:         49. kBytes
   wavefun   :       4853. kBytes

     INWAV:  cpu time    0.0001: real time    0.0007
 Broyden mixing: mesh for mixing (old mesh)
   NGX = 25   NGY = 25   NGZ = 25
  (NGX  = 96   NGY  = 96   NGZ  = 96)
  gives a total of  15625 points

 initial charge density was supplied:
 charge density of overlapping atoms calculated
 number of electron      56.0000000 magnetization       4.8000000
 keeping initial charge density in first step


--------------------------------------------------------------------------------------------------------


 Maximum index for augmentation-charges          793 (set IRDMAX)


--------------------------------------------------------------------------------------------------------


 First call to EWALD:  gamma=   0.311
 Maximum number of real-space cells 3x 3x 3
 Maximum number of reciprocal cells 3x 3x 3

    FEWALD:  cpu time    0.0033: real time    0.0033


--------------------------------------- Iteration      1(   1)  ---------------------------------------


    POTLOK:  cpu time    0.0271: real time    0.0316
    SETDIJ:  cpu time    0.2048: real time    0.2051
     EDDAV:  cpu time    3.2653: real time    3.2656
 BZINTS: Fermi energy:    5.428071;   56.000000 electrons
         Band energy:-0.482191E+03;  BLOECHL correction:   -0.011083
       DOS:  cpu time    0.0349: real time    0.0352
    --------------------------------------------
      LOOP:  cpu time    3.5322: real time    3.5375

 eigenvalue-minimisations  :  7680
 total energy-change (2. order) : 0.1661918E+03  (-0.3634131E+04)
 number of electron      56.0000000 magnetization       4.8000000
 augmentation part       56.0000000 magnetization       4.8000000

 Free energy of the ion-electron system (eV)
  ---------------------------------------------------
  alpha Z        PSCENC =        89.56934524
  Ewald energy   TEWEN  =     -2813.87945180
  -Hartree energ DENC   =     -1148.58314808
  -exchange      EXHF   =         0.00000000
  -V(xc)+E(xc)   XCENC  =       182.03413374
  PAW double counting   =      3307.95688671    -3660.34697251
  entropy T*S    EENTRO =         0.00000000
  eigenvalues    EBANDS =      -482.19058282
  atomic energy  EATOM  =      4691.63160629
  Solvation  Ediel_sol  =         0.00000000
  ---------------------------------------------------
  free energy    TOTEN  =       166.19181676 eV

  energy without entropy =      166.19181676  energy(sigma->0) =      166.19181676


--------------------------------------------------------------------------------------------------------




--------------------------------------- Iteration      1(   2)  ---------------------------------------


     EDDAV:  cpu time    6.4896: real time    6.4897
 BZINTS: Fermi energy:   -1.533768;   56.000000 electrons
         Band energy:-0.674319E+03;  BLOECHL correction:   -0.000000
       DOS:  cpu time    0.0188: real time    0.0188
    --------------------------------------------
      LOOP:  cpu time    6.5083: real time    6.5084

 eigenvalue-minimisations  : 11520
 total energy-change (2. order) :-0.1921283E+03  (-0.1920951E+03)
 number of electron      56.0000000 magnetization       4.8000000
 augmentation part       56.0000000 magnetization       4.8000000

 Free energy of the ion-electron system (eV)
  ---------------------------------------------------
  alpha Z        PSCENC =        89.56934524
  Ewald energy   TEWEN  =     -2813.87945180
  -Hartree energ DENC   =     -1148.58314808
  -exchange      EXHF   =         0.00000000
  -V(xc)+E(xc)   XCENC  =       182.03413374
  PAW double counting   =      3307.95688671    -3660.34697251
  entropy T*S    EENTRO =         0.00000000
  eigenvalues    EBANDS =      -674.31886713
  atomic energy  EATOM  =      4691.63160629
  Solvation  Ediel_sol  =         0.00000000
  ---------------------------------------------------
  free energy    TOTEN  =       -25.93646755 eV

  energy without entropy =      -25.93646755  energy(sigma->0) =      -25.93646755


--------------------------------------------------------------------------------------------------------




--------------------------------------- Iteration      1(   3)  ---------------------------------------


     EDDAV:  cpu time    3.2981: real time    3.2989
 BZINTS: Fermi energy:   -1.591366;   56.000000 electrons
         Band energy:-0.676162E+03;  BLOECHL correction:    0.000000
       DOS:  cpu time    0.0188: real time    0.0188
    --------------------------------------------
      LOOP:  cpu time    3.3169: real time    3.3177

 eigenvalue-minimisations  :  7680
 total energy-change (2. order) :-0.1842890E+01  (-0.1842890E+01)
 number of electron      56.0000000 magnetization       4.8000000
 augmentation part       56.0000000 magnetization       4.8000000

 Free energy of the ion-electron system (eV)
  ---------------------------------------------------
  alpha Z        PSCENC =        89.56934524
  Ewald energy   TEWEN  =     -2813.87945180
  -Hartree energ DENC   =     -1148.58314808
  -exchange      EXHF   =         0.00000000
  -V(xc)+E(xc)   XCENC  =       182.03413374
  PAW double counting   =      3307.95688671    -3660.34697251
  entropy T*S    EENTRO =         0.00000000
  eigenvalues    EBANDS =      -676.16175686
  atomic energy  EATOM  =      4691.63160629
  Solvation  Ediel_sol  =         0.00000000
  ---------------------------------------------------
  free energy    TOTEN  =       -27.77935728 eV

  energy without entropy =      -27.77935728  energy(sigma->0) =      -27.77935728


--------------------------------------------------------------------------------------------------------




--------------------------------------- Iteration      1(   4)  ---------------------------------------


     EDDAV:  cpu time   11.7548: real time   11.7544
 BZINTS: Fermi energy:   -1.591599;   56.000000 electrons
         Band energy:-0.676167E+03;  BLOECHL correction:   -0.000000
       DOS:  cpu time    0.0196: real time    0.0196
    --------------------------------------------
      LOOP:  cpu time   11.7745: real time   11.7741

 eigenvalue-minimisations  : 15264
 total energy-change (2. order) :-0.4879965E-02  (-0.4879965E-02)
 number of electron      56.0000000 magnetization       4.8000000
 augmentation part       56.0000000 magnetization       4.8000000

 Free energy of the ion-electron system (eV)
  ---------------------------------------------------
  alpha Z        PSCENC =        89.56934524
  Ewald energy   TEWEN  =     -2813.87945180
  -Hartree energ DENC   =     -1148.58314808
  -exchange      EXHF   =         0.00000000
  -V(xc)+E(xc)   XCENC  =       182.03413374
  PAW double counting   =      3307.95688671    -3660.34697251
  entropy T*S    EENTRO =         0.00000000
  eigenvalues    EBANDS =      -676.16663683
  atomic energy  EATOM  =      4691.63160629
  Solvation  Ediel_sol  =         0.00000000
  ---------------------------------------------------
  free energy    TOTEN  =       -27.78423725 eV

  energy without entropy =      -27.78423725  energy(sigma->0) =      -27.78423725


--------------------------------------------------------------------------------------------------------




--------------------------------------- Iteration      1(   5)  ---------------------------------------


     EDDAV:  cpu time    3.3693: real time    3.3695
 BZINTS: Fermi energy:   -1.591626;   56.000000 electrons
         Band energy:-0.676167E+03;  BLOECHL correction:   -0.000000
       DOS:  cpu time    0.0205: real time    0.0205
    CHARGE:  cpu time    0.0963: real time    0.0968
    MIXING:  cpu time    0.0015: real time    0.0022
    --------------------------------------------
      LOOP:  cpu time    3.4876: real time    3.4890

 eigenvalue-minimisations  :  7680
 total energy-change (2. order) :-0.1286744E-06  (-0.1281462E-06)
 number of electron      55.9999988 magnetization       0.5815747
 augmentation part       13.9427988 magnetization       0.6326595

 Broyden mixing:
  rms(total) = 0.10441E+01    rms(broyden)= 0.10440E+01
  rms(prec ) = 0.12905E+01
  weight for this iteration     100.00

 Free energy of the ion-electron system (eV)
  ---------------------------------------------------
  alpha Z        PSCENC =        89.56934524
  Ewald energy   TEWEN  =     -2813.87945180
  -Hartree energ DENC   =     -1148.58314808
  -exchange      EXHF   =         0.00000000
  -V(xc)+E(xc)   XCENC  =       182.03413374
  PAW double counting   =      3307.95688671    -3660.34697251
  entropy T*S    EENTRO =         0.00000000
  eigenvalues    EBANDS =      -676.16663696
  atomic energy  EATOM  =      4691.63160629
  Solvation  Ediel_sol  =         0.00000000
  ---------------------------------------------------
  free energy    TOTEN  =       -27.78423738 eV

  energy without entropy =      -27.78423738  energy(sigma->0) =      -27.78423738


--------------------------------------------------------------------------------------------------------




--------------------------------------- Iteration      1(   6)  ---------------------------------------


    POTLOK:  cpu time    0.0196: real time    0.0207
    SETDIJ:  cpu time    0.2062: real time    0.2062
    EDDIAG:  cpu time    0.6318: real time    0.6338
  RMM-DIIS:  cpu time    0.7800: real time    0.7797
    ORTHCH:  cpu time    0.1066: real time    0.1066
 BZINTS: Fermi energy:   -1.272685;   56.000000 electrons
         Band energy:-0.669033E+03;  BLOECHL correction:   -0.000000
       DOS:  cpu time    0.0206: real time    0.0206
    CHARGE:  cpu time    0.1343: real time    0.1343
    MIXING:  cpu time    0.0014: real time    0.0016
    --------------------------------------------
      LOOP:  cpu time    1.9006: real time    1.9036

 eigenvalue-minimisations  :  7680
 total energy-change (2. order) : 0.1132047E-02  (-0.5129265E-01)
 number of electron      55.9999988 magnetization       0.1447566
 augmentation part       14.0535748 magnetization       0.1097459

 Broyden mixing:
  rms(total) = 0.44381E+00    rms(broyden)= 0.44381E+00
  rms(prec ) = 0.54830E+00
  weight for this iteration     100.00

 eigenvalues of (default mixing * dielectric matrix)
  average eigenvalue GAMMA=   0.7403
  0.7403

 Free energy of the ion-electron system (eV)
  ---------------------------------------------------
  alpha Z        PSCENC =        89.56934524
  Ewald energy   TEWEN  =     -2813.87945180
  -Hartree energ DENC   =     -1157.79007808
  -exchange      EXHF   =         0.00000000
  -V(xc)+E(xc)   XCENC  =       182.97034751
  PAW double counting   =      3409.33721307    -3760.58940184
  entropy T*S    EENTRO =         0.00000000
  eigenvalues    EBANDS =      -669.03268571
  atomic energy  EATOM  =      4691.63160629
  Solvation  Ediel_sol  =         0.00000000
  ---------------------------------------------------
  free energy    TOTEN  =       -27.78310533 eV

  energy without entropy =      -27.78310533  energy(sigma->0) =      -27.78310533


--------------------------------------------------------------------------------------------------------




--------------------------------------- Iteration      1(   7)  ---------------------------------------


    POTLOK:  cpu time    0.0316: real time    0.0322
    SETDIJ:  cpu time    0.2065: real time    0.2065
    EDDIAG:  cpu time    0.6151: real time    0.6150
  RMM-DIIS:  cpu time    0.7846: real time    0.7843
    ORTHCH:  cpu time    0.0973: real time    0.0972
 BZINTS: Fermi energy:   -1.101509;   56.000000 electrons
         Band energy:-0.667181E+03;  BLOECHL correction:    0.000000
       DOS:  cpu time    0.0188: real time    0.0188
    CHARGE:  cpu time    0.1168: real time    0.1168
    MIXING:  cpu time    0.0007: real time    0.0007
    --------------------------------------------
      LOOP:  cpu time    1.8715: real time    1.8715

 eigenvalue-minimisations  :  7789
 total energy-change (2. order) :-0.1591821E+00  (-0.9884853E-02)
 number of electron      55.9999988 magnetization      -0.0555735
 augmentation part       14.0875904 magnetization      -0.0402428

 Broyden mixing:
  rms(total) = 0.23144E+00    rms(broyden)= 0.23144E+00
  rms(prec ) = 0.29777E+00
  weight for this iteration     100.00

 eigenvalues of (default mixing * dielectric matrix)
  average eigenvalue GAMMA=   0.8567
  0.9788  0.7347

 Free energy of the ion-electron system (eV)
  ---------------------------------------------------
  alpha Z        PSCENC =        89.56934524
  Ewald energy   TEWEN  =     -2813.87945180
  -Hartree energ DENC   =     -1160.01809609
  -exchange      EXHF   =         0.00000000
  -V(xc)+E(xc)   XCENC  =       183.24844146
  PAW double counting   =      3485.11663052    -3836.42954407
  entropy T*S    EENTRO =         0.00000000
  eigenvalues    EBANDS =      -667.18121897
  atomic energy  EATOM  =      4691.63160629
  Solvation  Ediel_sol  =         0.00000000
  ---------------------------------------------------
  free energy    TOTEN  =       -27.94228743 eV

  energy without entropy =      -27.94228743  energy(sigma->0) =      -27.94228743


--------------------------------------------------------------------------------------------------------




--------------------------------------- Iteration      1(   8)  ---------------------------------------


    POTLOK:  cpu time    0.0259: real time    0.0270
    SETDIJ:  cpu time    0.2059: real time    0.2059
    EDDIAG:  cpu time    0.6136: real time    0.6135
  RMM-DIIS:  cpu time    0.7681: real time    0.7678
    ORTHCH:  cpu time    0.0971: real time    0.0971
 BZINTS: Fermi energy:   -0.982726;   56.000000 electrons
         Band energy:-0.666350E+03;  BLOECHL correction:    0.000000
       DOS:  cpu time    0.0196: real time    0.0196
    CHARGE:  cpu time    0.1178: real time    0.1177
    MIXING:  cpu time    0.0007: real time    0.0007
    --------------------------------------------
      LOOP:  cpu time    1.8486: real time    1.8494

 eigenvalue-minimisations  :  7681
 total energy-change (2. order) :-0.1258986E-01  (-0.3685336E-02)
 number of electron      55.9999988 magnetization      -0.0006601
 augmentation part       14.1067046 magnetization      -0.0047493

 Broyden mixing:
  rms(total) = 0.13033E+00    rms(broyden)= 0.13033E+00
  rms(prec ) = 0.15898E+00
  weight for this iteration     100.00

 eigenvalues of (default mixing * dielectric matrix)
  average eigenvalue GAMMA=   1.2739
  2.2022  0.9015  0.7181

 Free energy of the ion-electron system (eV)
  ---------------------------------------------------
  alpha Z        PSCENC =        89.56934524
  Ewald energy   TEWEN  =     -2813.87945180
  -Hartree energ DENC   =     -1160.93136715
  -exchange      EXHF   =         0.00000000
  -V(xc)+E(xc)   XCENC  =       183.57982126
  PAW double counting   =      3583.04815097    -3934.62286106
  entropy T*S    EENTRO =         0.00000000
  eigenvalues    EBANDS =      -666.35012105
  atomic energy  EATOM  =      4691.63160629
  Solvation  Ediel_sol  =         0.00000000
  ---------------------------------------------------
  free energy    TOTEN  =       -27.95487730 eV

  energy without entropy =      -27.95487730  energy(sigma->0) =      -27.95487730


--------------------------------------------------------------------------------------------------------




--------------------------------------- Iteration      1(   9)  ---------------------------------------


    POTLOK:  cpu time    0.0249: real time    0.0264
    SETDIJ:  cpu time    0.2059: real time    0.2058
    EDDIAG:  cpu time    0.6292: real time    0.6290
  RMM-DIIS:  cpu time    0.7677: real time    0.7674
    ORTHCH:  cpu time    0.0995: real time    0.0995
 BZINTS: Fermi energy:   -0.940309;   56.000000 electrons
         Band energy:-0.666759E+03;  BLOECHL correction:   -0.000000
       DOS:  cpu time    0.0197: real time    0.0197
    CHARGE:  cpu time    0.1169: real time    0.1169
    MIXING:  cpu time    0.0006: real time    0.0006
    --------------------------------------------
      LOOP:  cpu time    1.8644: real time    1.8653

 eigenvalue-minimisations  :  7682
 total energy-change (2. order) :-0.9470711E-02  (-0.1161039E-02)
 number of electron      55.9999988 magnetization       0.0091484
 augmentation part       14.1085862 magnetization       0.0081291

 Broyden mixing:
  rms(total) = 0.36560E-01    rms(broyden)= 0.36560E-01
  rms(prec ) = 0.44089E-01
  weight for this iteration     100.00

 eigenvalues of (default mixing * dielectric matrix)
  average eigenvalue GAMMA=   1.2968
  2.6282  1.0565  0.8045  0.6979

 Free energy of the ion-electron system (eV)
  ---------------------------------------------------
  alpha Z        PSCENC =        89.56934524
  Ewald energy   TEWEN  =     -2813.87945180
  -Hartree energ DENC   =     -1160.30425126
  -exchange      EXHF   =         0.00000000
  -V(xc)+E(xc)   XCENC  =       183.74325107
  PAW double counting   =      3667.10589363    -4019.07184949
  entropy T*S    EENTRO =         0.00000000
  eigenvalues    EBANDS =      -666.75889167
  atomic energy  EATOM  =      4691.63160629
  Solvation  Ediel_sol  =         0.00000000
  ---------------------------------------------------
  free energy    TOTEN  =       -27.96434801 eV

  energy without entropy =      -27.96434801  energy(sigma->0) =      -27.96434801


--------------------------------------------------------------------------------------------------------




--------------------------------------- Iteration      1(  10)  ---------------------------------------


    POTLOK:  cpu time    0.0244: real time    0.0268
    SETDIJ:  cpu time    0.2058: real time    0.2058
    EDDIAG:  cpu time    0.6130: real time    0.6129
  RMM-DIIS:  cpu time    0.7673: real time    0.7668
    ORTHCH:  cpu time    0.0972: real time    0.0971
 BZINTS: Fermi energy:   -0.942253;   56.000000 electrons
         Band energy:-0.667015E+03;  BLOECHL correction:    0.000000
       DOS:  cpu time    0.0205: real time    0.0205
    CHARGE:  cpu time    0.1165: real time    0.1165
    MIXING:  cpu time    0.0008: real time    0.0008
    --------------------------------------------
      LOOP:  cpu time    1.8455: real time    1.8472

 eigenvalue-minimisations  :  7686
 total energy-change (2. order) :-0.3577839E-02  (-0.2601508E-03)
 number of electron      55.9999988 magnetization       0.0007614
 augmentation part       14.1075951 magnetization       0.0028686

 Broyden mixing:
  rms(total) = 0.13906E-01    rms(broyden)= 0.13906E-01
  rms(prec ) = 0.15850E-01
  weight for this iteration     100.00

 eigenvalues of (default mixing * dielectric matrix)
  average eigenvalue GAMMA=   1.2073
  2.4580  1.2348  0.9478  0.7530  0.6428

 Free energy of the ion-electron system (eV)
  ---------------------------------------------------
  alpha Z        PSCENC =        89.56934524
  Ewald energy   TEWEN  =     -2813.87945180
  -Hartree energ DENC   =     -1159.96249276
  -exchange      EXHF   =         0.00000000
  -V(xc)+E(xc)   XCENC  =       183.76577371
  PAW double counting   =      3681.66196387    -4033.73937820
  entropy T*S    EENTRO =         0.00000000
  eigenvalues    EBANDS =      -667.01529219
  atomic energy  EATOM  =      4691.63160629
  Solvation  Ediel_sol  =         0.00000000
  ---------------------------------------------------
  free energy    TOTEN  =       -27.96792585 eV

  energy without entropy =      -27.96792585  energy(sigma->0) =      -27.96792585


--------------------------------------------------------------------------------------------------------




--------------------------------------- Iteration      1(  11)  ---------------------------------------


    POTLOK:  cpu time    0.0251: real time    0.0262
    SETDIJ:  cpu time    0.2065: real time    0.2065
    EDDIAG:  cpu time    0.6289: real time    0.6288
  RMM-DIIS:  cpu time    0.7762: real time    0.7759
    ORTHCH:  cpu time    0.0977: real time    0.0977
 BZINTS: Fermi energy:   -0.941948;   56.000000 electrons
         Band energy:-0.667024E+03;  BLOECHL correction:    0.000000
       DOS:  cpu time    0.0189: real time    0.0189
    CHARGE:  cpu time    0.1163: real time    0.1163
    MIXING:  cpu time    0.0007: real time    0.0007
    --------------------------------------------
      LOOP:  cpu time    1.8703: real time    1.8709

 eigenvalue-minimisations  :  7740
 total energy-change (2. order) :-0.4170091E-03  (-0.4469149E-04)
 number of electron      55.9999988 magnetization      -0.0036687
 augmentation part       14.1072525 magnetization      -0.0041419

 Broyden mixing:
  rms(total) = 0.89438E-02    rms(broyden)= 0.89438E-02
  rms(prec ) = 0.10590E-01
  weight for this iteration     100.00

 eigenvalues of (default mixing * dielectric matrix)
  average eigenvalue GAMMA=   1.1825
  2.3075  1.3582  1.0692  0.9632  0.7609  0.6359

 Free energy of the ion-electron system (eV)
  ---------------------------------------------------
  alpha Z        PSCENC =        89.56934524
  Ewald energy   TEWEN  =     -2813.87945180
  -Hartree energ DENC   =     -1159.93357995
  -exchange      EXHF   =         0.00000000
  -V(xc)+E(xc)   XCENC  =       183.76713173
  PAW double counting   =      3678.27917255    -4030.37844487
  entropy T*S    EENTRO =         0.00000000
  eigenvalues    EBANDS =      -667.02412205
  atomic energy  EATOM  =      4691.63160629
  Solvation  Ediel_sol  =         0.00000000
  ---------------------------------------------------
  free energy    TOTEN  =       -27.96834286 eV

  energy without entropy =      -27.96834286  energy(sigma->0) =      -27.96834286


--------------------------------------------------------------------------------------------------------




--------------------------------------- Iteration      1(  12)  ---------------------------------------


    POTLOK:  cpu time    0.0249: real time    0.0270
    SETDIJ:  cpu time    0.2063: real time    0.2063
    EDDIAG:  cpu time    0.6097: real time    0.6095
  RMM-DIIS:  cpu time    0.7660: real time    0.7656
    ORTHCH:  cpu time    0.0974: real time    0.0974
 BZINTS: Fermi energy:   -0.939769;   56.000000 electrons
         Band energy:-0.666998E+03;  BLOECHL correction:    0.000000
       DOS:  cpu time    0.0189: real time    0.0189
    CHARGE:  cpu time    0.1167: real time    0.1167
    MIXING:  cpu time    0.0009: real time    0.0009
    --------------------------------------------
      LOOP:  cpu time    1.8409: real time    1.8422

 eigenvalue-minimisations  :  7687
 total energy-change (2. order) :-0.1862455E-03  (-0.1858954E-04)
 number of electron      55.9999988 magnetization      -0.0017605
 augmentation part       14.1069359 magnetization      -0.0015082

 Broyden mixing:
  rms(total) = 0.30718E-02    rms(broyden)= 0.30718E-02
  rms(prec ) = 0.40478E-02
  weight for this iteration     100.00

 eigenvalues of (default mixing * dielectric matrix)
  average eigenvalue GAMMA=   1.4164
  2.7895  2.7895  1.2348  0.9380  0.7665  0.7665  0.6299

 Free energy of the ion-electron system (eV)
  ---------------------------------------------------
  alpha Z        PSCENC =        89.56934524
  Ewald energy   TEWEN  =     -2813.87945180
  -Hartree energ DENC   =     -1159.92859587
  -exchange      EXHF   =         0.00000000
  -V(xc)+E(xc)   XCENC  =       183.77172849
  PAW double counting   =      3671.84438375    -4023.97906448
  entropy T*S    EENTRO =         0.00000000
  eigenvalues    EBANDS =      -666.99848072
  atomic energy  EATOM  =      4691.63160629
  Solvation  Ediel_sol  =         0.00000000
  ---------------------------------------------------
  free energy    TOTEN  =       -27.96852910 eV

  energy without entropy =      -27.96852910  energy(sigma->0) =      -27.96852910


--------------------------------------------------------------------------------------------------------




--------------------------------------- Iteration      1(  13)  ---------------------------------------


    POTLOK:  cpu time    0.0264: real time    0.0271
    SETDIJ:  cpu time    0.2065: real time    0.2065
    EDDIAG:  cpu time    0.6094: real time    0.6093
  RMM-DIIS:  cpu time    0.7683: real time    0.7679
    ORTHCH:  cpu time    0.0966: real time    0.0966
 BZINTS: Fermi energy:   -0.939093;   56.000000 electrons
         Band energy:-0.667018E+03;  BLOECHL correction:    0.000000
       DOS:  cpu time    0.0189: real time    0.0189
    CHARGE:  cpu time    0.1165: real time    0.1165
    MIXING:  cpu time    0.0009: real time    0.0008
    --------------------------------------------
      LOOP:  cpu time    1.8434: real time    1.8435

 eigenvalue-minimisations  :  7463
 total energy-change (2. order) :-0.6591891E-04  (-0.7621499E-05)
 number of electron      55.9999988 magnetization      -0.0002473
 augmentation part       14.1069704 magnetization      -0.0003214

 Broyden mixing:
  rms(total) = 0.11977E-02    rms(broyden)= 0.11977E-02
  rms(prec ) = 0.12263E-02
  weight for this iteration     100.00

 eigenvalues of (default mixing * dielectric matrix)
  average eigenvalue GAMMA=   1.3406
  2.7881  2.7881  1.2287  0.9140  0.9140  0.6254  0.7567  0.7094

 Free energy of the ion-electron system (eV)
  ---------------------------------------------------
  alpha Z        PSCENC =        89.56934524
  Ewald energy   TEWEN  =     -2813.87945180
  -Hartree energ DENC   =     -1159.89846977
  -exchange      EXHF   =         0.00000000
  -V(xc)+E(xc)   XCENC  =       183.77500446
  PAW double counting   =      3670.01923474    -4022.16836231
  entropy T*S    EENTRO =         0.00000000
  eigenvalues    EBANDS =      -667.01750188
  atomic energy  EATOM  =      4691.63160629
  Solvation  Ediel_sol  =         0.00000000
  ---------------------------------------------------
  free energy    TOTEN  =       -27.96859502 eV

  energy without entropy =      -27.96859502  energy(sigma->0) =      -27.96859502


--------------------------------------------------------------------------------------------------------




--------------------------------------- Iteration      1(  14)  ---------------------------------------


    POTLOK:  cpu time    0.0254: real time    0.0276
    SETDIJ:  cpu time    0.2063: real time    0.2063
    EDDIAG:  cpu time    0.6225: real time    0.6223
  RMM-DIIS:  cpu time    0.7661: real time    0.7659
    ORTHCH:  cpu time    0.0987: real time    0.0987
 BZINTS: Fermi energy:   -0.939413;   56.000000 electrons
         Band energy:-0.667028E+03;  BLOECHL correction:   -0.000000
       DOS:  cpu time    0.0214: real time    0.0213
    --------------------------------------------
      LOOP:  cpu time    1.7403: real time    1.7420

 eigenvalue-minimisations  :  6749
 total energy-change (2. order) :-0.2139382E-05  (-0.7723374E-06)
 number of electron      55.9999988 magnetization      -0.0002473
 augmentation part       14.1069704 magnetization      -0.0003214

 Free energy of the ion-electron system (eV)
  ---------------------------------------------------
  alpha Z        PSCENC =        89.56934524
  Ewald energy   TEWEN  =     -2813.87945180
  -Hartree energ DENC   =     -1159.89188745
  -exchange      EXHF   =         0.00000000
  -V(xc)+E(xc)   XCENC  =       183.77499082
  PAW double counting   =      3670.82211656    -4022.96777292
  entropy T*S    EENTRO =         0.00000000
  eigenvalues    EBANDS =      -667.02754389
  atomic energy  EATOM  =      4691.63160629
  Solvation  Ediel_sol  =         0.00000000
  ---------------------------------------------------
  free energy    TOTEN  =       -27.96859716 eV

  energy without entropy =      -27.96859716  energy(sigma->0) =      -27.96859716


--------------------------------------------------------------------------------------------------------




 average (electrostatic) potential at core
  the test charge radii are     0.9254  0.9406
  (the norm of the test charge is              1.0000)
       1 -47.3277       2 -47.3277       3 -47.3277       4 -47.3277       5 -93.8267
       6 -93.8267       7 -93.8267       8 -93.8267



 E-fermi :  -0.9394     XC(G=0):  -8.2131     alpha+bet : -7.8680


 spin component 1

 k-point     1 :       0.0000    0.0000    0.0000
  band No.  band energies     occupation
      1     -21.6630      1.00000
      2     -21.6630      1.00000
      3     -21.6630      1.00000
      4     -21.6519      1.00000
      5     -21.6519      1.00000
      6     -21.6519      1.00000
      7     -21.6519      1.00000
      8     -21.6519      1.00000
      9     -21.6519      1.00000
     10     -21.6444      1.00000
     11     -21.6444      1.00000
     12     -21.6444      1.00000
     13     -13.5223      1.00000
     14     -13.1572      1.00000
     15     -13.1572      1.00000
     16     -13.1572      1.00000
     17      -2.5701      1.00000
     18      -2.5701      1.00000
     19      -2.5701      1.00000
     20      -1.5223      1.00000
     21      -1.5223      1.00000
     22      -1.5223      1.00000
     23      -1.5223      1.00000
     24      -1.5223      1.00000
     25      -1.5223      1.00000
     26      -0.9394      1.00000
     27      -0.9394      1.00000
     28      -0.9394      1.00000
     29       3.8952      0.00000
     30       6.4214      0.00000
     31       6.4214      0.00000
     32       6.4214      0.00000
     33       6.9751      0.00000
     34       6.9751      0.00000
     35       6.9751      0.00000
     36      10.0014      0.00000
     37      10.0014      0.00000
     38      10.0014      0.00000
     39      10.0302      0.00000
     40      10.0302      0.00000
     41      10.0302      0.00000
     42      12.2143      0.00000
     43      12.2143      0.00000
     44      13.4401      0.00000
     45      13.4401      0.00000
     46      13.4401      0.00000
     47      13.4401      0.00000
     48      13.4401      0.00000
     49      13.4401      0.00000
     50      13.5476      0.00000
     51      14.2298      0.00000
     52      14.2298      0.00000
     53      14.2298      0.00000
     54      15.7852      0.00000
     55      15.7852      0.00000
     56      15.7852      0.00000
     57      15.8066      0.00000
     58      15.8066      0.00000
     59      15.8066      0.00000
     60      15.9686      0.00000
     61      15.9686      0.00000
     62      15.9686      0.00000
     63      15.9686      0.00000
     64      15.9686      0.00000
     65      15.9686      0.00000
     66      21.0464      0.00000
     67      21.0464      0.00000
     68      21.0464      0.00000
     69      22.0624      0.00000
     70      22.0624      0.00000
     71      22.0624      0.00000
     72      22.0624      0.00000
     73      22.0624      0.00000
     74      22.0624      0.00000
     75      22.3615      0.00000
     76      23.4712      0.00000
     77      23.4712      0.00000
     78      23.4712      0.00000
     79      23.5053      0.00000
     80      23.5053      0.00000
     81      23.5053      0.00000
     82      23.6475      0.00000
     83      23.6475      0.00000
     84      23.6475      0.00000
     85      24.7625      0.00000
     86      24.7625      0.00000
     87      24.7625      0.00000
     88      24.7625      0.00000
     89      24.7625      0.00000
     90      24.7625      0.00000
     91      25.2445      0.00000
     92      25.2445      0.00000
     93      25.2445      0.00000
     94      25.8584      0.00000
     95      25.8584      0.00000
     96      25.8585      0.00000

 k-point     2 :       0.1667    0.0000    0.0000
  band No.  band energies     occupation
      1     -21.6622      1.00000
      2     -21.6622      1.00000
      3     -21.6622      1.00000
      4     -21.6526      1.00000
      5     -21.6526      1.00000
      6     -21.6524      1.00000
      7     -21.6524      1.00000
      8     -21.6514      1.00000
      9     -21.6514      1.00000
     10     -21.6462      1.00000
     11     -21.6449      1.00000
     12     -21.6449      1.00000
     13     -13.4955      1.00000
     14     -13.1790      1.00000
     15     -13.1533      1.00000
     16     -13.1533      1.00000
     17      -2.5124      1.00000
     18      -2.5124      1.00000
     19      -2.5094      1.00000
     20      -1.6093      1.00000
     21      -1.6093      1.00000
     22      -1.5612      1.00000
     23      -1.5612      1.00000
     24      -1.4874      1.00000
     25      -1.4874      1.00000
     26      -1.1288      1.00000
     27      -0.9833      1.00000
     28      -0.9833      1.00000
     29       4.2049      0.00000
     30       6.4930      0.00000
     31       6.6597      0.00000
     32       6.6597      0.00000
     33       7.0931      0.00000
     34       7.1872      0.00000
     35       7.1872      0.00000
     36       9.5872      0.00000
     37       9.6869      0.00000
     38       9.8047      0.00000
     39       9.8047      0.00000
     40      10.1868      0.00000
     41      10.1868      0.00000
     42      11.6948      0.00000
     43      12.2506      0.00000
     44      12.2506      0.00000
     45      12.3104      0.00000
     46      12.9698      0.00000
     47      12.9698      0.00000
     48      13.5493      0.00000
     49      13.5493      0.00000
     50      14.0263      0.00000
     51      14.2351      0.00000
     52      14.8225      0.00000
     53      14.8225      0.00000
     54      15.7442      0.00000
     55      15.7442      0.00000
     56      15.9719      0.00000
     57      15.9719      0.00000
     58      15.9850      0.00000
     59      15.9850      0.00000
     60      16.2464      0.00000
     61      16.4244      0.00000
     62      16.4755      0.00000
     63      16.4755      0.00000
     64      16.5643      0.00000
     65      16.5643      0.00000
     66      20.5572      0.00000
     67      20.5572      0.00000
     68      20.8978      0.00000
     69      20.8978      0.00000
     70      21.4837      0.00000
     71      21.8201      0.00000
     72      21.8595      0.00000
     73      21.8595      0.00000
     74      22.1696      0.00000
     75      22.3396      0.00000
     76      22.3396      0.00000
     77      22.6536      0.00000
     78      22.7123      0.00000
     79      22.7123      0.00000
     80      23.0919      0.00000
     81      23.0919      0.00000
[...]
      0.000000  0.000000  0.000000     0.271018    0.036498   -0.190646
      0.000000  2.845847  2.845847     0.271018   -0.036498    0.190646
      2.845847  0.000000  2.845847    -0.271018    0.036498    0.190646
      2.845847  2.845847  0.000000    -0.271018   -0.036498   -0.190646
      2.845847  0.000000  0.000000    -0.302964    0.040800   -0.213118
      2.845847  2.845847  2.845847    -0.302964   -0.040800    0.213118
      0.000000  0.000000  2.845847     0.302964    0.040800    0.213118
      0.000000  2.845847  0.000000     0.302964   -0.040800   -0.213118

   4 f  =    4.654691 THz    29.246286 2PiTHz  155.263776 cm-1    19.250262 meV
             X         Y         Z           dx          dy          dz
      0.000000  0.000000  0.000000    -0.325610   -0.268344    0.273382
      0.000000  2.845847  2.845847     0.325610   -0.155821    0.006719
      2.845847  0.000000  2.845847    -0.004666    0.268344   -0.006719
      2.845847  2.845847  0.000000     0.004666    0.155821   -0.273382
      2.845847  0.000000  0.000000     0.292017   -0.139745    0.006026
      2.845847  2.845847  2.845847    -0.292017   -0.240659    0.245177
      0.000000  0.000000  2.845847     0.004184    0.139745   -0.245177
      0.000000  2.845847  0.000000    -0.004184    0.240659   -0.006026

   5 f  =    4.654691 THz    29.246286 2PiTHz  155.263776 cm-1    19.250262 meV
             X         Y         Z           dx          dy          dz
      0.000000  0.000000  0.000000    -0.097176    0.328836    0.106550
      0.000000  2.845847  2.845847     0.097176   -0.191871   -0.330852
      2.845847  0.000000  2.845847     0.043683   -0.328836    0.330852
      2.845847  2.845847  0.000000    -0.043683    0.191871   -0.106550
      2.845847  0.000000  0.000000     0.087151   -0.172076   -0.296718
      2.845847  2.845847  2.845847    -0.087151    0.294910    0.095558
      0.000000  0.000000  2.845847    -0.039176    0.172076   -0.095558
      0.000000  2.845847  0.000000     0.039176   -0.294910    0.296718

   6 f  =    4.654691 THz    29.246286 2PiTHz  155.263776 cm-1    19.250262 meV
             X         Y         Z           dx          dy          dz
      0.000000  0.000000  0.000000     0.120781   -0.247789    0.022153
      0.000000  2.845847  2.845847    -0.120781    0.197875   -0.397318
      2.845847  0.000000  2.845847    -0.060172    0.247789    0.397318
      2.845847  2.845847  0.000000     0.060172   -0.197875   -0.022153
      2.845847  0.000000  0.000000    -0.108320    0.177460   -0.356327
      2.845847  2.845847  2.845847     0.108320   -0.222225    0.019868
      0.000000  0.000000  2.845847     0.053964   -0.177460   -0.019868
      0.000000  2.845847  0.000000    -0.053964    0.222225    0.356327

   7 f  =    4.654691 THz    29.246286 2PiTHz  155.263776 cm-1    19.250262 meV
             X         Y         Z           dx          dy          dz
      0.000000  0.000000  0.000000     0.224502   -0.138319    0.010239
      0.000000  2.845847  2.845847    -0.224502   -0.225540   -0.017121
      2.845847  0.000000  2.845847     0.395368    0.138319    0.017121
      2.845847  2.845847  0.000000    -0.395368    0.225540   -0.010239
      2.845847  0.000000  0.000000    -0.201341   -0.202271   -0.015354
      2.845847  2.845847  2.845847     0.201341   -0.124048    0.009182
      0.000000  0.000000  2.845847    -0.354578    0.202271   -0.009182
      0.000000  2.845847  0.000000     0.354578    0.124048    0.015354

   8 f  =    4.654691 THz    29.246286 2PiTHz  155.263776 cm-1    19.250262 meV
             X         Y         Z           dx          dy          dz
      0.000000  0.000000  0.000000    -0.208563    0.082166    0.028776
      0.000000  2.845847  2.845847     0.208563    0.334813    0.002588
      2.845847  0.000000  2.845847     0.337537   -0.082166   -0.002588
      2.845847  2.845847  0.000000    -0.337537   -0.334813   -0.028776
      2.845847  0.000000  0.000000     0.187045    0.300270    0.002321
      2.845847  2.845847  2.845847    -0.187045    0.073689    0.025808
      0.000000  0.000000  2.845847    -0.302713   -0.300270   -0.025808
      0.000000  2.845847  0.000000     0.302713   -0.073689   -0.002321

   9 f  =    4.654691 THz    29.246286 2PiTHz  155.263776 cm-1    19.250262 meV
             X         Y         Z           dx          dy          dz
      0.000000  0.000000  0.000000    -0.230570   -0.098440   -0.435432
      0.000000  2.845847  2.845847     0.230570   -0.117891   -0.097187
      2.845847  0.000000  2.845847     0.036302    0.098440    0.097187
      2.845847  2.845847  0.000000    -0.036302    0.117891    0.435432
      2.845847  0.000000  0.000000     0.206782   -0.105728   -0.087160
      2.845847  2.845847  2.845847    -0.206782   -0.088284   -0.390508
      0.000000  0.000000  2.845847    -0.032557    0.105728    0.390508
      0.000000  2.845847  0.000000     0.032557    0.088284    0.087160

  10 f  =    4.459329 THz    28.018788 2PiTHz  148.747188 cm-1    18.442307 meV
             X         Y         Z           dx          dy          dz
      0.000000  0.000000  0.000000    -0.007427   -0.002165   -0.388643
      0.000000  2.845847  2.845847    -0.007427   -0.002165   -0.388643
      2.845847  0.000000  2.845847    -0.007427   -0.002165   -0.388643
      2.845847  2.845847  0.000000    -0.007427   -0.002165   -0.388643
      2.845847  0.000000  0.000000     0.006008    0.001752    0.314416
      2.845847  2.845847  2.845847     0.006008    0.001752    0.314416
      0.000000  0.000000  2.845847     0.006008    0.001752    0.314416
      0.000000  2.845847  0.000000     0.006008    0.001752    0.314416

  11 f  =    4.459329 THz    28.018788 2PiTHz  148.747188 cm-1    18.442307 meV
             X         Y         Z           dx          dy          dz
      0.000000  0.000000  0.000000     0.140380   -0.362486   -0.000663
      0.000000  2.845847  2.845847     0.140380   -0.362486   -0.000663
      2.845847  0.000000  2.845847     0.140380   -0.362486   -0.000663
      2.845847  2.845847  0.000000     0.140380   -0.362486   -0.000663
      2.845847  0.000000  0.000000    -0.113569    0.293255    0.000536
      2.845847  2.845847  2.845847    -0.113569    0.293255    0.000536
      0.000000  0.000000  2.845847    -0.113569    0.293255    0.000536
      0.000000  2.845847  0.000000    -0.113569    0.293255    0.000536

  12 f  =    4.459329 THz    28.018788 2PiTHz  148.747188 cm-1    18.442307 meV
             X         Y         Z           dx          dy          dz
      0.000000  0.000000  0.000000     0.362411    0.140364   -0.007707
      0.000000  2.845847  2.845847     0.362411    0.140364   -0.007707
      2.845847  0.000000  2.845847     0.362411    0.140364   -0.007707
      2.845847  2.845847  0.000000     0.362411    0.140364   -0.007707
      2.845847  0.000000  0.000000    -0.293194   -0.113556    0.006235
      2.845847  2.845847  2.845847    -0.293194   -0.113556    0.006235
      0.000000  0.000000  2.845847    -0.293194   -0.113556    0.006235
      0.000000  2.845847  0.000000    -0.293194   -0.113556    0.006235

  13 f  =    4.061948 THz    25.521971 2PiTHz  135.491992 cm-1    16.798872 meV
             X         Y         Z           dx          dy          dz
      0.000000  0.000000  0.000000     0.082132   -0.363268   -0.012713
      0.000000  2.845847  2.845847     0.082132    0.363268    0.012713
      2.845847  0.000000  2.845847    -0.082132   -0.363268    0.012713
      2.845847  2.845847  0.000000    -0.082132    0.363268   -0.012713
      2.845847  0.000000  0.000000     0.073472    0.324964    0.011372
      2.845847  2.845847  2.845847     0.073472   -0.324964   -0.011372
      0.000000  0.000000  2.845847    -0.073472    0.324964   -0.011372
      0.000000  2.845847  0.000000    -0.073472   -0.324964    0.011372

  14 f  =    4.061948 THz    25.521971 2PiTHz  135.491992 cm-1    16.798872 meV
             X         Y         Z           dx          dy          dz
      0.000000  0.000000  0.000000    -0.083635   -0.006203   -0.363095
      0.000000  2.845847  2.845847    -0.083635    0.006203    0.363095
      2.845847  0.000000  2.845847     0.083635   -0.006203    0.363095
      2.845847  2.845847  0.000000     0.083635    0.006203   -0.363095
      2.845847  0.000000  0.000000    -0.074816    0.005549    0.324809
      2.845847  2.845847  2.845847    -0.074816   -0.005549   -0.324809
      0.000000  0.000000  2.845847     0.074816    0.005549   -0.324809
      0.000000  2.845847  0.000000     0.074816   -0.005549    0.324809

  15 f  =    4.061948 THz    25.521971 2PiTHz  135.491992 cm-1    16.798872 meV
             X         Y         Z           dx          dy          dz
      0.000000  0.000000  0.000000     0.353738    0.082878   -0.082896
      0.000000  2.845847  2.845847     0.353738   -0.082878    0.082896
      2.845847  0.000000  2.845847    -0.353738    0.082878    0.082896
      2.845847  2.845847  0.000000    -0.353738   -0.082878   -0.082896
      2.845847  0.000000  0.000000     0.316438   -0.074139    0.074155
      2.845847  2.845847  2.845847     0.316438    0.074139   -0.074155
      0.000000  0.000000  2.845847    -0.316438   -0.074139   -0.074155
      0.000000  2.845847  0.000000    -0.316438    0.074139    0.074155

  16 f  =    2.485612 THz    15.617560 2PiTHz   82.911085 cm-1    10.279668 meV
             X         Y         Z           dx          dy          dz
      0.000000  0.000000  0.000000     0.008592    0.057637    0.029800
      0.000000  2.845847  2.845847    -0.008592    0.006432    0.461927
      2.845847  0.000000  2.845847     0.071995   -0.057637   -0.461927
      2.845847  2.845847  0.000000    -0.071995   -0.006432   -0.029800
      2.845847  0.000000  0.000000     0.009581   -0.007172   -0.515066
      2.845847  2.845847  2.845847    -0.009581   -0.064267   -0.033228
      0.000000  0.000000  2.845847     0.080277    0.007172    0.033228
      0.000000  2.845847  0.000000    -0.080277    0.064267    0.515066

  17 f  =    2.485612 THz    15.617560 2PiTHz   82.911085 cm-1    10.279668 meV
             X         Y         Z           dx          dy          dz
      0.000000  0.000000  0.000000     0.065183   -0.178466   -0.176094
      0.000000  2.845847  2.845847    -0.065183   -0.114050   -0.024760
      2.845847  0.000000  2.845847     0.377036    0.178466    0.024760
      2.845847  2.845847  0.000000    -0.377036    0.114050    0.176094
      2.845847  0.000000  0.000000     0.072682    0.127170    0.027609
      2.845847  2.845847  2.845847    -0.072682    0.198997    0.196352
      0.000000  0.000000  2.845847     0.420410   -0.127170   -0.196352
      0.000000  2.845847  0.000000    -0.420410   -0.198997   -0.027609

  18 f  =    2.485612 THz    15.617560 2PiTHz   82.911085 cm-1    10.279668 meV
             X         Y         Z           dx          dy          dz
      0.000000  0.000000  0.000000     0.038380    0.138280    0.093169
      0.000000  2.845847  2.845847    -0.038380   -0.438709   -0.013002
      2.845847  0.000000  2.845847    -0.031227   -0.138280    0.013002
      2.845847  2.845847  0.000000     0.031227    0.438709   -0.093169
      2.845847  0.000000  0.000000     0.042795    0.489178    0.014498
      2.845847  2.845847  2.845847    -0.042795   -0.154188   -0.103887
      0.000000  0.000000  2.845847    -0.034819   -0.489178    0.103887
      0.000000  2.845847  0.000000     0.034819    0.154188   -0.014498

  19 f  =    2.485612 THz    15.617560 2PiTHz   82.911085 cm-1    10.279668 meV
             X         Y         Z           dx          dy          dz
      0.000000  0.000000  0.000000    -0.044630   -0.312698   -0.181090
      0.000000  2.845847  2.845847     0.044630   -0.125418    0.093283
      2.845847  0.000000  2.845847    -0.256687    0.312698   -0.093283
      2.845847  2.845847  0.000000     0.256687    0.125418    0.181090
      2.845847  0.000000  0.000000    -0.049764    0.139846   -0.104014
      2.845847  2.845847  2.845847     0.049764    0.348671    0.201922
      0.000000  0.000000  2.845847    -0.286215   -0.139846   -0.201922
      0.000000  2.845847  0.000000     0.286215   -0.348671    0.104014

  20 f  =    2.485612 THz    15.617560 2PiTHz   82.911085 cm-1    10.279668 meV
             X         Y         Z           dx          dy          dz
      0.000000  0.000000  0.000000    -0.004066    0.265669   -0.386646
      0.000000  2.845847  2.845847     0.004066    0.005016   -0.000000
      2.845847  0.000000  2.845847    -0.052610   -0.265669    0.000000
      2.845847  2.845847  0.000000     0.052610   -0.005016    0.386646
      2.845847  0.000000  0.000000    -0.004533   -0.005593    0.000000
      2.845847  2.845847  2.845847     0.004533   -0.296232    0.431125
      0.000000  0.000000  2.845847    -0.058662    0.005593   -0.431125
      0.000000  2.845847  0.000000     0.058662    0.296232    0.000000

  21 f  =    2.485612 THz    15.617560 2PiTHz   82.911085 cm-1    10.279668 meV
             X         Y         Z           dx          dy          dz
      0.000000  0.000000  0.000000     0.463768   -0.015191   -0.004328
      0.000000  2.845847  2.845847    -0.463768    0.040192    0.004975
      2.845847  0.000000  2.845847    -0.076906    0.015191   -0.004975
      2.845847  2.845847  0.000000     0.076906   -0.040192    0.004328
      2.845847  0.000000  0.000000     0.517119   -0.044815   -0.005547
      2.845847  2.845847  2.845847    -0.517119    0.016938    0.004826
      0.000000  0.000000  2.845847    -0.085753    0.044815   -0.004826
      0.000000  2.845847  0.000000     0.085753   -0.016938    0.005547

  22 f/i=    0.010093 THz     0.063415 2PiTHz    0.336662 cm-1     0.041741 meV
             X         Y         Z           dx          dy          dz
      0.000000  0.000000  0.000000     0.111269   -0.294133   -0.001418
      0.000000  2.845847  2.845847     0.111269   -0.294133   -0.001418
      2.845847  0.000000  2.845847     0.111269   -0.294133   -0.001418
      2.845847  2.845847  0.000000     0.111269   -0.294133   -0.001418
      2.845847  0.000000  0.000000     0.137537   -0.363571   -0.001753
      2.845847  2.845847  2.845847     0.137537   -0.363571   -0.001753
      0.000000  0.000000  2.845847     0.137537   -0.363571   -0.001753
      0.000000  2.845847  0.000000     0.137537   -0.363571   -0.001753

  23 f/i=    0.010093 THz     0.063415 2PiTHz    0.336662 cm-1     0.041741 meV
             X         Y         Z           dx          dy          dz
      0.000000  0.000000  0.000000     0.030405    0.009993    0.312846
      0.000000  2.845847  2.845847     0.030405    0.009993    0.312846
      2.845847  0.000000  2.845847     0.030405    0.009993    0.312846
      2.845847  2.845847  0.000000     0.030405    0.009993    0.312846
      2.845847  0.000000  0.000000     0.037583    0.012352    0.386702
      2.845847  2.845847  2.845847     0.037583    0.012352    0.386702
      0.000000  0.000000  2.845847     0.037583    0.012352    0.386702
      0.000000  2.845847  0.000000     0.037583    0.012352    0.386702

  24 f/i=    0.010093 THz     0.063415 2PiTHz    0.336662 cm-1     0.041741 meV
             X         Y         Z           dx          dy          dz
      0.000000  0.000000  0.000000     0.292560    0.110828   -0.031973
      0.000000  2.845847  2.845847     0.292560    0.110828   -0.031973
      2.845847  0.000000  2.845847     0.292560    0.110828   -0.031973
      2.845847  2.845847  0.000000     0.292560    0.110828   -0.031973
      2.845847  0.000000  0.000000     0.361627    0.136992   -0.039522
      2.845847  2.845847  2.845847     0.361627    0.136992   -0.039522
      0.000000  0.000000  2.845847     0.361627    0.136992   -0.039522
      0.000000  2.845847  0.000000     0.361627    0.136992   -0.039522



--------------------------------------------------------------------------------------------------------




 MACROSCOPIC STATIC DIELECTRIC TENSOR IONIC CONTRIBUTION
 ------------------------------------------------------
           4.206895     0.000000    -0.000000
           0.000000     4.206895    -0.000000
          -0.000000    -0.000000     4.206895
 ------------------------------------------------------


 ELASTIC MODULI CONTR FROM IONIC RELAXATION (kBar)
 Direction    XX          YY          ZZ          XY          YZ          ZX
 --------------------------------------------------------------------------------
 XX          -0.0000     -0.0000     -0.0000      0.0000     -0.0000      0.0000
 YY          -0.0000     -0.0000     -0.0000     -0.0000      0.0000      0.0000
 ZZ          -0.0000     -0.0000     -0.0000     -0.0000     -0.0000     -0.0000
 XY           0.0000     -0.0000     -0.0000     -0.0000      0.0000      0.0000
 YZ          -0.0000      0.0000     -0.0000      0.0000     -0.0000     -0.0000
 ZX           0.0000      0.0000     -0.0000      0.0000     -0.0000     -0.0000
 --------------------------------------------------------------------------------


 PIEZOELECTRIC TENSOR IONIC CONTR  for field in x, y, z        (C/m^2)
          XX          YY          ZZ          XY          YZ          ZX
  --------------------------------------------------------------------------------
  x     0.00000    -0.00000    -0.00000    -0.00000    -0.00000     0.00000
  y    -0.00000     0.00000    -0.00000     0.00000    -0.00000    -0.00000
  z    -0.00000    -0.00000     0.00000    -0.00000     0.00000     0.00000


--------------------------------------------------------------------------------------------------------


     LOOP+:  cpu time  393.4412: real time  393.4209
    4ORBIT:  cpu time    0.0000: real time    0.0000



 total charge

# of ion       s       p       d       tot
------------------------------------------
    1        0.041   5.979   0.000   6.020
    2        0.041   5.979   0.000   6.020
    3        0.041   5.979   0.000   6.020
    4        0.041   5.979   0.000   6.020
    5        1.578   3.548   0.000   5.126
    6        1.578   3.548   0.000   5.126
    7        1.578   3.548   0.000   5.126
    8        1.578   3.548   0.000   5.126
--------------------------------------------------
tot          6.474  38.108   0.000  44.581



 magnetization (x)

# of ion       s       p       d       tot
------------------------------------------
    1        0.000   0.000   0.000   0.000
    2        0.000   0.000   0.000   0.000
    3        0.000   0.000   0.000   0.000
    4        0.000   0.000   0.000   0.000
    5        0.000  -0.000   0.000  -0.000
    6        0.000  -0.000   0.000  -0.000
    7        0.000  -0.000   0.000  -0.000
    8        0.000  -0.000   0.000  -0.000
--------------------------------------------------
tot          0.000  -0.000   0.000  -0.000

 BZINTS: Fermi energy:   -0.939369;   56.000000 electrons
         Band energy:-0.667028E+03;  BLOECHL correction:    0.000000

 total amount of memory used by VASP MPI-rank0    65507. kBytes
=======================================================================

   base      :      30000. kBytes
   nonl-proj :      20127. kBytes
   fftplans  :        808. kBytes
   grid      :       9670. kBytes
   one-center:         49. kBytes
   wavefun   :       4853. kBytes



 General timing and accounting informations for this job:
 ========================================================

                  Total CPU time used (sec):      402.940
                            User time (sec):      401.436
                          System time (sec):        1.504
                         Elapsed time (sec):      403.649

                   Maximum memory used (kb):      476360.
                   Average memory used (kb):           0.

                          Minor page faults:        46759
                          Major page faults:            0
                 Voluntary context switches:         6251
