------------------------------------------------------------
          Invoking FHI-aims ...

          When using FHI-aims, please cite the following reference:

            Volker Blum, Ralf Gehrke, Felix Hanke, Paula Havu,
            Ville Havu, Xinguo Ren, Karsten Reuter, and Matthias Scheffler,
            'Ab Initio Molecular Simulations with Numeric Atom-Centered Orbitals',
            Computer Physics Communications 180, 2175-2196 (2009)

          In addition, many other developments in FHI-aims are likely important for
          your particular application. A partial list of references is given at the end of
          this file. Thank you for giving credit to the authors of these developments.

          For any questions about FHI-aims, please visit our slack channel at

            https://fhi-aims.slack.com

          and our main development and support site at

            https://aims-git.rz-berlin.mpg.de .

          The latter site, in particular, has a wiki to collect information, as well
          as an issue tracker to log discussions, suggest improvements, and report issues
          or bugs. https://aims-git.rz-berlin.mpg.de is also the main development site
          of the project and all new and updated code versions can be obtained there.
          Please send an email to aims-coordinators@fhi-berlin.mpg.de and we will add
          you to these sites. They are for you and everyone is welcome there.

------------------------------------------------------------



  Date     :  20231005, Time     :  083555.836
  Time zero on CPU 1             :   0.167574200000000E+01  s.
  Internal wall clock time zero  :           465726955.836  s.

  FHI-aims created a unique identifier for this run for later identification
  aims_uuid : F428E385-9DFC-47D8-A4BE-882F1F49C16D

  Build configuration of the current instance of FHI-aims
  -------------------------------------------------------
  FHI-aims version      : 220309
  Commit number         : 232d594a3
  CMake host system     : Linux-5.4.0-146-generic
  CMake version         : 3.26.3
  Fortran compiler      : /home/tpurcell/intel/oneapi/mpi/2021.6.0/bin/mpiifort (Intel) version 2021.6.0.20220226
  Fortran compiler flags: -O3 -ip -fp-model precise
  C compiler            : /home/tpurcell/intel/oneapi/compiler/2022.1.0/linux/bin/intel64/icc (Intel) version 2021.6.0.20220226
  C compiler flags      : -m64 -O3 -ip -fp-model precise -std=gnu99
  Using MPI
  Using ScaLAPACK
  Using LibXC
  Using i-PI
  Using RLSY
  Linking against: /home/tpurcell/intel/oneapi/mkl/2022.1.0/lib/intel64/libmkl_scalapack_lp64.so
                   /home/tpurcell/intel/oneapi/mkl/2022.1.0/lib/intel64/libmkl_blacs_intelmpi_lp64.so
                   /home/tpurcell/intel/oneapi/mkl/2022.1.0/lib/intel64/libmkl_intel_lp64.so
                   /home/tpurcell/intel/oneapi/mkl/2022.1.0/lib/intel64/libmkl_sequential.so
                   /home/tpurcell/intel/oneapi/mkl/2022.1.0/lib/intel64/libmkl_core.so

  Using        2 parallel tasks.
  Task        0 on host nomadbook-7 reporting.
  Task        1 on host nomadbook-7 reporting.

  Performing system and environment tests:
  *** Environment variable OMP_NUM_THREADS is set to
  2
  *** For performance reasons you might want to set it to 1
  | Checking for ScaLAPACK...
  | Testing pdtran()...
  | All pdtran() tests passed.

  Obtaining array dimensions for all initial allocations:

  -----------------------------------------------------------------------
  Parsing control.in (first pass over file, find array dimensions only).
  The contents of control.in will be repeated verbatim below
  unless switched off by setting 'verbatim_writeout .false.' .
  in the first line of control.in .
  -----------------------------------------------------------------------

  #===============================================================================
  # Created using the Atomic Simulation Environment (ASE)

  # Thu Oct  5 08:35:53 2023

  #===============================================================================
  xc                                 pbe
  relativistic                       atomic_zora scalar
  k_grid                             10 10 10
  #===============================================================================

  ################################################################################
  #
  #  FHI-aims code project
  #  VB, Fritz-Haber Institut, 2009
  #
  #  Suggested "light" defaults for Si atom (to be pasted into control.in file)
  #  Be sure to double-check any results obtained with these settings for post-processing,
  #  e.g., with the "tight" defaults and larger basis sets.
  #
  #  2020/09/08 Added f function to "light" after reinspection of Delta test outcomes.
  #             This was done for all of Al-Cl and is a tricky decision since it makes
  #             "light" calculations measurably more expensive for these elements.
  #             Nevertheless, outcomes for P, S, Cl (and to some extent, Si) appear
  #             to justify this choice.
  #
  ################################################################################
    species        Si
  #     global species definitions
      nucleus             14
      mass                28.0855
  #
      l_hartree           4
  #
      cut_pot             3.5          1.5  1.0
      basis_dep_cutoff    1e-4
  #
      radial_base         42 5.0
      radial_multiplier   1
      angular_grids       specified
        division   0.5866   50
        division   0.9616  110
        division   1.2249  194
        division   1.3795  302
  #      division   1.4810  434
  #      division   1.5529  590
  #      division   1.6284  770
  #      division   1.7077  974
  #      division   2.4068 1202
  #      outer_grid   974
        outer_grid 302
  ################################################################################
  #
  #  Definition of "minimal" basis
  #
  ################################################################################
  #     valence basis states
      valence      3  s   2.
      valence      3  p   2.
  #     ion occupancy
      ion_occ      3  s   1.
      ion_occ      3  p   1.
  ################################################################################
  #
  #  Suggested additional basis functions. For production calculations,
  #  uncomment them one after another (the most important basis functions are
  #  listed first).
  #
  #  Constructed for dimers: 1.75 A, 2.0 A, 2.25 A, 2.75 A, 3.75 A
  #
  ################################################################################
  #  "First tier" - improvements: -571.96 meV to -37.03 meV
       hydro 3 d 4.2
       hydro 2 p 1.4
       hydro 4 f 6.2
       ionic 3 s auto
  #  "Second tier" - improvements: -16.76 meV to -3.03 meV
  #     hydro 3 d 9
  #     hydro 5 g 9.4
  #     hydro 4 p 4
  #     hydro 1 s 0.65
  #  "Third tier" - improvements: -3.89 meV to -0.60 meV
  #     ionic 3 d auto
  #     hydro 3 s 2.6
  #     hydro 4 f 8.4
  #     hydro 3 d 3.4
  #     hydro 3 p 7.8
  #  "Fourth tier" - improvements: -0.33 meV to -0.11 meV
  #     hydro 2 p 1.6
  #     hydro 5 g 10.8
  #     hydro 5 f 11.2
  #     hydro 3 d 1
  #     hydro 4 s 4.5
  #  Further basis functions that fell out of the optimization - noise
  #  level... < -0.08 meV
  #     hydro 4 d 6.6
  #     hydro 5 g 16.4
  #     hydro 4 d 9

  -----------------------------------------------------------------------
  Completed first pass over input file control.in .
  -----------------------------------------------------------------------


  -----------------------------------------------------------------------
  Parsing geometry.in (first pass over file, find array dimensions only).
  The contents of geometry.in will be repeated verbatim below
  unless switched off by setting 'verbatim_writeout .false.' .
  in the first line of geometry.in .
  -----------------------------------------------------------------------

  #===============================================================================
  # Created using the Atomic Simulation Environment (ASE)

  # Thu Oct  5 08:35:53 2023

  #=======================================================
  lattice_vector -0.0000000300000000 2.7389940500000001 2.7389940500000001
  lattice_vector 2.7389941000000002 0.0000000100000000 2.7389940799999999
  lattice_vector 2.7389940899999998 2.7389940799999999 0.0000000100000000
  atom_frac 0.0000000018254877 0.0000000018254877 -0.0000000018254877 Si
  atom_frac 0.2500000000000001 0.2499999981745122 0.2500000018254876 Si

  -----------------------------------------------------------------------
  Completed first pass over input file geometry.in .
  -----------------------------------------------------------------------


  Basic array size parameters:
  | Number of species                 :        1
  | Number of atoms                   :        2
  | Number of lattice vectors         :        3
  | Max. basis fn. angular momentum   :        3
  | Max. atomic/ionic basis occupied n:        3
  | Max. number of basis fn. types    :        3
  | Max. radial fns per species/type  :        5
  | Max. logarithmic grid size        :     1346
  | Max. radial integration grid size :       42
  | Max. angular integration grid size:      302
  | Max. angular grid division number :        8
  | Radial grid for Hartree potential :     1346
  | Number of spin channels           :        1

------------------------------------------------------------
          Reading file control.in.
------------------------------------------------------------
  XC: Using PBE gradient-corrected functionals.
  Scalar relativistic treatment of kinetic energy: on-site free-atom approximation to ZORA.
  Found k-point grid:        10        10        10

  Reading configuration options for species Si                  .
  | Found nuclear charge :  14.0000
  | Found atomic mass :    28.0855000000000      amu
  | Found l_max for Hartree potential  :   4
  | Found cutoff potl. onset [A], width [A], scale factor :    3.50000    1.50000    1.00000
  | Threshold for basis-dependent cutoff potential is   0.100000E-03
  | Found data for basic radial integration grid :    42 points, outermost radius =    5.000 A
  | Found multiplier for basic radial grid :   1
  | Found angular grid specification: user-specified.
  | Specified grid contains     5 separate shells.
  | Check grid settings after all constraints further below.
  | Found free-atom valence shell :  3 s   2.000
  | Found free-atom valence shell :  3 p   2.000
  | Found free-ion valence shell :  3 s   1.000
  | Found free-ion valence shell :  3 p   1.000
  | Found hydrogenic basis function :  3 d   4.200
  | Found hydrogenic basis function :  2 p   1.400
  | Found hydrogenic basis function :  4 f   6.200
  | Found ionic basis function :  3 s , default cutoff radius.
  Species Si                  : Missing cutoff potential type.
  Defaulting to exp(1/x)/(1-x)^2 type cutoff potential.
  Species Si: No 'logarithmic' tag. Using default grid for free atom:
  | Default logarithmic grid data [bohr] : 0.1000E-03 0.1000E+03 0.1012E+01
  | Will include ionic basis functions of  2.0-fold positive Si                   ion.
  Species Si: On-site basis accuracy parameter (for Gram-Schmidt orthonormalisation) not specified.
  Using default value basis_acc =  0.1000000E-03.
  Species Si                  : Using default innermost maximum threshold i_radial=  2 for radial functions.
  Species Si                  : Default cutoff onset for free atom density etc. : 0.35000000E+01 AA.
  Species Si                  : Basic radial grid will be enhanced according to radial_multiplier =   1, to contain    42 grid points.

  Finished reading input file 'control.in'.

------------------------------------------------------------


------------------------------------------------------------
          Reading geometry description geometry.in.
------------------------------------------------------------
  | The smallest distance between any two atoms is         2.37203844 AA.
  | The first atom of this pair is atom number                      1 .
  | The second atom of this pair is atom number                     2 .
  | Wigner-Seitz cell of the first atom image           0     0     0 .
  | (The Wigner-Seitz cell of the second atom is 0 0 0  by definition.)

  Symmetry information by spglib:
  | Precision set to  0.1E-04
  | Number of Operations  : 48
  | Space group           : 227
  | International         : Fd-3m
  | Schoenflies           : Oh^7
  Input structure read successfully.
  The structure contains        2 atoms,  and a total of         28.000 electrons.

  Input geometry:
  | Unit cell:
  |       -0.00000003        2.73899405        2.73899405
  |        2.73899410        0.00000001        2.73899408
  |        2.73899409        2.73899408        0.00000001
  | Atomic structure:
  |       Atom                x [A]            y [A]            z [A]
  |    1: Species Si           -0.00000000       -0.00000000        0.00000001
  |    2: Species Si            1.36949704        1.36949704        1.36949703

  Lattice parameters for 3D lattice (in Angstroms) :     3.873523    3.873523    3.873523
  Angle(s) between unit vectors (in degrees)       :    60.000000   60.000000   60.000000


  Quantities derived from the lattice vectors:
  | Reciprocal lattice vector 1: -1.146988  1.146988  1.146988
  | Reciprocal lattice vector 2:  1.146988 -1.146988  1.146988
  | Reciprocal lattice vector 3:  1.146988  1.146988 -1.146988
  | Unit cell volume                               :   0.410964E+02  A^3

  Fractional coordinates:
                         L1                L2                L3
       atom_frac         0.00000000        0.00000000       -0.00000000  Si
       atom_frac         0.25000000        0.25000000        0.25000000  Si


  Finished reading input file 'control.in'.


------------------------------------------------------------
          Reading geometry description geometry.in.
------------------------------------------------------------

  Consistency checks for stacksize environment parameter are next.

  | Maximum stacksize for task 0: unlimited
  | Maximum stacksize for task 1: unlimited
  | Current stacksize for task 0: unlimited
  | Current stacksize for task 1: unlimited

  Consistency checks for the contents of control.in are next.

  MPI_IN_PLACE appears to work with this MPI implementation.
  | Keeping use_mpi_in_place .true. (see manual).
  Target number of points in a grid batch is not set. Defaulting to  100
  Method for grid partitioning is not set. Defaulting to parallel hash+maxmin partitioning.
  Batch size limit is not set. Defaulting to    200
  By default, will store active basis functions for each batch.
  If in need of memory, prune_basis_once .false. can be used to disable this option.
  communication_type for Hartree potential was not specified.
  Defaulting to calc_hartree .
  Defaulting to Pulay charge density mixer.
  Pulay mixer: Number of relevant iterations not set.
  Defaulting to    8 iterations.
  Pulay mixer: Number of initial linear mixing iterations not set.
  Defaulting to    0 iterations.
  Work space size for distributed Hartree potential not set.
  Defaulting to   0.200000E+03 MB.
  Mixing parameter for charge density mixing has not been set.
  Using default: charge_mix_param =     0.0500.
  The mixing parameter will be adjusted in iteration number     2 of the first full s.c.f. cycle only.
  Algorithm-dependent basis array size parameters:
  | n_max_pulay                         :        8
  Maximum number of self-consistency iterations not provided.
  Presetting  1000 iterations.
  Presetting      1001 iterations before the initial mixing cycle
  is restarted anyway using the sc_init_iter criterion / keyword.
  Presetting a factor      1.000 between actual scf density residual
  and density convergence criterion sc_accuracy_rho below which sc_init_iter
  takes no effect.
 * No s.c.f. convergence criteria (sc_accuracy_*) were provided in control.in.
 * The run will proceed with a reasonable default guess, but please check whether.
 * the s.c.f. cycles seem to take too much or too little time.
  Calculation of forces was not defined in control.in. No forces will be calculated.
  Geometry relaxation not requested: no relaxation will be performed.
 * Notice: The s.c.f. convergence criterion sc_accuracy_rho was not provided.
 * We used to stop in this case, and ask the user to provide reasonable
 * scf convergence criteria. However, this led some users to employ criteria
 * that led to extremely long run times, e.g., for simple relaxation.
 * We now preset a default value for sc_accuracy_rho if it is not set.
 * You may still wish to check if this setting is too tight or too loose for your needs.
 * Based on n_atoms and forces and force-correction status, FHI-aims chose sc_accuracy_rho =  0.400000E-05 .
  No accuracy limit for integral partition fn. given. Defaulting to  0.1000E-14.
  No threshold value for u(r) in integrations given. Defaulting to  0.1000E-05.
  No occupation type (smearing scheme) given. Defaulting to Gaussian broadening, width =  0.1000E-01 eV.
  The width will be adjusted in iteration number     2 of the first full s.c.f. cycle only.
  S.C.F. convergence parameters will be adjusted in iteration number     2 of the first full s.c.f. cycle only.
  No accuracy for occupation numbers given. Defaulting to  0.1000E-12.
  No threshold value for occupation numbers given. Defaulting to  0.0000E+00.
  No accuracy for fermi level given. Defaulting to  0.1000E-19.
  Maximum # of iterations to find E_F not set. Defaulting to  200.
  Preferred method for the eigenvalue solver ('KS_method') not specified in 'control.in'.
  Defaulting to serial version, LAPACK (via ELSI), since more k-points than CPUs available.
  Will not use alltoall communication since running on < 1024 CPUs.
  Threshold for basis singularities not set.
  Default threshold for basis singularities:  0.1000E-04
  partition_type (choice of integration weights) for integrals was not specified.
  | Using a version of the partition function of Stratmann and coworkers ('stratmann_sparse').
  | At each grid point, the set of atoms used to build the partition table is smoothly restricted to
  | only those atoms whose free-atom density would be non-zero at that grid point.
  Partitioning for Hartree potential was not defined. Using partition_type for integrals.
  | Adjusted default value of keyword multip_moments_threshold to:       0.10000000E-11
  | This value may affect high angular momentum components of the Hartree potential in periodic systems.
  Spin handling was not defined in control.in. Defaulting to unpolarized case.
  Angular momentum expansion for Kerker preconditioner not set explicitly.
  | Using default value of   0
  No explicit requirement for turning off preconditioner.
  | By default, it will be turned off when the charge convergence reaches
  | sc_accuracy_rho  =   0.400000E-05
  No special mixing parameter while Kerker preconditioner is on.
  Using default: charge_mix_param =     0.0500.
  No q(lm)/r^(l+1) cutoff set for long-range Hartree potential.
  | Using default value of  0.100000E-09 .
  | Verify using the multipole_threshold keyword.
  Defaulting to new monopole extrapolation.
  Density update method: automatic selection selected.
  Using density matrix based charge density update.
  Using density matrix based charge density update.
  Using packed matrix style: index .
  Defaulting to use time-reversal symmetry for k-point grid.
  Charge integration errors on the 3D integration grid will be compensated
  by explicit normalization and distribution of residual charges.
  Use the "compensate_multipole_errors" flag to change this behaviour.
  Set 'collect_eigenvectors' to be '.true.' for all serial calculations. This is mandatory.
  Set 'collect_eigenvectors' to be '.true.' for KS_method lapack_fast and serial.

  Consistency checks for the contents of geometry.in are next.


  Range separation radius for Ewald summation (hartree_convergence_parameter):      3.92603387 bohr.
  Number of empty states per atom not set in control.in - providing a guess from actual geometry.
  | Total number of empty states used during s.c.f. cycle:        6
  If you use a very high smearing, use empty_states (per atom!) in control.in to increase this value.

  Structure-dependent array size parameters:
  | Maximum number of distinct radial functions  :        9
  | Maximum number of basis functions            :       50
  | Number of Kohn-Sham states (occupied + empty):       20
------------------------------------------------------------

------------------------------------------------------------
          Preparing all fixed parts of the calculation.
------------------------------------------------------------
  Determining machine precision:
    2.225073858507201E-308
  Setting up grids for atomic and cluster calculations.

  Creating wave function, potential, and density for free atoms.
  Runtime choices for atomic solver:
  | atomic solver xc        : PBE
  | compute density gradient: 1
  | compute kinetic density : F

  Species: Si

  List of occupied orbitals and eigenvalues:
    n    l              occ      energy [Ha]    energy [eV]
    1    0           2.0000       -65.767597     -1789.6274
    2    0           2.0000        -5.115610      -139.2028
    3    0           2.0000        -0.388877       -10.5819
    2    1           6.0000        -3.500197       -95.2452
    3    1           2.0000        -0.140803        -3.8315


  Adding cutoff potential to free-atom effective potential.
  Creating fixed part of basis set: Ionic, confined, hydrogenic.

  Si                   ion:

  List of free ionic orbitals and eigenvalues:
    n    l      energy [Ha]    energy [eV]
    1    0       -66.641157     -1813.3982
    2    0        -5.964274      -162.2962
    3    0        -1.073878       -29.2217
    2    1        -4.350005      -118.3697
    3    1        -0.776571       -21.1316


  List of ionic basis orbitals and eigenvalues:
    n    l      energy [Ha]    energy [eV]    outer radius [A]
    3    0        -1.073857       -29.2211       4.214062


  Si                   hydrogenic:

  List of hydrogenic basis orbitals:
    n    l      effective z      eigenvalue [eV]  inner max. [A]     outer max. [A]     outer radius [A]
    3    2         4.200000       -26.6624           1.139231           1.139231           4.534782
    2    1         1.400000        -6.4613           1.472672           1.472672           4.590560
    4    3         6.200000       -32.6778           1.368518           1.368518           4.534782

  Creating atomic-like basis functions for current effective potential.

  Species Si                  :

  List of atomic basis orbitals and eigenvalues:
    n    l      energy [Ha]    energy [eV]    outer radius [A]
    1    0       -65.767597     -1789.6274       0.789468
    2    0        -5.115610      -139.2028       2.815114
    3    0        -0.388877       -10.5819       4.534782
    2    1        -3.500197       -95.2452       3.259919
    3    1        -0.140803        -3.8315       4.590560

  Assembling full basis from fixed parts.
  | Species Si :   atomic orbital   1 s accepted.
  | Species Si :   atomic orbital   2 s accepted.
  | Species Si :    ionic orbital   3 s accepted.
  | Species Si :   atomic orbital   3 s accepted.
  | Species Si :   atomic orbital   2 p accepted.
  | Species Si :   atomic orbital   3 p accepted.
  | Species Si :    hydro orbital   2 p accepted.
  | Species Si :    hydro orbital   3 d accepted.
  | Species Si :    hydro orbital   4 f accepted.

  Basis size parameters after reduction:
  | Total number of radial functions:        9
  | Total number of basis functions :       50

  Per-task memory consumption for arrays in subroutine allocate_ext:
  |           3.102808MB.
  Testing on-site integration grid accuracy.
  |  Species  Function  <phi|h_atom|phi> (log., in eV)  <phi|h_atom|phi> (rad., in eV)
           1        1              -1789.6273740966              -1789.6266345813
           1        2               -139.2028173376               -139.2028132357
           1        3                -10.2237226190                -10.2235219160
           1        4                  5.6355365073                  5.5558633521 ***
           1        5                -95.2452114632                -95.2452114537
           1        6                 -3.8413965043                 -3.8571292824
           1        7                  6.4035522332                  6.2277973139 ***
           1        8                  6.3860095444                  6.3839142324
           1        9                 19.3722793793                 19.3677446767
 * Note: Onsite integrals marked "***" above are less accurate than
 * onsite_accuracy_threshold =    0.03000 eV. Usually, this is harmless.
 * When in doubt, tighten the "radial" and/or "radial_multiplier" flags to check.

  Preparing densities etc. for the partition functions (integrals / Hartree potential).

  Preparations completed.
  max(cpu_time)          :      0.155 s.
  Wall clock time (cpu1) :      0.155 s.
------------------------------------------------------------

------------------------------------------------------------
          Begin self-consistency loop: Initialization.

          Date     :  20231005, Time     :  083556.030
------------------------------------------------------------

  Initializing index lists of integration centers etc. from given atomic structure:
  Mapping all atomic coordinates to central unit cell.

  Initializing the k-points
  Using symmetry for reducing the k-points
  | k-points reduced from:     1000 to      504
  | Number of k-points                             :       504
  The eigenvectors in the calculations are COMPLEX.
  | K-points in task   0:       252
  | K-points in task   1:       252
  | Number of basis functions in the Hamiltonian integrals :      2161
  | Number of basis functions in a single unit cell        :        50
  | Number of centers in hartree potential         :       732
  | Number of centers in hartree multipole         :       318
  | Number of centers in electron density summation:       198
  | Number of centers in basis integrals           :       198
  | Number of centers in integrals                 :       101
  | Number of centers in hamiltonian               :       198
  | Consuming        882 KiB for k_phase.
  | Number of super-cells (origin) [n_cells]                     :        2197
  | Number of super-cells (after PM_index) [n_cells]             :         112
  | Number of super-cells in hamiltonian [n_cells_in_hamiltonian]:         112
  | Size of matrix packed + index [n_hamiltonian_matrix_size] :       86523
  | Estimated reciprocal-space cutoff momentum G_max:         2.37669588 bohr^-1 .
  | Reciprocal lattice points for long-range Hartree potential:      58
  Partitioning the integration grid into batches with parallel hashing+maxmin method.
  | Number of batches:      153
  | Maximal batch size:     109
  | Minimal batch size:      51
  | Average batch size:      73.255
  | Standard deviation of batch sizes:      20.476

  Integration load balanced across     2 MPI tasks.
  Work distribution over tasks is as follows:
  Task     0 has       5578 integration points.
  Task     1 has       5630 integration points.
  Initializing partition tables, free-atom densities, potentials, etc. across the integration grid (initialize_grid_storage).
  | initialize_grid_storage: Actual outermost partition radius vs. multipole_radius_free
  | (-- VB: in principle, multipole_radius_free should be larger, hence this output)
  | Species        1: Confinement radius =              4.999999999999999 AA, multipole_radius_free =              5.000694715736543 AA.
  | Species        1: outer_partition_radius set to              5.000694715736543 AA .
  | The sparse table of interatomic distances needs        212.76 kbyte instead of       313.63 kbyte of memory.
  | Net number of integration points:    11208
  | of which are non-zero points    :     9820
  | Numerical average free-atom electrostatic potential    :    -12.79160903 eV
  Renormalizing the initial density to the exact electron count on the 3D integration grid.
  | Initial density: Formal number of electrons (from input files) :      28.0000000000
  | Integrated number of electrons on 3D grid     :      28.0046944906
  | Charge integration error                      :       0.0046944906
  | Normalization factor for density and gradient :       0.9998323677
  Renormalizing the free-atom superposition density to the exact electron count on the 3D integration grid.
  | Formal number of electrons (from input files) :      28.0000000000
  | Integrated number of electrons on 3D grid     :      28.0046944906
  | Charge integration error                      :       0.0046944906
  | Normalization factor for density and gradient :       0.9998323677
  Obtaining max. number of non-zero basis functions in each batch (get_n_compute_maxes).
  | Maximal number of non-zero basis functions:      686 in task     0
  | Maximal number of non-zero basis functions:      701 in task     1
  Allocating        3.845 MB for KS_eigenvector_complex
  Integrating Hamiltonian matrix: batch-based integration.
  Time summed over all CPUs for integration: real work        0.560 s, elapsed        0.606 s
  Integrating overlap matrix.
  Time summed over all CPUs for integration: real work        0.377 s, elapsed        0.407 s
  Decreasing sparse matrix size:
  | Tolerance:  0.1000E-12
  Hamiltonian matrix
  | Array has    80036 nonzero elements out of    86523 elements
  | Sparsity factor is 0.075
  Overlap matrix
  | Array has    74264 nonzero elements out of    86523 elements
  | Sparsity factor is 0.142
  New size of hamiltonian matrix:       80061

  Updating Kohn-Sham eigenvalues and eigenvectors using ELSI and the (modified) LAPACK eigensolver.
  Singularity check in k-point 2, task 0 (analysis for other k-points/tasks may follow below):
  Overlap matrix is not singular
  | Lowest and highest eigenvalues :  0.7598E-03,  0.7090E+01
  Finished singularity check of overlap matrix
  | Time :     0.001 s
  Starting LAPACK eigensolver
  Finished Cholesky decomposition
  | Time :     0.000 s
  Finished transformation to standard eigenproblem
  | Time :     0.000 s
  Finished solving standard eigenproblem
  | Time :     0.000 s
  Finished back-transformation of eigenvectors
  | Time :     0.000 s

  Obtaining occupation numbers and chemical potential using ELSI.
  | Chemical potential (Fermi level):    -6.05628189 eV
  Writing Kohn-Sham eigenvalues.
  K-point:       1 at    0.000000    0.000000    0.000000 (in units of recip. lattice)

  State    Occupation    Eigenvalue [Ha]    Eigenvalue [eV]
      1       2.00000         -65.787616        -1790.17211
      2       2.00000         -65.787616        -1790.17211
      3       2.00000          -5.139976         -139.86587
      4       2.00000          -5.139725         -139.85904
      5       2.00000          -3.524573          -95.90852
      6       2.00000          -3.524573          -95.90852
      7       2.00000          -3.524573          -95.90852
      8       2.00000          -3.524011          -95.89322
      9       2.00000          -3.524011          -95.89322
     10       2.00000          -3.524011          -95.89322
     11       2.00000          -0.653894          -17.79335
     12       2.00000          -0.224158           -6.09964
     13       2.00000          -0.224158           -6.09964
     14       2.00000          -0.224158           -6.09964
     15       0.00000          -0.122773           -3.34083
     16       0.00000          -0.122773           -3.34083
     17       0.00000          -0.122773           -3.34083
     18       0.00000          -0.111510           -3.03435
     19       0.00000           0.073609            2.00301
     20       0.00000           0.073609            2.00301

  What follows are estimated values for band gap, HOMO, LUMO, etc.
  | They are estimated on a discrete k-point grid and not necessarily exact.
  | For converged numbers, create a DOS and/or band structure plot on a denser k-grid.

  Highest occupied state (VBM) at     -6.09963840 eV (relative to internal zero)
  | Occupation number:      2.00000000
  | K-point:       1 at    0.000000    0.000000    0.000000 (in units of recip. lattice)

  Lowest unoccupied state (CBM) at    -5.20018306 eV (relative to internal zero)
  | Occupation number:      0.00000000
  | K-point:     308 at    0.400000    0.400000    0.000000 (in units of recip. lattice)

  ESTIMATED overall HOMO-LUMO gap:      0.89945533 eV between HOMO at k-point 1 and LUMO at k-point 308
  | This appears to be an indirect band gap.
  | Smallest direct gap :      2.70701072 eV for k_point 353 at    0.500000    0.000000    0.000000 (in units of recip. lattice)
  The gap value is above 0.2 eV. Unless you are using a very sparse k-point grid,
  this system is most likely an insulator or a semiconductor.
  Calculating total energy contributions from superposition of free atom densities.

  Total energy components:
  | Sum of eigenvalues            :        -329.23914267 Ha       -8959.05290376 eV
  | XC energy correction          :         -41.71025680 Ha       -1134.99383546 eV
  | XC potential correction       :          53.86617825 Ha        1465.77328804 eV
  | Free-atom electrostatic energy:        -263.65820313 Ha       -7174.50474194 eV
  | Hartree energy correction     :           0.00000000 Ha           0.00000000 eV
  | Entropy correction            :          -0.00000000 Ha          -0.00000000 eV
  | ---------------------------
  | Total energy                  :        -580.74142435 Ha      -15802.77819312 eV
  | Total energy, T -> 0          :        -580.74142435 Ha      -15802.77819312 eV  <-- do not rely on this value for anything but (periodic) metals
  | Electronic free energy        :        -580.74142435 Ha      -15802.77819312 eV

  Derived energy quantities:
  | Kinetic energy                :         582.27415128 Ha       15844.48581476 eV
  | Electrostatic energy          :       -1121.30531882 Ha      -30512.27017242 eV
  | Energy correction for multipole
  | error in Hartree potential    :           0.00000000 Ha           0.00000000 eV
  | Sum of eigenvalues per atom                           :       -4479.52645188 eV
  | Total energy (T->0) per atom                          :       -7901.38909656 eV  <-- do not rely on this value for anything but (periodic) metals
  | Electronic free energy per atom                       :       -7901.38909656 eV
  Initialize hartree_potential_storage
  Max. number of atoms included in rho_multipole:            2

  End scf initialization - timings             :  max(cpu_time)    wall_clock(cpu1)
  | Time for scf. initialization                :        1.006 s           1.005 s
  | Boundary condition initialization           :        0.063 s           0.063 s
  | Integration                                 :        0.509 s           0.509 s
  | Solution of K.-S. eqns.                     :        0.274 s           0.274 s
  | Grid partitioning                           :        0.024 s           0.024 s
  | Preloading free-atom quantities on grid     :        0.117 s           0.118 s
  | Free-atom superposition energy              :        0.016 s           0.016 s
  | Total energy evaluation                     :        0.000 s           0.000 s

  Partial memory accounting:
  | Current value for overall tracked memory usage:
  |   Minimum:        5.373 MB (on task 0)
  |   Maximum:        5.373 MB (on task 0)
  |   Average:        5.373 MB
  | Peak value for overall tracked memory usage:
  |   Minimum:       10.813 MB (on task 0 after allocating wave)
  |   Maximum:       11.010 MB (on task 1 after allocating wave)
  |   Average:       10.912 MB
  | Largest tracked array allocation so far:
  |   Minimum:        3.845 MB (KS_eigenvector_complex on task 0)
  |   Maximum:        3.845 MB (KS_eigenvector_complex on task 0)
  |   Average:        3.845 MB
  Note:  These values currently only include a subset of arrays which are explicitly tracked.
  The "true" memory usage will be greater.
------------------------------------------------------------
  Evaluating new KS density using the density matrix
  Evaluating density matrix
  Time summed over all CPUs for getting density from density matrix: real work        1.136 s, elapsed        1.228 s
  Integration grid: deviation in total charge (<rho> - N_e) =  -2.565059E-12

  Time for density update prior                :  max(cpu_time)    wall_clock(cpu1)
  | self-consistency iterative process          :        0.658 s           0.657 s

------------------------------------------------------------
          Begin self-consistency iteration #    1

  Date     :  20231005, Time     :  083557.694
------------------------------------------------------------
  Pulay mixing of updated and previous charge densities.
  Renormalizing the density to the exact electron count on the 3D integration grid.
  | Formal number of electrons (from input files) :      28.0000000000
  | Integrated number of electrons on 3D grid     :      27.9997777486
  | Charge integration error                      :      -0.0002222514
  | Normalization factor for density and gradient :       1.0000079376

  Evaluating partitioned Hartree potential by multipole expansion.
  | Original multipole sum: apparent total charge =  -0.840697E-14
  | Sum of charges compensated after spline to logarithmic grids =  -0.399586E-05
  | Analytical far-field extrapolation by fixed multipoles:
  | Hartree multipole sum: apparent total charge =   0.000000E+00
  Summing up the Hartree potential.
  Time summed over all CPUs for potential: real work        0.352 s, elapsed        0.383 s
  | RMS charge density error from multipole expansion :   0.520813E-03
  | Average real-space part of the electrostatic potential :      0.01782190 eV

  Integrating Hamiltonian matrix: batch-based integration.
  Time summed over all CPUs for integration: real work        0.552 s, elapsed        0.599 s

  Updating Kohn-Sham eigenvalues and eigenvectors using ELSI and the (modified) LAPACK eigensolver.
  Starting LAPACK eigensolver
  Finished Cholesky decomposition
  | Time :     0.000 s
  Finished transformation to standard eigenproblem
  | Time :     0.000 s
  Finished solving standard eigenproblem
  | Time :     0.000 s
  Finished back-transformation of eigenvectors
  | Time :     0.000 s

  Obtaining occupation numbers and chemical potential using ELSI.
  | Chemical potential (Fermi level):    -6.03001817 eV
  Writing Kohn-Sham eigenvalues.
  K-point:       1 at    0.000000    0.000000    0.000000 (in units of recip. lattice)

  State    Occupation    Eigenvalue [Ha]    Eigenvalue [eV]
      1       2.00000         -65.785359        -1790.11070
      2       2.00000         -65.785359        -1790.11070
      3       2.00000          -5.138341         -139.82138
      4       2.00000          -5.138091         -139.81456
      5       2.00000          -3.522887          -95.86263
      6       2.00000          -3.522887          -95.86263
      7       2.00000          -3.522887          -95.86263
      8       2.00000          -3.522324          -95.84732
      9       2.00000          -3.522324          -95.84732
     10       2.00000          -3.522324          -95.84732
     11       2.00000          -0.653148          -17.77307
     12       2.00000          -0.223192           -6.07337
     13       2.00000          -0.223192           -6.07337
     14       2.00000          -0.223192           -6.07337
     15       0.00000          -0.122201           -3.32525
     16       0.00000          -0.122201           -3.32525
     17       0.00000          -0.122201           -3.32525
     18       0.00000          -0.110390           -3.00386
     19       0.00000           0.074146            2.01763
     20       0.00000           0.074146            2.01763

  What follows are estimated values for band gap, HOMO, LUMO, etc.
  | They are estimated on a discrete k-point grid and not necessarily exact.
  | For converged numbers, create a DOS and/or band structure plot on a denser k-grid.

  Highest occupied state (VBM) at     -6.07337175 eV (relative to internal zero)
  | Occupation number:      2.00000000
  | K-point:       1 at    0.000000    0.000000    0.000000 (in units of recip. lattice)

  Lowest unoccupied state (CBM) at    -5.18998524 eV (relative to internal zero)
  | Occupation number:      0.00000000
  | K-point:     308 at    0.400000    0.400000    0.000000 (in units of recip. lattice)

  ESTIMATED overall HOMO-LUMO gap:      0.88338651 eV between HOMO at k-point 1 and LUMO at k-point 308
  | This appears to be an indirect band gap.
  | Smallest direct gap :      2.70269388 eV for k_point 353 at    0.500000    0.000000    0.000000 (in units of recip. lattice)
  The gap value is above 0.2 eV. Unless you are using a very sparse k-point grid,
  this system is most likely an insulator or a semiconductor.

  Total energy components:
  | Sum of eigenvalues            :        -329.19703505 Ha       -8957.90709690 eV
  | XC energy correction          :         -41.71330796 Ha       -1135.07686179 eV
  | XC potential correction       :          53.87012048 Ha        1465.88056153 eV
  | Free-atom electrostatic energy:        -263.65820313 Ha       -7174.50474194 eV
  | Hartree energy correction     :          -0.04251162 Ha          -1.15679998 eV
  | Entropy correction            :          -0.00000000 Ha          -0.00000000 eV
  | ---------------------------
  | Total energy                  :        -580.74093728 Ha      -15802.76493909 eV
  | Total energy, T -> 0          :        -580.74093728 Ha      -15802.76493909 eV  <-- do not rely on this value for anything but (periodic) metals
  | Electronic free energy        :        -580.74093728 Ha      -15802.76493909 eV

  Derived energy quantities:
  | Kinetic energy                :         582.28954946 Ha       15844.90482056 eV
  | Electrostatic energy          :       -1121.31717877 Ha      -30512.59289786 eV
  | Energy correction for multipole
  | error in Hartree potential    :           0.00065994 Ha           0.01795793 eV
  | Sum of eigenvalues per atom                           :       -4478.95354845 eV
  | Total energy (T->0) per atom                          :       -7901.38246954 eV  <-- do not rely on this value for anything but (periodic) metals
  | Electronic free energy per atom                       :       -7901.38246954 eV
  Evaluating new KS density using the density matrix
  Evaluating density matrix
  Time summed over all CPUs for getting density from density matrix: real work        1.125 s, elapsed        1.212 s
  Integration grid: deviation in total charge (<rho> - N_e) =  -2.600586E-12

  Self-consistency convergence accuracy:
  | Change of charge density      :  0.1090E+00
  | Change of sum of eigenvalues  :  0.1146E+01 eV
  | Change of total energy        :  0.1325E-01 eV


------------------------------------------------------------
  End self-consistency iteration #     1       :  max(cpu_time)    wall_clock(cpu1)
  | Time for this iteration                     :        1.498 s           1.498 s
  | Charge density update                       :        0.649 s           0.649 s
  | Density mixing & preconditioning            :        0.108 s           0.108 s
  | Hartree multipole update                    :        0.001 s           0.000 s
  | Hartree multipole summation                 :        0.193 s           0.194 s
  | Integration                                 :        0.301 s           0.300 s
  | Solution of K.-S. eqns.                     :        0.246 s           0.246 s
  | Total energy evaluation                     :        0.000 s           0.001 s

  Partial memory accounting:
  | Current value for overall tracked memory usage:
  |   Minimum:        5.373 MB (on task 0)
  |   Maximum:        5.373 MB (on task 0)
  |   Average:        5.373 MB
  | Peak value for overall tracked memory usage:
  |   Minimum:       12.386 MB (on task 0 after allocating gradient_basis_wave)
  |   Maximum:       12.619 MB (on task 1 after allocating gradient_basis_wave)
  |   Average:       12.503 MB
  | Largest tracked array allocation so far:
  |   Minimum:        3.845 MB (KS_eigenvector_complex on task 0)
  |   Maximum:        3.845 MB (KS_eigenvector_complex on task 0)
  |   Average:        3.845 MB
  Note:  These values currently only include a subset of arrays which are explicitly tracked.
  The "true" memory usage will be greater.
------------------------------------------------------------

------------------------------------------------------------
          Begin self-consistency iteration #    2

  Date     :  20231005, Time     :  083559.192
------------------------------------------------------------
  Pulay mixing of updated and previous charge densities.
  Renormalizing the density to the exact electron count on the 3D integration grid.
  | Formal number of electrons (from input files) :      28.0000000000
  | Integrated number of electrons on 3D grid     :      27.9961284305
  | Charge integration error                      :      -0.0038715695
  | Normalization factor for density and gradient :       1.0001382895

  Evaluating partitioned Hartree potential by multipole expansion.
  | Original multipole sum: apparent total charge =   0.702380E-13
  | Sum of charges compensated after spline to logarithmic grids =  -0.753599E-04
  | Analytical far-field extrapolation by fixed multipoles:
  | Hartree multipole sum: apparent total charge =   0.000000E+00
  Summing up the Hartree potential.
  Time summed over all CPUs for potential: real work        0.419 s, elapsed        0.455 s
  | RMS charge density error from multipole expansion :   0.982806E-02
  | Average real-space part of the electrostatic potential :      0.33257267 eV

  Integrating Hamiltonian matrix: batch-based integration.
  Time summed over all CPUs for integration: real work        0.549 s, elapsed        0.595 s

  Updating Kohn-Sham eigenvalues and eigenvectors using ELSI and the (modified) LAPACK eigensolver.
  Starting LAPACK eigensolver
  Finished Cholesky decomposition
  | Time :     0.000 s
  Finished transformation to standard eigenproblem
  | Time :     0.000 s
  Finished solving standard eigenproblem
  | Time :     0.001 s
  Finished back-transformation of eigenvectors
  | Time :     0.000 s

  Obtaining occupation numbers and chemical potential using ELSI.
  | Chemical potential (Fermi level):    -5.52693928 eV
  What follows are estimated values for band gap, HOMO, LUMO, etc.
  | They are estimated on a discrete k-point grid and not necessarily exact.
  | For converged numbers, create a DOS and/or band structure plot on a denser k-grid.

  Highest occupied state (VBM) at     -5.57031778 eV (relative to internal zero)
  | Occupation number:      2.00000000
  | K-point:       1 at    0.000000    0.000000    0.000000 (in units of recip. lattice)

  Lowest unoccupied state (CBM) at    -4.95952344 eV (relative to internal zero)
  | Occupation number:      0.00000000
  | K-point:     281 at    0.400000    0.000000    0.400000 (in units of recip. lattice)

  ESTIMATED overall HOMO-LUMO gap:      0.61079433 eV between HOMO at k-point 1 and LUMO at k-point 281
  | This appears to be an indirect band gap.
  | Smallest direct gap :      2.54505602 eV for k_point 1 at    0.000000    0.000000    0.000000 (in units of recip. lattice)
  The gap value is above 0.2 eV. Unless you are using a very sparse k-point grid,
  this system is most likely an insulator or a semiconductor.

  Checking to see if s.c.f. parameters should be adjusted.
  The system likely has a gap. Increased the default Pulay mixing parameter (charge_mix_param). Value:   0.200000 .
  Kept the default occupation width. Value:   0.010000 eV.

  Total energy components:
  | Sum of eigenvalues            :        -328.45395155 Ha       -8937.68676626 eV
  | XC energy correction          :         -41.77956021 Ha       -1136.87967715 eV
  | XC potential correction       :          53.95460124 Ha        1468.17940002 eV
  | Free-atom electrostatic energy:        -263.65820313 Ha       -7174.50474194 eV
  | Hartree energy correction     :          -0.80018960 Ha         -21.77426684 eV
  | Entropy correction            :          -0.00000000 Ha          -0.00000000 eV
  | ---------------------------
  | Total energy                  :        -580.73730325 Ha      -15802.66605217 eV
  | Total energy, T -> 0          :        -580.73730325 Ha      -15802.66605217 eV  <-- do not rely on this value for anything but (periodic) metals
  | Electronic free energy        :        -580.73730325 Ha      -15802.66605217 eV

  Derived energy quantities:
  | Kinetic energy                :         582.53306653 Ha       15851.53125719 eV
  | Electrostatic energy          :       -1121.49080956 Ha      -30517.31763222 eV
  | Energy correction for multipole
  | error in Hartree potential    :           0.01245553 Ha           0.33893227 eV
  | Sum of eigenvalues per atom                           :       -4468.84338313 eV
  | Total energy (T->0) per atom                          :       -7901.33302609 eV  <-- do not rely on this value for anything but (periodic) metals
  | Electronic free energy per atom                       :       -7901.33302609 eV
  Evaluating new KS density using the density matrix
  Evaluating density matrix
  Time summed over all CPUs for getting density from density matrix: real work        1.131 s, elapsed        1.213 s
  Integration grid: deviation in total charge (<rho> - N_e) =  -2.582823E-12

  Self-consistency convergence accuracy:
  | Change of charge density      :  0.1033E+00
  | Change of sum of eigenvalues  :  0.2022E+02 eV
  | Change of total energy        :  0.9889E-01 eV


------------------------------------------------------------
  End self-consistency iteration #     2       :  max(cpu_time)    wall_clock(cpu1)
  | Time for this iteration                     :        1.507 s           1.507 s
  | Charge density update                       :        0.651 s           0.651 s
  | Density mixing & preconditioning            :        0.107 s           0.108 s
  | Hartree multipole update                    :        0.001 s           0.000 s
  | Hartree multipole summation                 :        0.229 s           0.230 s
  | Integration                                 :        0.298 s           0.298 s
  | Solution of K.-S. eqns.                     :        0.220 s           0.220 s
  | Total energy evaluation                     :        0.000 s           0.000 s

  Partial memory accounting:
  | Current value for overall tracked memory usage:
  |   Minimum:        5.373 MB (on task 0)
  |   Maximum:        5.373 MB (on task 0)
  |   Average:        5.373 MB
  | Peak value for overall tracked memory usage:
  |   Minimum:       12.386 MB (on task 0 after allocating gradient_basis_wave)
  |   Maximum:       12.620 MB (on task 1 after allocating gradient_basis_wave)
  |   Average:       12.503 MB
  | Largest tracked array allocation so far:
  |   Minimum:        3.845 MB (KS_eigenvector_complex on task 0)
  |   Maximum:        3.845 MB (KS_eigenvector_complex on task 0)
  |   Average:        3.845 MB
  Note:  These values currently only include a subset of arrays which are explicitly tracked.
  The "true" memory usage will be greater.
------------------------------------------------------------

------------------------------------------------------------
          Begin self-consistency iteration #    3

  Date     :  20231005, Time     :  083600.700
------------------------------------------------------------
  Pulay mixing of updated and previous charge densities.
  Renormalizing the density to the exact electron count on the 3D integration grid.
  | Formal number of electrons (from input files) :      28.0000000000
  | Integrated number of electrons on 3D grid     :      28.0007107062
  | Charge integration error                      :       0.0007107062
  | Normalization factor for density and gradient :       0.9999746183

  Evaluating partitioned Hartree potential by multipole expansion.
  | Original multipole sum: apparent total charge =  -0.422608E-13
  | Sum of charges compensated after spline to logarithmic grids =  -0.787782E-04
  | Analytical far-field extrapolation by fixed multipoles:
  | Hartree multipole sum: apparent total charge =   0.000000E+00
  Summing up the Hartree potential.
  Time summed over all CPUs for potential: real work        0.421 s, elapsed        0.454 s
  | RMS charge density error from multipole expansion :   0.101979E-01
  | Average real-space part of the electrostatic potential :      0.30773986 eV

  Integrating Hamiltonian matrix: batch-based integration.
  Time summed over all CPUs for integration: real work        0.561 s, elapsed        0.602 s

  Updating Kohn-Sham eigenvalues and eigenvectors using ELSI and the (modified) LAPACK eigensolver.
  Starting LAPACK eigensolver
  Finished Cholesky decomposition
  | Time :     0.000 s
  Finished transformation to standard eigenproblem
  | Time :     0.000 s
  Finished solving standard eigenproblem
  | Time :     0.000 s
  Finished back-transformation of eigenvectors
  | Time :     0.000 s

  Obtaining occupation numbers and chemical potential using ELSI.
  | Chemical potential (Fermi level):    -5.56524317 eV
  What follows are estimated values for band gap, HOMO, LUMO, etc.
  | They are estimated on a discrete k-point grid and not necessarily exact.
  | For converged numbers, create a DOS and/or band structure plot on a denser k-grid.

  Highest occupied state (VBM) at     -5.60865403 eV (relative to internal zero)
  | Occupation number:      2.00000000
  | K-point:       1 at    0.000000    0.000000    0.000000 (in units of recip. lattice)

  Lowest unoccupied state (CBM) at    -4.97014266 eV (relative to internal zero)
  | Occupation number:      0.00000000
  | K-point:     281 at    0.400000    0.000000    0.400000 (in units of recip. lattice)

  ESTIMATED overall HOMO-LUMO gap:      0.63851137 eV between HOMO at k-point 1 and LUMO at k-point 281
  | This appears to be an indirect band gap.
  | Smallest direct gap :      2.55421675 eV for k_point 1 at    0.000000    0.000000    0.000000 (in units of recip. lattice)
  The gap value is above 0.2 eV. Unless you are using a very sparse k-point grid,
  this system is most likely an insulator or a semiconductor.

  Total energy components:
  | Sum of eigenvalues            :        -328.62060429 Ha       -8942.22161804 eV
  | XC energy correction          :         -41.76508684 Ha       -1136.48583665 eV
  | XC potential correction       :          53.93579683 Ha        1467.66770592 eV
  | Free-atom electrostatic energy:        -263.65820313 Ha       -7174.50474194 eV
  | Hartree energy correction     :          -0.62901084 Ha         -17.11625578 eV
  | Entropy correction            :          -0.00000000 Ha          -0.00000000 eV
  | ---------------------------
  | Total energy                  :        -580.73710827 Ha      -15802.66074649 eV
  | Total energy, T -> 0          :        -580.73710827 Ha      -15802.66074649 eV  <-- do not rely on this value for anything but (periodic) metals
  | Electronic free energy        :        -580.73710827 Ha      -15802.66074649 eV

  Derived energy quantities:
  | Kinetic energy                :         582.32461848 Ha       15845.85909735 eV
  | Electrostatic energy          :       -1121.29663991 Ha      -30512.03400720 eV
  | Energy correction for multipole
  | error in Hartree potential    :           0.01301605 Ha           0.35418469 eV
  | Sum of eigenvalues per atom                           :       -4471.11080902 eV
  | Total energy (T->0) per atom                          :       -7901.33037325 eV  <-- do not rely on this value for anything but (periodic) metals
  | Electronic free energy per atom                       :       -7901.33037325 eV
  Evaluating new KS density using the density matrix
  Evaluating density matrix
  Time summed over all CPUs for getting density from density matrix: real work        1.183 s, elapsed        1.281 s
  Integration grid: deviation in total charge (<rho> - N_e) =  -2.504663E-12

  Self-consistency convergence accuracy:
  | Change of charge density      :  0.1643E-01
  | Change of sum of eigenvalues  : -0.4535E+01 eV
  | Change of total energy        :  0.5306E-02 eV


------------------------------------------------------------
  End self-consistency iteration #     3       :  max(cpu_time)    wall_clock(cpu1)
  | Time for this iteration                     :        1.574 s           1.573 s
  | Charge density update                       :        0.684 s           0.684 s
  | Density mixing & preconditioning            :        0.109 s           0.108 s
  | Hartree multipole update                    :        0.001 s           0.001 s
  | Hartree multipole summation                 :        0.229 s           0.229 s
  | Integration                                 :        0.302 s           0.301 s
  | Solution of K.-S. eqns.                     :        0.249 s           0.250 s
  | Total energy evaluation                     :        0.000 s           0.000 s

  Partial memory accounting:
  | Current value for overall tracked memory usage:
  |   Minimum:        5.373 MB (on task 0)
  |   Maximum:        5.373 MB (on task 0)
  |   Average:        5.373 MB
  | Peak value for overall tracked memory usage:
  |   Minimum:       12.386 MB (on task 0 after allocating gradient_basis_wave)
  |   Maximum:       12.620 MB (on task 1 after allocating gradient_basis_wave)
  |   Average:       12.503 MB
  | Largest tracked array allocation so far:
  |   Minimum:        3.845 MB (KS_eigenvector_complex on task 0)
  |   Maximum:        3.845 MB (KS_eigenvector_complex on task 0)
  |   Average:        3.845 MB
  Note:  These values currently only include a subset of arrays which are explicitly tracked.
  The "true" memory usage will be greater.
------------------------------------------------------------

------------------------------------------------------------
          Begin self-consistency iteration #    4

  Date     :  20231005, Time     :  083602.273
------------------------------------------------------------
  Pulay mixing of updated and previous charge densities.
  Renormalizing the density to the exact electron count on the 3D integration grid.
  | Formal number of electrons (from input files) :      28.0000000000
  | Integrated number of electrons on 3D grid     :      28.0003667708
  | Charge integration error                      :       0.0003667708
  | Normalization factor for density and gradient :       0.9999869012

  Evaluating partitioned Hartree potential by multipole expansion.
  | Original multipole sum: apparent total charge =  -0.181383E-13
  | Sum of charges compensated after spline to logarithmic grids =  -0.842676E-04
  | Analytical far-field extrapolation by fixed multipoles:
  | Hartree multipole sum: apparent total charge =   0.000000E+00
  Summing up the Hartree potential.
  Time summed over all CPUs for potential: real work        0.455 s, elapsed        0.520 s
  | RMS charge density error from multipole expansion :   0.108744E-01
  | Average real-space part of the electrostatic potential :      0.30561518 eV

  Integrating Hamiltonian matrix: batch-based integration.
  Time summed over all CPUs for integration: real work        0.563 s, elapsed        0.615 s

  Updating Kohn-Sham eigenvalues and eigenvectors using ELSI and the (modified) LAPACK eigensolver.
  Starting LAPACK eigensolver
  Finished Cholesky decomposition
  | Time :     0.000 s
  Finished transformation to standard eigenproblem
  | Time :     0.000 s
  Finished solving standard eigenproblem
  | Time :     0.000 s
  Finished back-transformation of eigenvectors
  | Time :     0.000 s

  Obtaining occupation numbers and chemical potential using ELSI.
  | Chemical potential (Fermi level):    -5.56451879 eV
  What follows are estimated values for band gap, HOMO, LUMO, etc.
  | They are estimated on a discrete k-point grid and not necessarily exact.
  | For converged numbers, create a DOS and/or band structure plot on a denser k-grid.

  Highest occupied state (VBM) at     -5.60787934 eV (relative to internal zero)
  | Occupation number:      2.00000000
  | K-point:       1 at    0.000000    0.000000    0.000000 (in units of recip. lattice)

  Lowest unoccupied state (CBM) at    -4.96307275 eV (relative to internal zero)
  | Occupation number:      0.00000000
  | K-point:     281 at    0.400000    0.000000    0.400000 (in units of recip. lattice)

  ESTIMATED overall HOMO-LUMO gap:      0.64480659 eV between HOMO at k-point 1 and LUMO at k-point 281
  | This appears to be an indirect band gap.
  | Smallest direct gap :      2.55044978 eV for k_point 1 at    0.000000    0.000000    0.000000 (in units of recip. lattice)
  The gap value is above 0.2 eV. Unless you are using a very sparse k-point grid,
  this system is most likely an insulator or a semiconductor.

  Total energy components:
  | Sum of eigenvalues            :        -328.69101263 Ha       -8944.13752632 eV
  | XC energy correction          :         -41.76011679 Ha       -1136.35059482 eV
  | XC potential correction       :          53.92916849 Ha        1467.48733959 eV
  | Free-atom electrostatic energy:        -263.65820313 Ha       -7174.50474194 eV
  | Hartree energy correction     :          -0.55686122 Ha         -15.15296473 eV
  | Entropy correction            :          -0.00000000 Ha          -0.00000000 eV
  | ---------------------------
  | Total energy                  :        -580.73702528 Ha      -15802.65848822 eV
  | Total energy, T -> 0          :        -580.73702528 Ha      -15802.65848822 eV  <-- do not rely on this value for anything but (periodic) metals
  | Electronic free energy        :        -580.73702528 Ha      -15802.65848822 eV

  Derived energy quantities:
  | Kinetic energy                :         582.21204555 Ha       15842.79583187 eV
  | Electrostatic energy          :       -1121.18895403 Ha      -30509.10372527 eV
  | Energy correction for multipole
  | error in Hartree potential    :           0.01392184 Ha           0.37883262 eV
  | Sum of eigenvalues per atom                           :       -4472.06876316 eV
  | Total energy (T->0) per atom                          :       -7901.32924411 eV  <-- do not rely on this value for anything but (periodic) metals
  | Electronic free energy per atom                       :       -7901.32924411 eV
  Evaluating new KS density using the density matrix
  Evaluating density matrix
  Time summed over all CPUs for getting density from density matrix: real work        1.440 s, elapsed        1.515 s
  Integration grid: deviation in total charge (<rho> - N_e) =  -2.575717E-12

  Self-consistency convergence accuracy:
  | Change of charge density      :  0.8092E-02
  | Change of sum of eigenvalues  : -0.1916E+01 eV
  | Change of total energy        :  0.2258E-02 eV


------------------------------------------------------------
  End self-consistency iteration #     4       :  max(cpu_time)    wall_clock(cpu1)
  | Time for this iteration                     :        1.716 s           1.717 s
  | Charge density update                       :        0.803 s           0.803 s
  | Density mixing & preconditioning            :        0.110 s           0.110 s
  | Hartree multipole update                    :        0.001 s           0.001 s
  | Hartree multipole summation                 :        0.261 s           0.261 s
  | Integration                                 :        0.308 s           0.309 s
  | Solution of K.-S. eqns.                     :        0.232 s           0.232 s
  | Total energy evaluation                     :        0.000 s           0.001 s

  Partial memory accounting:
  | Current value for overall tracked memory usage:
  |   Minimum:        5.373 MB (on task 0)
  |   Maximum:        5.373 MB (on task 0)
  |   Average:        5.373 MB
  | Peak value for overall tracked memory usage:
  |   Minimum:       12.386 MB (on task 0 after allocating gradient_basis_wave)
  |   Maximum:       12.620 MB (on task 1 after allocating gradient_basis_wave)
  |   Average:       12.503 MB
  | Largest tracked array allocation so far:
  |   Minimum:        3.845 MB (KS_eigenvector_complex on task 0)
  |   Maximum:        3.845 MB (KS_eigenvector_complex on task 0)
  |   Average:        3.845 MB
  Note:  These values currently only include a subset of arrays which are explicitly tracked.
  The "true" memory usage will be greater.
------------------------------------------------------------

------------------------------------------------------------
          Begin self-consistency iteration #    5

  Date     :  20231005, Time     :  083603.990
------------------------------------------------------------
  Pulay mixing of updated and previous charge densities.
  Renormalizing the density to the exact electron count on the 3D integration grid.
  | Formal number of electrons (from input files) :      28.0000000000
  | Integrated number of electrons on 3D grid     :      28.0007968969
  | Charge integration error                      :       0.0007968969
  | Normalization factor for density and gradient :       0.9999715402

  Evaluating partitioned Hartree potential by multipole expansion.
  | Original multipole sum: apparent total charge =  -0.219654E-13
  | Sum of charges compensated after spline to logarithmic grids =  -0.847010E-04
  | Analytical far-field extrapolation by fixed multipoles:
  | Hartree multipole sum: apparent total charge =   0.000000E+00
  Summing up the Hartree potential.
  Time summed over all CPUs for potential: real work        0.426 s, elapsed        0.461 s
  | RMS charge density error from multipole expansion :   0.109500E-01
  | Average real-space part of the electrostatic potential :      0.29128280 eV

  Integrating Hamiltonian matrix: batch-based integration.
  Time summed over all CPUs for integration: real work        0.615 s, elapsed        0.671 s

  Updating Kohn-Sham eigenvalues and eigenvectors using ELSI and the (modified) LAPACK eigensolver.
  Starting LAPACK eigensolver
  Finished Cholesky decomposition
  | Time :     0.001 s
  Finished transformation to standard eigenproblem
  | Time :     0.000 s
  Finished solving standard eigenproblem
  | Time :     0.000 s
  Finished back-transformation of eigenvectors
  | Time :     0.000 s

  Obtaining occupation numbers and chemical potential using ELSI.
  | Chemical potential (Fermi level):    -5.57564907 eV
  What follows are estimated values for band gap, HOMO, LUMO, etc.
  | They are estimated on a discrete k-point grid and not necessarily exact.
  | For converged numbers, create a DOS and/or band structure plot on a denser k-grid.

  Highest occupied state (VBM) at     -5.61905665 eV (relative to internal zero)
  | Occupation number:      2.00000000
  | K-point:       1 at    0.000000    0.000000    0.000000 (in units of recip. lattice)

  Lowest unoccupied state (CBM) at    -4.96800523 eV (relative to internal zero)
  | Occupation number:      0.00000000
  | K-point:     281 at    0.400000    0.000000    0.400000 (in units of recip. lattice)

  ESTIMATED overall HOMO-LUMO gap:      0.65105143 eV between HOMO at k-point 1 and LUMO at k-point 281
  | This appears to be an indirect band gap.
  | Smallest direct gap :      2.55428612 eV for k_point 1 at    0.000000    0.000000    0.000000 (in units of recip. lattice)
  The gap value is above 0.2 eV. Unless you are using a very sparse k-point grid,
  this system is most likely an insulator or a semiconductor.

  Total energy components:
  | Sum of eigenvalues            :        -328.73098525 Ha       -8945.22523663 eV
  | XC energy correction          :         -41.75976562 Ha       -1136.34103891 eV
  | XC potential correction       :          53.92849192 Ha        1467.46892925 eV
  | Free-atom electrostatic energy:        -263.65820313 Ha       -7174.50474194 eV
  | Hartree energy correction     :          -0.51652051 Ha         -14.05523811 eV
  | Entropy correction            :          -0.00000000 Ha          -0.00000000 eV
  | ---------------------------
  | Total energy                  :        -580.73698258 Ha      -15802.65732634 eV
  | Total energy, T -> 0          :        -580.73698258 Ha      -15802.65732634 eV  <-- do not rely on this value for anything but (periodic) metals
  | Electronic free energy        :        -580.73698258 Ha      -15802.65732634 eV

  Derived energy quantities:
  | Kinetic energy                :         582.22608799 Ha       15843.17794622 eV
  | Electrostatic energy          :       -1121.20330495 Ha      -30509.49423366 eV
  | Energy correction for multipole
  | error in Hartree potential    :           0.01395206 Ha           0.37965480 eV
  | Sum of eigenvalues per atom                           :       -4472.61261831 eV
  | Total energy (T->0) per atom                          :       -7901.32866317 eV  <-- do not rely on this value for anything but (periodic) metals
  | Electronic free energy per atom                       :       -7901.32866317 eV
  Evaluating new KS density using the density matrix
  Evaluating density matrix
  Time summed over all CPUs for getting density from density matrix: real work        1.221 s, elapsed        1.333 s
  Integration grid: deviation in total charge (<rho> - N_e) =  -2.494005E-12

  Self-consistency convergence accuracy:
  | Change of charge density      :  0.3069E-02
  | Change of sum of eigenvalues  : -0.1088E+01 eV
  | Change of total energy        :  0.1162E-02 eV


------------------------------------------------------------
  End self-consistency iteration #     5       :  max(cpu_time)    wall_clock(cpu1)
  | Time for this iteration                     :        1.621 s           1.621 s
  | Charge density update                       :        0.711 s           0.712 s
  | Density mixing & preconditioning            :        0.110 s           0.110 s
  | Hartree multipole update                    :        0.001 s           0.000 s
  | Hartree multipole summation                 :        0.232 s           0.233 s
  | Integration                                 :        0.336 s           0.336 s
  | Solution of K.-S. eqns.                     :        0.229 s           0.230 s
  | Total energy evaluation                     :        0.000 s           0.000 s

  Partial memory accounting:
  | Current value for overall tracked memory usage:
  |   Minimum:        5.373 MB (on task 0)
  |   Maximum:        5.373 MB (on task 0)
  |   Average:        5.373 MB
  | Peak value for overall tracked memory usage:
  |   Minimum:       12.386 MB (on task 0 after allocating gradient_basis_wave)
  |   Maximum:       12.620 MB (on task 1 after allocating gradient_basis_wave)
  |   Average:       12.503 MB
  | Largest tracked array allocation so far:
  |   Minimum:        3.845 MB (KS_eigenvector_complex on task 0)
  |   Maximum:        3.845 MB (KS_eigenvector_complex on task 0)
  |   Average:        3.845 MB
  Note:  These values currently only include a subset of arrays which are explicitly tracked.
  The "true" memory usage will be greater.
------------------------------------------------------------

------------------------------------------------------------
          Begin self-consistency iteration #    6

  Date     :  20231005, Time     :  083605.611
------------------------------------------------------------
  Pulay mixing of updated and previous charge densities.
  Renormalizing the density to the exact electron count on the 3D integration grid.
  | Formal number of electrons (from input files) :      28.0000000000
  | Integrated number of electrons on 3D grid     :      27.9999795613
  | Charge integration error                      :      -0.0000204387
  | Normalization factor for density and gradient :       1.0000007300

  Evaluating partitioned Hartree potential by multipole expansion.
  | Original multipole sum: apparent total charge =  -0.327308E-13
  | Sum of charges compensated after spline to logarithmic grids =  -0.845209E-04
  | Analytical far-field extrapolation by fixed multipoles:
  | Hartree multipole sum: apparent total charge =   0.000000E+00
  Summing up the Hartree potential.
  Time summed over all CPUs for potential: real work        0.434 s, elapsed        0.476 s
  | RMS charge density error from multipole expansion :   0.109083E-01
  | Average real-space part of the electrostatic potential :      0.28946228 eV

  Integrating Hamiltonian matrix: batch-based integration.
  Time summed over all CPUs for integration: real work        0.611 s, elapsed        0.677 s

  Updating Kohn-Sham eigenvalues and eigenvectors using ELSI and the (modified) LAPACK eigensolver.
  Starting LAPACK eigensolver
  Finished Cholesky decomposition
  | Time :     0.000 s
  Finished transformation to standard eigenproblem
  | Time :     0.000 s
  Finished solving standard eigenproblem
  | Time :     0.000 s
  Finished back-transformation of eigenvectors
  | Time :     0.000 s

  Obtaining occupation numbers and chemical potential using ELSI.
  | Chemical potential (Fermi level):    -5.57951999 eV
  What follows are estimated values for band gap, HOMO, LUMO, etc.
  | They are estimated on a discrete k-point grid and not necessarily exact.
  | For converged numbers, create a DOS and/or band structure plot on a denser k-grid.

  Highest occupied state (VBM) at     -5.62290715 eV (relative to internal zero)
  | Occupation number:      2.00000000
  | K-point:       1 at    0.000000    0.000000    0.000000 (in units of recip. lattice)

  Lowest unoccupied state (CBM) at    -4.96971652 eV (relative to internal zero)
  | Occupation number:      0.00000000
  | K-point:     281 at    0.400000    0.000000    0.400000 (in units of recip. lattice)

  ESTIMATED overall HOMO-LUMO gap:      0.65319063 eV between HOMO at k-point 1 and LUMO at k-point 281
  | This appears to be an indirect band gap.
  | Smallest direct gap :      2.55566977 eV for k_point 1 at    0.000000    0.000000    0.000000 (in units of recip. lattice)
  The gap value is above 0.2 eV. Unless you are using a very sparse k-point grid,
  this system is most likely an insulator or a semiconductor.

  Total energy components:
  | Sum of eigenvalues            :        -328.73647055 Ha       -8945.37449938 eV
  | XC energy correction          :         -41.75925304 Ha       -1136.32709093 eV
  | XC potential correction       :          53.92785459 Ha        1467.45158654 eV
  | Free-atom electrostatic energy:        -263.65820313 Ha       -7174.50474194 eV
  | Hartree energy correction     :          -0.51090661 Ha         -13.90247616 eV
  | Entropy correction            :          -0.00000000 Ha          -0.00000000 eV
  | ---------------------------
  | Total energy                  :        -580.73697874 Ha      -15802.65722187 eV
  | Total energy, T -> 0          :        -580.73697874 Ha      -15802.65722187 eV  <-- do not rely on this value for anything but (periodic) metals
  | Electronic free energy        :        -580.73697874 Ha      -15802.65722187 eV

  Derived energy quantities:
  | Kinetic energy                :         582.22703888 Ha       15843.20382114 eV
  | Electrostatic energy          :       -1121.20476457 Ha      -30509.53395208 eV
  | Energy correction for multipole
  | error in Hartree potential    :           0.01391054 Ha           0.37852509 eV
  | Sum of eigenvalues per atom                           :       -4472.68724969 eV
  | Total energy (T->0) per atom                          :       -7901.32861093 eV  <-- do not rely on this value for anything but (periodic) metals
  | Electronic free energy per atom                       :       -7901.32861093 eV
  Evaluating new KS density using the density matrix
  Evaluating density matrix
  Time summed over all CPUs for getting density from density matrix: real work        1.348 s, elapsed        1.457 s
  Integration grid: deviation in total charge (<rho> - N_e) =  -2.533085E-12

  Self-consistency convergence accuracy:
  | Change of charge density      :  0.5573E-03
  | Change of sum of eigenvalues  : -0.1493E+00 eV
  | Change of total energy        :  0.1045E-03 eV


------------------------------------------------------------
  End self-consistency iteration #     6       :  max(cpu_time)    wall_clock(cpu1)
  | Time for this iteration                     :        1.816 s           1.816 s
  | Charge density update                       :        0.799 s           0.799 s
  | Density mixing & preconditioning            :        0.112 s           0.111 s
  | Hartree multipole update                    :        0.001 s           0.001 s
  | Hartree multipole summation                 :        0.239 s           0.240 s
  | Integration                                 :        0.339 s           0.339 s
  | Solution of K.-S. eqns.                     :        0.325 s           0.325 s
  | Total energy evaluation                     :        0.001 s           0.001 s

  Partial memory accounting:
  | Current value for overall tracked memory usage:
  |   Minimum:        5.373 MB (on task 0)
  |   Maximum:        5.373 MB (on task 0)
  |   Average:        5.373 MB
  | Peak value for overall tracked memory usage:
  |   Minimum:       12.386 MB (on task 0 after allocating gradient_basis_wave)
  |   Maximum:       12.620 MB (on task 1 after allocating gradient_basis_wave)
  |   Average:       12.503 MB
  | Largest tracked array allocation so far:
  |   Minimum:        3.845 MB (KS_eigenvector_complex on task 0)
  |   Maximum:        3.845 MB (KS_eigenvector_complex on task 0)
  |   Average:        3.845 MB
  Note:  These values currently only include a subset of arrays which are explicitly tracked.
  The "true" memory usage will be greater.
------------------------------------------------------------

------------------------------------------------------------
          Begin self-consistency iteration #    7

  Date     :  20231005, Time     :  083607.427
------------------------------------------------------------
  Pulay mixing of updated and previous charge densities.
  Renormalizing the density to the exact electron count on the 3D integration grid.
  | Formal number of electrons (from input files) :      28.0000000000
  | Integrated number of electrons on 3D grid     :      27.9999116797
  | Charge integration error                      :      -0.0000883203
  | Normalization factor for density and gradient :       1.0000031543

  Evaluating partitioned Hartree potential by multipole expansion.
  | Original multipole sum: apparent total charge =  -0.661267E-13
  | Sum of charges compensated after spline to logarithmic grids =  -0.850096E-04
  | Analytical far-field extrapolation by fixed multipoles:
  | Hartree multipole sum: apparent total charge =   0.000000E+00
  Summing up the Hartree potential.
  Time summed over all CPUs for potential: real work        0.417 s, elapsed        0.428 s
  | RMS charge density error from multipole expansion :   0.109598E-01
  | Average real-space part of the electrostatic potential :      0.29200248 eV

  Integrating Hamiltonian matrix: batch-based integration.
  Time summed over all CPUs for integration: real work        0.664 s, elapsed        0.694 s

[...]
  | Hartree energy correction     :          -0.51810581 Ha         -14.09837649 eV
  | Entropy correction            :          -0.00000000 Ha          -0.00000000 eV
  | ---------------------------
  | Total energy                  :        -580.73698041 Ha      -15802.65726721 eV
  | Total energy, T -> 0          :        -580.73698041 Ha      -15802.65726721 eV  <-- do not rely on this value for anything but (periodic) metals
  | Electronic free energy        :        -580.73698041 Ha      -15802.65726721 eV

  Derived energy quantities:
  | Kinetic energy                :         582.23074217 Ha       15843.30459279 eV
  | Electrostatic energy          :       -1121.20792300 Ha      -30509.61989730 eV
  | Energy correction for multipole
  | error in Hartree potential    :           0.01399344 Ha           0.38078084 eV
  | Sum of eigenvalues per atom                           :       -4472.59160945 eV
  | Total energy (T->0) per atom                          :       -7901.32863361 eV  <-- do not rely on this value for anything but (periodic) metals
  | Electronic free energy per atom                       :       -7901.32863361 eV
  Evaluating new KS density using the density matrix
  Evaluating density matrix
  Time summed over all CPUs for getting density from density matrix: real work        1.303 s, elapsed        1.336 s
  Integration grid: deviation in total charge (<rho> - N_e) =  -2.614797E-12

  Self-consistency convergence accuracy:
  | Change of charge density      :  0.4901E-05
  | Change of sum of eigenvalues  :  0.2895E-02 eV
  | Change of total energy        : -0.1348E-05 eV


------------------------------------------------------------
  End self-consistency iteration #    10       :  max(cpu_time)    wall_clock(cpu1)
  | Time for this iteration                     :        1.680 s           1.680 s
  | Charge density update                       :        0.708 s           0.708 s
  | Density mixing & preconditioning            :        0.102 s           0.102 s
  | Hartree multipole update                    :        0.001 s           0.001 s
  | Hartree multipole summation                 :        0.216 s           0.216 s
  | Integration                                 :        0.397 s           0.398 s
  | Solution of K.-S. eqns.                     :        0.254 s           0.255 s
  | Total energy evaluation                     :        0.000 s           0.000 s

  Partial memory accounting:
  | Current value for overall tracked memory usage:
  |   Minimum:        5.373 MB (on task 0)
  |   Maximum:        5.373 MB (on task 0)
  |   Average:        5.373 MB
  | Peak value for overall tracked memory usage:
  |   Minimum:       12.387 MB (on task 0 after allocating gradient_basis_wave)
  |   Maximum:       12.620 MB (on task 1 after allocating gradient_basis_wave)
  |   Average:       12.503 MB
  | Largest tracked array allocation so far:
  |   Minimum:        3.845 MB (KS_eigenvector_complex on task 0)
  |   Maximum:        3.845 MB (KS_eigenvector_complex on task 0)
  |   Average:        3.845 MB
  Note:  These values currently only include a subset of arrays which are explicitly tracked.
  The "true" memory usage will be greater.
------------------------------------------------------------

------------------------------------------------------------
          Begin self-consistency iteration #   11

  Date     :  20231005, Time     :  083613.964
------------------------------------------------------------
  Pulay mixing of updated and previous charge densities.
  Renormalizing the density to the exact electron count on the 3D integration grid.
  | Formal number of electrons (from input files) :      28.0000000000
  | Integrated number of electrons on 3D grid     :      28.0000001162
  | Charge integration error                      :       0.0000001162
  | Normalization factor for density and gradient :       0.9999999958

  Evaluating partitioned Hartree potential by multipole expansion.
  | Original multipole sum: apparent total charge =  -0.761753E-13
  | Sum of charges compensated after spline to logarithmic grids =  -0.850766E-04
  | Analytical far-field extrapolation by fixed multipoles:
  | Hartree multipole sum: apparent total charge =   0.000000E+00
  Summing up the Hartree potential.
  Time summed over all CPUs for potential: real work        0.462 s, elapsed        0.484 s
  | RMS charge density error from multipole expansion :   0.109624E-01
  | Average real-space part of the electrostatic potential :      0.29231209 eV

  Integrating Hamiltonian matrix: batch-based integration.
  Time summed over all CPUs for integration: real work        1.035 s, elapsed        1.066 s

  Updating Kohn-Sham eigenvalues and eigenvectors using ELSI and the (modified) LAPACK eigensolver.
  Starting LAPACK eigensolver
  Finished Cholesky decomposition
  | Time :     0.001 s
  Finished transformation to standard eigenproblem
  | Time :     0.000 s
  Finished solving standard eigenproblem
  | Time :     0.000 s
  Finished back-transformation of eigenvectors
  | Time :     0.000 s

  Obtaining occupation numbers and chemical potential using ELSI.
  | Chemical potential (Fermi level):    -5.57607321 eV
  What follows are estimated values for band gap, HOMO, LUMO, etc.
  | They are estimated on a discrete k-point grid and not necessarily exact.
  | For converged numbers, create a DOS and/or band structure plot on a denser k-grid.

  Highest occupied state (VBM) at     -5.61943618 eV (relative to internal zero)
  | Occupation number:      2.00000000
  | K-point:       1 at    0.000000    0.000000    0.000000 (in units of recip. lattice)

  Lowest unoccupied state (CBM) at    -4.96766122 eV (relative to internal zero)
  | Occupation number:      0.00000000
  | K-point:     281 at    0.400000    0.000000    0.400000 (in units of recip. lattice)

  ESTIMATED overall HOMO-LUMO gap:      0.65177496 eV between HOMO at k-point 1 and LUMO at k-point 281
  | This appears to be an indirect band gap.
  | Smallest direct gap :      2.55429449 eV for k_point 1 at    0.000000    0.000000    0.000000 (in units of recip. lattice)
  The gap value is above 0.2 eV. Unless you are using a very sparse k-point grid,
  this system is most likely an insulator or a semiconductor.

  Total energy components:
  | Sum of eigenvalues            :        -328.72944717 Ha       -8945.18338350 eV
  | XC energy correction          :         -41.75979919 Ha       -1136.34195230 eV
  | XC potential correction       :          53.92856873 Ha        1467.47101928 eV
  | Free-atom electrostatic energy:        -263.65820313 Ha       -7174.50474194 eV
  | Hartree energy correction     :          -0.51809965 Ha         -14.09820867 eV
  | Entropy correction            :          -0.00000000 Ha          -0.00000000 eV
  | ---------------------------
  | Total energy                  :        -580.73698040 Ha      -15802.65726713 eV
  | Total energy, T -> 0          :        -580.73698040 Ha      -15802.65726713 eV  <-- do not rely on this value for anything but (periodic) metals
  | Electronic free energy        :        -580.73698040 Ha      -15802.65726713 eV

  Derived energy quantities:
  | Kinetic energy                :         582.23073927 Ha       15843.30451411 eV
  | Electrostatic energy          :       -1121.20792049 Ha      -30509.61982893 eV
  | Energy correction for multipole
  | error in Hartree potential    :           0.01399339 Ha           0.38077950 eV
  | Sum of eigenvalues per atom                           :       -4472.59169175 eV
  | Total energy (T->0) per atom                          :       -7901.32863356 eV  <-- do not rely on this value for anything but (periodic) metals
  | Electronic free energy per atom                       :       -7901.32863356 eV
  Preliminary charge convergence reached. Turning off preconditioner.


  Self-consistency convergence accuracy:
  | Change of charge density      :  0.3604E-06
  | Change of sum of eigenvalues  : -0.1646E-03 eV
  | Change of total energy        :  0.8530E-07 eV

  Writing Kohn-Sham eigenvalues.
  K-point:       1 at    0.000000    0.000000    0.000000 (in units of recip. lattice)

  State    Occupation    Eigenvalue [Ha]    Eigenvalue [eV]
      1       2.00000         -65.763097        -1789.50491
      2       2.00000         -65.763097        -1789.50491
      3       2.00000          -5.121993         -139.37653
      4       2.00000          -5.121745         -139.36976
      5       2.00000          -3.505853          -95.39911
      6       2.00000          -3.505853          -95.39911
      7       2.00000          -3.505853          -95.39911
      8       2.00000          -3.505296          -95.38397
      9       2.00000          -3.505296          -95.38397
     10       2.00000          -3.505296          -95.38397
     11       2.00000          -0.640145          -17.41924
     12       2.00000          -0.206510           -5.61944
     13       2.00000          -0.206510           -5.61944
     14       2.00000          -0.206510           -5.61944
     15       0.00000          -0.112642           -3.06514
     16       0.00000          -0.112642           -3.06514
     17       0.00000          -0.112642           -3.06514
     18       0.00000          -0.092624           -2.52044
     19       0.00000           0.083118            2.26176
     20       0.00000           0.083118            2.26176

  What follows are estimated values for band gap, HOMO, LUMO, etc.
  | They are estimated on a discrete k-point grid and not necessarily exact.
  | For converged numbers, create a DOS and/or band structure plot on a denser k-grid.

  Highest occupied state (VBM) at     -5.61943618 eV (relative to internal zero)
  | Occupation number:      2.00000000
  | K-point:       1 at    0.000000    0.000000    0.000000 (in units of recip. lattice)

  Lowest unoccupied state (CBM) at    -4.96766122 eV (relative to internal zero)
  | Occupation number:      0.00000000
  | K-point:     281 at    0.400000    0.000000    0.400000 (in units of recip. lattice)

  ESTIMATED overall HOMO-LUMO gap:      0.65177496 eV between HOMO at k-point 1 and LUMO at k-point 281
  | This appears to be an indirect band gap.
  | Smallest direct gap :      2.55429449 eV for k_point 1 at    0.000000    0.000000    0.000000 (in units of recip. lattice)
  The gap value is above 0.2 eV. Unless you are using a very sparse k-point grid,
  this system is most likely an insulator or a semiconductor.
  | Chemical Potential                          :    -5.57607321 eV

  Self-consistency cycle converged.


------------------------------------------------------------
  End self-consistency iteration #    11       :  max(cpu_time)    wall_clock(cpu1)
  | Time for this iteration                     :        1.103 s           1.103 s
  | Charge density update                       :        0.000 s           0.000 s
  | Density mixing                              :        0.104 s           0.104 s
  | Hartree multipole update                    :        0.001 s           0.000 s
  | Hartree multipole summation                 :        0.244 s           0.244 s
  | Integration                                 :        0.535 s           0.535 s
  | Solution of K.-S. eqns.                     :        0.220 s           0.220 s
  | Total energy evaluation                     :        0.000 s           0.000 s

  Partial memory accounting:
  | Current value for overall tracked memory usage:
  |   Minimum:        5.373 MB (on task 0)
  |   Maximum:        5.373 MB (on task 0)
  |   Average:        5.373 MB
  | Peak value for overall tracked memory usage:
  |   Minimum:       12.387 MB (on task 0 after allocating gradient_basis_wave)
  |   Maximum:       12.620 MB (on task 1 after allocating gradient_basis_wave)
  |   Average:       12.503 MB
  | Largest tracked array allocation so far:
  |   Minimum:        3.845 MB (KS_eigenvector_complex on task 0)
  |   Maximum:        3.845 MB (KS_eigenvector_complex on task 0)
  |   Average:        3.845 MB
  Note:  These values currently only include a subset of arrays which are explicitly tracked.
  The "true" memory usage will be greater.
------------------------------------------------------------

  Energy and forces in a compact form:
  | Total energy uncorrected      :         -0.158026572671290E+05 eV
  | Total energy corrected        :         -0.158026572671290E+05 eV  <-- do not rely on this value for anything but (periodic) metals
  | Electronic free energy        :         -0.158026572671290E+05 eV

  ------------------------------------
  Start decomposition of the XC Energy
  ------------------------------------
  X and C from original XC functional choice
  Hartree-Fock Energy :          0.000000000 Ha              0.000000000 eV
  X Energy            :        -40.667493910 Ha          -1106.618813424 eV
  C Energy            :         -1.092305277 Ha            -29.723138879 eV
  XC Energy w/o HF    :        -41.759799186 Ha          -1136.341952303 eV
  Total XC Energy     :        -41.759799186 Ha          -1136.341952303 eV
  ------------------------------------
  LDA X and C from self-consistent density
  X Energy LDA        :        -37.612702500 Ha          -1023.493709816 eV
  C Energy LDA        :         -2.145141746 Ha            -58.372276863 eV
  ------------------------------------
  End decomposition of the XC Energy
  ------------------------------------

------------------------------------------------------------

------------------------------------------------------------------------------
  Final output of selected total energy values:

  The following output summarizes some interesting total energy values
  at the end of a run (AFTER all relaxation, molecular dynamics, etc.).

  | Total energy of the DFT / Hartree-Fock s.c.f. calculation      :         -15802.657267129 eV
  | Final zero-broadening corrected energy (caution - metals only) :         -15802.657267129 eV
  | For reference only, the value of 1 Hartree used in FHI-aims is :             27.211384500 eV
  | For reference only, the overall average (free atom contribution
  | + realspace contribution) of the electrostatic potential after
  | s.c.f. convergence is                                          :            -12.499296938 eV

  Before relying on these values, please be sure to understand exactly which
  total energy value is referred to by a given number. Different objects may
  all carry the same name 'total energy'. Definitions:

  Total energy of the DFT / Hartree-Fock s.c.f. calculation:
  | Note that this energy does not include ANY quantities calculated after the
  | s.c.f. cycle, in particular not ANY RPA, MP2, etc. many-body perturbation terms.

  Final zero-broadening corrected energy:
  | For metallic systems only, a broadening of the occupation numbers at the Fermi
  | level can be extrapolated back to zero broadening by an electron-gas inspired
  | formula. For all systems that are not real metals, this value can be
  | meaningless and should be avoided.

------------------------------------------------------------------------------
  Methods described in the following list of references were used in this FHI-aims run.
  If you publish the results, please make sure to cite these reference if they apply.
  FHI-aims is an academic code, and for our developers (often, Ph.D. students
  and postdocs), scientific credit in the community is essential.
  Thank you for helping us!

  For any use of FHI-aims, please cite:

    Volker Blum, Ralf Gehrke, Felix Hanke, Paula Havu, Ville Havu,
    Xinguo Ren, Karsten Reuter, and Matthias Scheffler
    'Ab initio molecular simulations with numeric atom-centered orbitals'
    Computer Physics Communications 180, 2175-2196 (2009)
    http://doi.org/10.1016/j.cpc.2009.06.022


  The provided symmetry information was generated with SPGlib:

    Atsushi Togo, Yusuke Seto, Dimitar Pashov
    SPGlib 1.7.3 obtained from http://spglib.sourceforge.net
    Copyright (C) 2008 Atsushi Togo


  The ELSI infrastructure was used in your run to solve the Kohn-Sham electronic structure.
  Please check out http://elsi-interchange.org to learn more.
  If scalability is important for your project, please acknowledge ELSI by citing:

    V. W-z. Yu, F. Corsetti, A. Garcia, W. P. Huhn, M. Jacquelin, W. Jia,
    B. Lange, L. Lin, J. Lu, W. Mi, A. Seifitokaldani, A. Vazquez-Mayagoitia,
    C. Yang, H. Yang, and V. Blum
    'ELSI: A unified software interface for Kohn-Sham electronic structure solvers'
    Computer Physics Communications 222, 267-285 (2018).
    http://doi.org/10.1016/j.cpc.2017.09.007


  For the real-space grid partitioning and parallelization used in this calculation, please cite:

    Ville Havu, Volker Blum, Paula Havu, and Matthias Scheffler,
    'Efficient O(N) integration for all-electron electronic structure calculation'
    'using numerically tabulated basis functions'
    Journal of Computational Physics 228, 8367-8379 (2009).
    http://doi.org/10.1016/j.jcp.2009.08.008

  Of course, there are many other important community references, e.g., those cited in the
  above references. Our list is limited to references that describe implementations in the
  FHI-aims code. The reason is purely practical (length of this list) - please credit others as well.

------------------------------------------------------------
          Leaving FHI-aims.
          Date     :  20231005, Time     :  083615.072

          Computational steps:
          | Number of self-consistency cycles          :           11
          | Number of SCF (re)initializations          :            1

          Detailed time accounting                     :  max(cpu_time)    wall_clock(cpu1)
          | Total time                                  :       19.233 s          19.236 s
          | Preparation time                            :        0.155 s           0.155 s
          | Boundary condition initalization            :        0.063 s           0.063 s
          | Grid partitioning                           :        0.024 s           0.024 s
          | Preloading free-atom quantities on grid     :        0.117 s           0.118 s
          | Free-atom superposition energy              :        0.016 s           0.016 s
          | Total time for integrations                 :        4.345 s           4.346 s
          | Total time for solution of K.-S. equations  :        2.925 s           2.926 s
          | Total time for density update               :        7.704 s           7.702 s
          | Total time for mixing & preconditioning     :        1.202 s           1.203 s
          | Total time for Hartree multipole update     :        0.011 s           0.009 s
          | Total time for Hartree multipole sum        :        2.618 s           2.621 s
          | Total time for total energy evaluation      :        0.004 s           0.004 s
          | Total time for scaled ZORA corrections      :        0.000 s           0.000 s

          Partial memory accounting:
          | Residual value for overall tracked memory usage across tasks:     0.000000 MB (should be 0.000000 MB)
          | Peak values for overall tracked memory usage:
          |   Minimum:       12.387 MB (on task 0 after allocating gradient_basis_wave)
          |   Maximum:       12.620 MB (on task 1 after allocating gradient_basis_wave)
          |   Average:       12.503 MB
          | Largest tracked array allocation:
          |   Minimum:        3.845 MB (KS_eigenvector_complex on task 0)
          |   Maximum:        3.845 MB (KS_eigenvector_complex on task 0)
          |   Average:        3.845 MB
          Note:  These values currently only include a subset of arrays which are explicitly tracked.
          The "true" memory usage will be greater.

          Have a nice day.
------------------------------------------------------------
