 vasp.6.2.1 16May21 (build Oct 27 2021 18:14:32) complex                        
  
 executed on             LinuxIFC date 2021.11.08  17:27:12
 running on    1 total cores
 distrk:  each k-point on    1 cores,    1 groups
 distr:  one band on NCORE=   1 cores,    1 groups


--------------------------------------------------------------------------------------------------------


 INCAR:
   ALGO = Normal
   EDIFF = 1e-07
   EDIFFG = -0.001
   ENAUG = 1360.0
   ENCUT = 700.0
   IBRION = 2
   ISIF = 3
   ISMEAR = -5
   ISPIN = 2
   KSPACING = 0.2925287784072645
   LAECHG = False
   LASPH = True
   LCHARG = True
   LELF = True
   LMIXTAU = True
   LORBIT = 11
   LREAL = False
   LVTOT = True
   LWAVE = False
   MAGMOM = 2*-0.0
   NELM = 200
   NSW = 1
   PREC = Accurate
   SIGMA = 0.05

 POTCAR:    PAW_PBE Si 05Jan2001                  
 WARNING: For LVTOT=.TRUE., VASP.5.x writes the TOTAL local potential to the
     file LOCPOT. If you want only the Hartree contributions, use LVHAR=.TRUE.
     instead. 

 POTCAR:    PAW_PBE Si 05Jan2001                  
   VRHFIN =Si: s2p2                                                                                 
   LEXCH  = PE                                                                                      
   EATOM  =   103.0669 eV,    7.5752 Ry                                                             
                                                                                                    
   TITEL  = PAW_PBE Si 05Jan2001                                                                    
   LULTRA =        F    use ultrasoft PP ?                                                          
   IUNSCR =        1    unscreen: 0-lin 1-nonlin 2-no                                               
   RPACOR =    1.500    partial core radius                                                         
   POMASS =   28.085; ZVAL   =    4.000    mass and valenz                                          
   RCORE  =    1.900    outmost cutoff radius                                                       
   RWIGS  =    2.480; RWIGS  =    1.312    wigner-seitz radius (au A)                               
   ENMAX  =  245.345; ENMIN  =  184.009 eV                                                          
   ICORE  =        2    local potential                                                             
   LCOR   =        T    correct aug charges                                                         
   LPAW   =        T    paw PP                                                                      
   EAUG   =  322.069                                                                                
   DEXC   =    0.000                                                                                
   RMAX   =    1.950    core radius for proj-oper                                                   
   RAUG   =    1.300    factor for augmentation sphere                                              
   RDEP   =    1.993    radius for radial grids                                                     
   RDEPT  =    1.837    core radius for aug-charge                                                  
                                                                                                    
   Atomic configuration                                                                             
    6 entries                                                                                       
     n  l   j            E        occ.                                                              
     1  0  0.50     -1785.8828   2.0000                                                             
     2  0  0.50      -139.4969   2.0000                                                             
     2  1  1.50       -95.5546   6.0000                                                             
     3  0  0.50       -10.8127   2.0000                                                             
     3  1  0.50        -4.0811   2.0000                                                             
     3  2  1.50        -4.0817   0.0000                                                             
   Description                                                                                      
     l       E           TYP  RCUT    TYP  RCUT                                                     
     0    -10.8127223     23  1.900                                                                 
     0     -7.6451159     23  1.900                                                                 
     1     -4.0811372     23  1.900                                                                 
     1      2.4879257     23  1.900                                                                 
     2     -4.0817478      7  1.900                                                                 
  local pseudopotential read in
  partial core-charges read in
  partial kinetic energy density read in
  atomic valenz-charges read in
  non local Contribution for L=           0  read in
    real space projection operators read in
  non local Contribution for L=           0  read in
    real space projection operators read in
  non local Contribution for L=           1  read in
    real space projection operators read in
  non local Contribution for L=           1  read in
    real space projection operators read in
    PAW grid and wavefunctions read in
 
   number of l-projection  operators is LMAX  =           4
   number of lm-projection operators is LMMAX =           8
 
  PAW_PBE Si 05Jan2001                  :
 energy of atom  1       EATOM= -103.0669
 kinetic energy error for atom=    0.0003 (will be added to EATOM!!)
 
 
 POSCAR: Si2
  positions in direct lattice
  No initial velocities read in
 exchange correlation table for  LEXCH =        8
   RHO(1)=    0.500       N(1)  =     2000
   RHO(2)=  100.500       N(2)  =     4000
 


--------------------------------------------------------------------------------------------------------


 ion  position               nearest neighbor table
   1  0.750  0.750  0.750-   2 2.39   2 2.39   2 2.39   2 2.39
   2  0.500  0.500  0.500-   1 2.39   1 2.39   1 2.39   1 2.39
 
  LATTYP: Found a body centered tetragonal cell.
 ALAT       =     3.8930145676
 C/A-ratio  =     1.4212672221
  
  Lattice vectors:
  
 A1 = (   2.7665070000,   0.0000000000,   2.7527770000)
 A2 = (   2.7665070000,   0.0000000000,  -2.7527770000)
 A3 = (  -2.7665070000,   2.7527770000,   0.0000000000)


Analysis of symmetry for initial positions (statically):
=====================================================================
 Subroutine PRICEL returns:
 Original cell was already a primitive cell.
 

 Routine SETGRP: Setting up the symmetry group for a 
 body centered tetragonal supercell.


 Subroutine GETGRP returns: Found 16 space group operations
 (whereof  8 operations were pure point group operations)
 out of a pool of 16 trial point group operations.


The static configuration has the point symmetry D_2d.
 The point group associated with its full space group is D_4h.


Analysis of symmetry for dynamics (positions and initial velocities):
=====================================================================
 Subroutine PRICEL returns:
 Original cell was already a primitive cell.
 

 Routine SETGRP: Setting up the symmetry group for a 
 body centered tetragonal supercell.


 Subroutine GETGRP returns: Found 16 space group operations
 (whereof  8 operations were pure point group operations)
 out of a pool of 16 trial point group operations.


The dynamic configuration has the point symmetry D_2d.
 The point group associated with its full space group is D_4h.


Analysis of structural, dynamic, and magnetic symmetry:
=====================================================================
 Subroutine PRICEL returns:
 Original cell was already a primitive cell.
 

 Routine SETGRP: Setting up the symmetry group for a 
 body centered tetragonal supercell.


 Subroutine GETGRP returns: Found 16 space group operations
 (whereof  8 operations were pure point group operations)
 out of a pool of 16 trial point group operations.


The overall configuration has the point symmetry D_2d.
 The point group associated with its full space group is D_4h.


 Subroutine INISYM returns: Found 16 space group operations
 (whereof  8 operations are pure point group operations),
 and found     1 'primitive' translations


----------------------------------------------------------------------------------------

                                     Primitive cell                                     

  volume of cell :      41.9280

  direct lattice vectors                    reciprocal lattice vectors
     0.000000000  2.752777000  2.752777000    -0.180733322  0.181634764  0.181634764
     2.766507000  0.000000000  2.752777000     0.180733322 -0.181634764  0.181634764
     2.766507000  2.752777000  0.000000000     0.180733322  0.181634764 -0.181634764

  length of vectors
     3.893014568  3.902735219  3.902735219     0.314081054  0.314081054  0.314081054

  position of ions in fractional coordinates (direct lattice)
     0.750000000  0.750000000  0.750000000
     0.500000000  0.500000000  0.500000000

  ion indices of the primitive-cell ions
   primitive index   ion index
                 1           1
                 2           2

----------------------------------------------------------------------------------------

 
 
 KPOINTS: pymatgen with grid density = 100 / numbe

Automatic generation of k-mesh.
 Grid dimensions read from file:
 generate k-points for:    3    3    3

 Generating k-lattice:

  Cartesian coordinates                     Fractional coordinates (reciprocal lattice)
    -0.060244441  0.060544921  0.060544921     0.333333333 -0.000000000  0.000000000
     0.060244441 -0.060544921  0.060544921    -0.000000000  0.333333333 -0.000000000
     0.060244441  0.060544921 -0.060544921     0.000000000  0.000000000  0.333333333

  Length of vectors
     0.104693685  0.104693685  0.104693685

  Shift w.r.t. Gamma in fractional coordinates (k-lattice)
     0.000000000  0.000000000  0.000000000

 TETIRR: Found     17 inequivalent tetrahedra from      162
 
 Subroutine IBZKPT returns following result:
 ===========================================
 
 Found      6 irreducible k-points:
 
 Following reciprocal coordinates:
            Coordinates               Weight
  0.000000  0.000000  0.000000      1.000000
  0.333333 -0.000000  0.000000      8.000000
  0.333333  0.333333 -0.000000      4.000000
 -0.333333  0.333333  0.000000      8.000000
  0.000000  0.333333  0.333333      2.000000
 -0.333333  0.333333  0.333333      4.000000
 
 Following cartesian coordinates:
            Coordinates               Weight
  0.000000  0.000000  0.000000      1.000000
 -0.060244  0.060545  0.060545      8.000000
 -0.000000 -0.000000  0.121090      4.000000
  0.120489 -0.121090 -0.000000      8.000000
  0.120489 -0.000000  0.000000      2.000000
  0.180733 -0.060545 -0.060545      4.000000
 


--------------------------------------------------------------------------------------------------------




 Dimension of arrays:
   k-points           NKPTS =      6   k-points in BZ     NKDIM =      6   number of bands    NBANDS=      8
   number of dos      NEDOS =    301   number of ions     NIONS =      2
   non local maximal  LDIM  =      4   non local SUM 2l+1 LMDIM =      8
   total plane-waves  NPLWV =  46656
   max r-space proj   IRMAX =      1   max aug-charges    IRDMAX=  37400
   dimension x,y,z NGX =    36 NGY =   36 NGZ =   36
   dimension x,y,z NGXF=    72 NGYF=   72 NGZF=   72
   support grid    NGXF=    72 NGYF=   72 NGZF=   72
   ions per type =               2
   NGX,Y,Z   is equivalent  to a cutoff of  15.37, 15.34, 15.34 a.u.
   NGXF,Y,Z  is equivalent  to a cutoff of  30.75, 30.67, 30.67 a.u.

 SYSTEM =  unknown system                          
 POSCAR =  Si2                                     

 Startparameter for this run:
   NWRITE =      2    write-flag & timer
   PREC   = accura    normal or accurate (medium, high low for compatibility)
   ISTART =      0    job   : 0-new  1-cont  2-samecut
   ICHARG =      2    charge: 1-file 2-atom 10-const
   ISPIN  =      2    spin polarized calculation?
   LNONCOLLINEAR =      F non collinear calculations
   LSORBIT =      F    spin-orbit coupling
   INIWAV =      1    electr: 0-lowe 1-rand  2-diag
   LASPH  =      T    aspherical Exc in radial PAW
 Electronic Relaxation 1
   ENCUT  =  700.0 eV  51.45 Ry    7.17 a.u.   8.40  8.42  8.42*2*pi/ulx,y,z
   ENINI  =  700.0     initial cutoff
   ENAUG  = 1360.0 eV  augmentation charge cutoff
   NELM   =    200;   NELMIN=  2; NELMDL= -5     # of ELM steps 
   EDIFF  = 0.1E-06   stopping-criterion for ELM
   LREAL  =      F    real-space projection
   NLSPLINE    = F    spline interpolate recip. space projectors
   LCOMPAT=      F    compatible to vasp.4.4
   GGA_COMPAT  = T    GGA compatible to vasp.4.4-vasp.4.6
   LMAXPAW     = -100 max onsite density
   LMAXMIX     =    2 max onsite mixed and CHGCAR
   VOSKOWN=      0    Vosko Wilk Nusair interpolation
   ROPT   =    0.00000
 Ionic relaxation
   EDIFFG = -.1E-02   stopping-criterion for IOM
   NSW    =      1    number of steps for IOM
   NBLOCK =      1;   KBLOCK =      1    inner block; outer block 
   IBRION =      2    ionic relax: 0-MD 1-quasi-New 2-CG
   NFREE  =      1    steps in history (QN), initial steepest desc. (CG)
   ISIF   =      3    stress and relaxation
   IWAVPR =     11    prediction:  0-non 1-charg 2-wave 3-comb
   ISYM   =      2    0-nonsym 1-usesym 2-fastsym
   LCORR  =      T    Harris-Foulkes like correction to forces

   POTIM  = 0.5000    time-step for ionic-motion
   TEIN   =    0.0    initial temperature
   TEBEG  =    0.0;   TEEND  =   0.0 temperature during run
   SMASS  =  -3.00    Nose mass-parameter (am)
   estimated Nose-frequenzy (Omega)   =  0.10E-29 period in steps = 0.13E+47 mass=  -0.346E-27a.u.
   SCALEE = 1.0000    scale energy and forces
   NPACO  =    256;   APACO  = 16.0  distance and # of slots for P.C.
   PSTRESS=    0.0 pullay stress

  Mass of Ions in am
   POMASS =  28.09
  Ionic Valenz
   ZVAL   =   4.00
  Atomic Wigner-Seitz radii
   RWIGS  =  -1.00
  virtual crystal weights 
   VCA    =   1.00
   NELECT =       8.0000    total number of electrons
   NUPDOWN=      -1.0000    fix difference up-down

 DOS related values:
   EMIN   =  10.00;   EMAX   =-10.00  energy-range for DOS
   EFERMI =   0.00
   ISMEAR =    -5;   SIGMA  =   0.05  broadening in eV -4-tet -1-fermi 0-gaus

 Electronic relaxation 2 (details)
   IALGO  =     38    algorithm
   LDIAG  =      T    sub-space diagonalisation (order eigenvalues)
   LSUBROT=      F    optimize rotation matrix (better conditioning)
   TURBO    =      0    0=normal 1=particle mesh
   IRESTART =      0    0=no restart 2=restart with 2 vectors
   NREBOOT  =      0    no. of reboots
   NMIN     =      0    reboot dimension
   EREF     =   0.00    reference energy to select bands
   IMIX   =      4    mixing-type and parameters
     AMIX     =   0.40;   BMIX     =  1.00
     AMIX_MAG =   1.60;   BMIX_MAG =  1.00
     AMIN     =   0.10
     WC   =   100.;   INIMIX=   1;  MIXPRE=   1;  MAXMIX= -45

 Intra band minimization:
   WEIMIN = 0.0010     energy-eigenvalue tresh-hold
   EBREAK =  0.31E-08  absolut break condition
   DEPER  =   0.30     relativ break condition  

   TIME   =   0.40     timestep for ELM

  volume/ion in A,a.u.               =      20.96       141.47
  Fermi-wavevector in a.u.,A,eV,Ry     =   0.942476  1.781021 12.085520  0.888261
  Thomas-Fermi vector in A             =   2.070089
 
 Write flags
   LWAVE        =      F    write WAVECAR
   LDOWNSAMPLE  =      F    k-point downsampling of WAVECAR
   LCHARG       =      T    write CHGCAR
   LVTOT        =      T    write LOCPOT, total local potential
   LVHAR        =      F    write LOCPOT, Hartree potential only
   LELF         =      T    write electronic localiz. function (ELF)
   LORBIT       =     11    0 simple, 1 ext, 2 COOP (PROOUT), +10 PAW based schemes


 Dipole corrections
   LMONO  =      F    monopole corrections only (constant potential shift)
   LDIPOL =      F    correct potential (dipole corrections)
   IDIPOL =      0    1-x, 2-y, 3-z, 4-all directions 
   EPSILON=  1.0000000 bulk dielectric constant

 Exchange correlation treatment:
   GGA     =    --    GGA type
   LEXCH   =     8    internal setting for exchange type
   VOSKOWN=      0    Vosko Wilk Nusair interpolation
   LHFCALC =     F    Hartree Fock is set to
   LHFONE  =     F    Hartree Fock one center treatment
   AEXX    =    0.0000 exact exchange contribution

 Linear response parameters
   LEPSILON=     F    determine dielectric tensor
   LRPA    =     F    only Hartree local field effects (RPA)
   LNABLA  =     F    use nabla operator in PAW spheres
   LVEL    =     F    velocity operator in full k-point grid
   LINTERFAST=   F  fast interpolation
   KINTER  =     0    interpolate to denser k-point grid
   CSHIFT  =0.1000    complex shift for real part using Kramers Kronig
   OMEGAMAX=  -1.0    maximum frequency
   DEG_THRESHOLD= 0.2000000E-02 threshold for treating states as degnerate
   RTIME   =   -0.100 relaxation time in fs
  (WPLASMAI=    0.000 imaginary part of plasma frequency in eV, 0.658/RTIME)
   DFIELD  = 0.0000000 0.0000000 0.0000000 field for delta impulse in time
 
 Orbital magnetization related:
   ORBITALMAG=     F  switch on orbital magnetization
   LCHIMAG   =     F  perturbation theory with respect to B field
   DQ        =  0.001000  dq finite difference perturbation B field
   LLRAUG    =     F  two centre corrections for induced B field



--------------------------------------------------------------------------------------------------------


 conjugate gradient relaxation of ions
 charge density and potential will be updated during run
 spin polarized calculation
 Variant of blocked Davidson
 Davidson routine will perform the subspace rotation
 perform sub-space diagonalisation
    after iterative eigenvector-optimisation
 modified Broyden-mixing scheme, WC =      100.0
 initial mixing is a Kerker type mixing with AMIX =  0.4000 and BMIX =      1.0000
 Hartree-type preconditioning will be used
 using additional bands            4
 reciprocal scheme for non local part
 use partial core corrections
 calculate Harris-corrections to forces 
   (improved forces if not selfconsistent)
 use gradient corrections 
 use of overlap-Matrix (Vanderbilt PP)
 Fermi weights with tetrahedron method with Bloechl corrections


--------------------------------------------------------------------------------------------------------


  energy-cutoff  :      700.00
  volume of cell :       41.93
      direct lattice vectors                 reciprocal lattice vectors
     0.000000000  2.752777000  2.752777000    -0.180733322  0.181634764  0.181634764
     2.766507000  0.000000000  2.752777000     0.180733322 -0.181634764  0.181634764
     2.766507000  2.752777000  0.000000000     0.180733322  0.181634764 -0.181634764

  length of vectors
     3.893014568  3.902735219  3.902735219     0.314081054  0.314081054  0.314081054


 
 k-points in units of 2pi/SCALE and weight: pymatgen with grid density = 100 / numbe
   0.00000000  0.00000000  0.00000000       0.037
  -0.06024444  0.06054492  0.06054492       0.296
  -0.00000000 -0.00000000  0.12108984       0.148
   0.12048888 -0.12108984 -0.00000000       0.296
   0.12048888 -0.00000000  0.00000000       0.074
   0.18073332 -0.06054492 -0.06054492       0.148
 
 k-points in reciprocal lattice and weights: pymatgen with grid density = 100 / numbe
   0.00000000  0.00000000  0.00000000       0.037
   0.33333333 -0.00000000  0.00000000       0.296
   0.33333333  0.33333333 -0.00000000       0.148
  -0.33333333  0.33333333  0.00000000       0.296
   0.00000000  0.33333333  0.33333333       0.074
  -0.33333333  0.33333333  0.33333333       0.148
 
 position of ions in fractional coordinates (direct lattice) 
   0.75000000  0.75000000  0.75000000
   0.50000000  0.50000000  0.50000000
 
 position of ions in cartesian coordinates  (Angst):
   4.14976050  4.12916550  4.12916550
   2.76650700  2.75277700  2.75277700
 


--------------------------------------------------------------------------------------------------------


 k-point   1 :   0.0000 0.0000 0.0000  plane waves:    1807
 k-point   2 :   0.3333-0.0000 0.0000  plane waves:    1763
 k-point   3 :   0.3333 0.3333-0.0000  plane waves:    1752
 k-point   4 :  -0.3333 0.3333 0.0000  plane waves:    1766
 k-point   5 :   0.0000 0.3333 0.3333  plane waves:    1752
 k-point   6 :  -0.3333 0.3333 0.3333  plane waves:    1766

 maximum and minimum number of plane-waves per node :      1807     1752

 maximum number of plane-waves:      1807
 maximum index in each direction: 
   IXMAX=    8   IYMAX=    8   IZMAX=    8
   IXMIN=   -8   IYMIN=   -8   IZMIN=   -8


 serial   3D FFT for wavefunctions
 parallel 3D FFT for charge:
    minimum data exchange during FFTs selected (reduces bandwidth)


 total amount of memory used by VASP MPI-rank0    77851. kBytes
=======================================================================

   base      :      30000. kBytes
   nonl-proj :        751. kBytes
   fftplans  :      13060. kBytes
   grid      :      31228. kBytes
   one-center:         12. kBytes
   wavefun   :       2800. kBytes
 
     INWAV:  cpu time    0.0000: real time    0.0000
 Broyden mixing: mesh for mixing (old mesh)
   NGX = 17   NGY = 17   NGZ = 17
  (NGX  = 72   NGY  = 72   NGZ  = 72)
  gives a total of   4913 points

 initial charge density was supplied:
 charge density of overlapping atoms calculated
 number of electron       8.0000000 magnetization       0.0000000
 keeping initial charge density in first step


--------------------------------------------------------------------------------------------------------


 Maximum index for augmentation-charges        36169 (set IRDMAX)


--------------------------------------------------------------------------------------------------------


 First call to EWALD:  gamma=   0.510
 Maximum number of real-space cells 3x 3x 3
 Maximum number of reciprocal cells 3x 3x 3

    FEWALD:  cpu time    0.0009: real time    0.0009


--------------------------------------- Iteration      1(   1)  ---------------------------------------


    POTLOK:  cpu time    0.2776: real time    0.2854
    SETDIJ:  cpu time    0.3557: real time    0.3672
     EDDAV:  cpu time    0.3319: real time    0.3335
 BZINTS: Fermi energy:   10.728090;    8.000000 electrons
         Band energy: 0.256791E+02;  BLOECHL correction:   -0.417323
       DOS:  cpu time    0.0004: real time    0.0004
    --------------------------------------------
      LOOP:  cpu time    0.9657: real time    0.9865

 eigenvalue-minimisations  :   192
 total energy-change (2. order) : 0.1466575E+02  (-0.3797828E+03)
 number of electron       8.0000000 magnetization       0.0000000
 augmentation part        8.0000000 magnetization       0.0000000

 Free energy of the ion-electron system (eV)
  ---------------------------------------------------
  alpha Z        PSCENC =         3.21152025
  Ewald energy   TEWEN  =      -225.05420071
  -Hartree energ DENC   =       -11.70851578
  -exchange      EXHF   =         0.00000000
  -V(xc)+E(xc)   XCENC  =       -18.78191073
  PAW double counting   =       176.24759923     -141.06103558
  entropy T*S    EENTRO =         0.00000000
  eigenvalues    EBANDS =        25.67905055
  atomic energy  EATOM  =       206.13324734
  Solvation  Ediel_sol  =         0.00000000
  ---------------------------------------------------
  free energy    TOTEN  =        14.66575458 eV

  energy without entropy =       14.66575458  energy(sigma->0) =       14.66575458


--------------------------------------------------------------------------------------------------------




--------------------------------------- Iteration      1(   2)  ---------------------------------------


     EDDAV:  cpu time    0.5027: real time    0.5126
 BZINTS: Fermi energy:    4.941288;    8.000000 electrons
         Band energy: 0.901133E+00;  BLOECHL correction:    0.000000
       DOS:  cpu time    0.0003: real time    0.0003
    --------------------------------------------
      LOOP:  cpu time    0.5030: real time    0.5128

 eigenvalue-minimisations  :   312
 total energy-change (2. order) :-0.2477792E+02  (-0.2476030E+02)
 number of electron       8.0000000 magnetization       0.0000000
 augmentation part        8.0000000 magnetization       0.0000000

 Free energy of the ion-electron system (eV)
  ---------------------------------------------------
  alpha Z        PSCENC =         3.21152025
  Ewald energy   TEWEN  =      -225.05420071
  -Hartree energ DENC   =       -11.70851578
  -exchange      EXHF   =         0.00000000
  -V(xc)+E(xc)   XCENC  =       -18.78191073
  PAW double counting   =       176.24759923     -141.06103558
  entropy T*S    EENTRO =         0.00000000
  eigenvalues    EBANDS =         0.90113250
  atomic energy  EATOM  =       206.13324734
  Solvation  Ediel_sol  =         0.00000000
  ---------------------------------------------------
  free energy    TOTEN  =       -10.11216347 eV

  energy without entropy =      -10.11216347  energy(sigma->0) =      -10.11216347


--------------------------------------------------------------------------------------------------------




--------------------------------------- Iteration      1(   3)  ---------------------------------------


     EDDAV:  cpu time    0.4074: real time    0.4238
 BZINTS: Fermi energy:    4.856302;    8.000000 electrons
         Band energy: 0.562356E+00;  BLOECHL correction:    0.000000
       DOS:  cpu time    0.0003: real time    0.0003
    --------------------------------------------
      LOOP:  cpu time    0.4076: real time    0.4240

 eigenvalue-minimisations  :   224
 total energy-change (2. order) :-0.3387769E+00  (-0.3387769E+00)
 number of electron       8.0000000 magnetization       0.0000000
 augmentation part        8.0000000 magnetization       0.0000000

 Free energy of the ion-electron system (eV)
  ---------------------------------------------------
  alpha Z        PSCENC =         3.21152025
  Ewald energy   TEWEN  =      -225.05420071
  -Hartree energ DENC   =       -11.70851578
  -exchange      EXHF   =         0.00000000
  -V(xc)+E(xc)   XCENC  =       -18.78191073
  PAW double counting   =       176.24759923     -141.06103558
  entropy T*S    EENTRO =         0.00000000
  eigenvalues    EBANDS =         0.56235558
  atomic energy  EATOM  =       206.13324734
  Solvation  Ediel_sol  =         0.00000000
  ---------------------------------------------------
  free energy    TOTEN  =       -10.45094038 eV

  energy without entropy =      -10.45094038  energy(sigma->0) =      -10.45094038


--------------------------------------------------------------------------------------------------------




--------------------------------------- Iteration      1(   4)  ---------------------------------------


     EDDAV:  cpu time    0.5192: real time    0.5319
 BZINTS: Fermi energy:    4.855514;    8.000000 electrons
         Band energy: 0.560093E+00;  BLOECHL correction:   -0.000000
       DOS:  cpu time    0.0003: real time    0.0003
    --------------------------------------------
      LOOP:  cpu time    0.5194: real time    0.5321

 eigenvalue-minimisations  :   344
 total energy-change (2. order) :-0.2262687E-02  (-0.2262680E-02)
 number of electron       8.0000000 magnetization       0.0000000
 augmentation part        8.0000000 magnetization       0.0000000

 Free energy of the ion-electron system (eV)
  ---------------------------------------------------
  alpha Z        PSCENC =         3.21152025
  Ewald energy   TEWEN  =      -225.05420071
  -Hartree energ DENC   =       -11.70851578
  -exchange      EXHF   =         0.00000000
  -V(xc)+E(xc)   XCENC  =       -18.78191073
  PAW double counting   =       176.24759923     -141.06103558
  entropy T*S    EENTRO =         0.00000000
  eigenvalues    EBANDS =         0.56009290
  atomic energy  EATOM  =       206.13324734
  Solvation  Ediel_sol  =         0.00000000
  ---------------------------------------------------
  free energy    TOTEN  =       -10.45320307 eV

  energy without entropy =      -10.45320307  energy(sigma->0) =      -10.45320307


--------------------------------------------------------------------------------------------------------




--------------------------------------- Iteration      1(   5)  ---------------------------------------


     EDDAV:  cpu time    0.3974: real time    0.4062
 BZINTS: Fermi energy:    4.855942;    8.000000 electrons
         Band energy: 0.560093E+00;  BLOECHL correction:    0.000000
       DOS:  cpu time    0.0002: real time    0.0002
    CHARGE:  cpu time    0.0444: real time    0.0446
    MIXING:  cpu time    0.0078: real time    0.0078
    --------------------------------------------
      LOOP:  cpu time    0.4498: real time    0.4588

 eigenvalue-minimisations  :   240
 total energy-change (2. order) :-0.2419127E-06  (-0.2495462E-06)
 number of electron       8.0000000 magnetization       0.0000000
 augmentation part       -0.4580133 magnetization       0.0000001

 Broyden mixing:
  rms(total) = 0.48271E+00    rms(broyden)= 0.48271E+00
  rms(prec ) = 0.10078E+01
  weight for this iteration     100.00

 Free energy of the ion-electron system (eV)
  ---------------------------------------------------
  alpha Z        PSCENC =         3.21152025
  Ewald energy   TEWEN  =      -225.05420071
  -Hartree energ DENC   =       -11.70851578
  -exchange      EXHF   =         0.00000000
  -V(xc)+E(xc)   XCENC  =       -18.78191073
  PAW double counting   =       176.24759923     -141.06103558
  entropy T*S    EENTRO =         0.00000000
  eigenvalues    EBANDS =         0.56009265
  atomic energy  EATOM  =       206.13324734
  Solvation  Ediel_sol  =         0.00000000
  ---------------------------------------------------
  free energy    TOTEN  =       -10.45320331 eV

  energy without entropy =      -10.45320331  energy(sigma->0) =      -10.45320331


--------------------------------------------------------------------------------------------------------




--------------------------------------- Iteration      1(   6)  ---------------------------------------


    POTLOK:  cpu time    0.2896: real time    0.2973
    SETDIJ:  cpu time    0.2853: real time    0.2866
     EDDAV:  cpu time    0.3432: real time    0.3471
 BZINTS: Fermi energy:    5.105046;    8.000000 electrons
         Band energy: 0.223550E+01;  BLOECHL correction:    0.000000
       DOS:  cpu time    0.0003: real time    0.0003
    CHARGE:  cpu time    0.0527: real time    0.0532
    MIXING:  cpu time    0.0102: real time    0.0104
    --------------------------------------------
      LOOP:  cpu time    0.9813: real time    0.9948

 eigenvalue-minimisations  :   224
 total energy-change (2. order) : 0.1439072E+00  (-0.8868024E-02)
 number of electron       8.0000000 magnetization       0.0000000
 augmentation part       -0.4514100 magnetization       0.0000002

 Broyden mixing:
  rms(total) = 0.29644E+00    rms(broyden)= 0.29644E+00
  rms(prec ) = 0.60493E+00
  weight for this iteration     100.00

 eigenvalues of (default mixing * dielectric matrix)
  average eigenvalue GAMMA=   2.5793
  2.5793

 Free energy of the ion-electron system (eV)
  ---------------------------------------------------
  alpha Z        PSCENC =         3.21152025
  Ewald energy   TEWEN  =      -225.05420071
  -Hartree energ DENC   =       -13.38939107
  -exchange      EXHF   =         0.00000000
  -V(xc)+E(xc)   XCENC  =       -18.52925648
  PAW double counting   =       364.69197668     -329.60869427
  entropy T*S    EENTRO =         0.00000000
  eigenvalues    EBANDS =         2.23550214
  atomic energy  EATOM  =       206.13324734
  Solvation  Ediel_sol  =         0.00000000
  ---------------------------------------------------
  free energy    TOTEN  =       -10.30929611 eV

  energy without entropy =      -10.30929611  energy(sigma->0) =      -10.30929611


--------------------------------------------------------------------------------------------------------




--------------------------------------- Iteration      1(   7)  ---------------------------------------


    POTLOK:  cpu time    0.3007: real time    0.3074
    SETDIJ:  cpu time    0.3016: real time    0.3037
     EDDAV:  cpu time    0.4125: real time    0.4233
 BZINTS: Fermi energy:    5.494140;    8.000000 electrons
         Band energy: 0.486171E+01;  BLOECHL correction:    0.000000
       DOS:  cpu time    0.0003: real time    0.0003
    CHARGE:  cpu time    0.0451: real time    0.0452
    MIXING:  cpu time    0.0084: real time    0.0084
    --------------------------------------------
      LOOP:  cpu time    1.0684: real time    1.0883

 eigenvalue-minimisations  :   224
 total energy-change (2. order) : 0.6556511E-01  (-0.1796434E-01)
 number of electron       8.0000000 magnetization      -0.0000000
 augmentation part       -0.4431825 magnetization      -0.0000014

 Broyden mixing:
  rms(total) = 0.19002E-01    rms(broyden)= 0.19002E-01
  rms(prec ) = 0.45123E-01
  weight for this iteration     100.00

 eigenvalues of (default mixing * dielectric matrix)
  average eigenvalue GAMMA=   2.0896
  1.8406  2.3386

 Free energy of the ion-electron system (eV)
  ---------------------------------------------------
  alpha Z        PSCENC =         3.21152025
  Ewald energy   TEWEN  =      -225.05420071
  -Hartree energ DENC   =       -16.25710455
  -exchange      EXHF   =         0.00000000
  -V(xc)+E(xc)   XCENC  =       -18.08876435
  PAW double counting   =       818.53616893     -783.58631275
  entropy T*S    EENTRO =         0.00000000
  eigenvalues    EBANDS =         4.86171484
  atomic energy  EATOM  =       206.13324734
  Solvation  Ediel_sol  =         0.00000000
  ---------------------------------------------------
  free energy    TOTEN  =       -10.24373100 eV

  energy without entropy =      -10.24373100  energy(sigma->0) =      -10.24373100


--------------------------------------------------------------------------------------------------------




--------------------------------------- Iteration      1(   8)  ---------------------------------------


    POTLOK:  cpu time    0.2757: real time    0.2784
    SETDIJ:  cpu time    0.2824: real time    0.2838
     EDDAV:  cpu time    0.2939: real time    0.2980
 BZINTS: Fermi energy:    5.479343;    8.000000 electrons
         Band energy: 0.477463E+01;  BLOECHL correction:   -0.000000
       DOS:  cpu time    0.0002: real time    0.0002
    CHARGE:  cpu time    0.0428: real time    0.0430
    MIXING:  cpu time    0.0084: real time    0.0085
    --------------------------------------------
      LOOP:  cpu time    0.9034: real time    0.9119

 eigenvalue-minimisations  :   208
 total energy-change (2. order) :-0.2448533E-02  (-0.5111571E-03)
 number of electron       8.0000000 magnetization       0.0000000
 augmentation part       -0.4442491 magnetization       0.0000058

 Broyden mixing:
  rms(total) = 0.71498E-02    rms(broyden)= 0.71498E-02
  rms(prec ) = 0.15022E-01
  weight for this iteration     100.00

 eigenvalues of (default mixing * dielectric matrix)
  average eigenvalue GAMMA=   2.2264
  2.9243  1.7107  2.0443

 Free energy of the ion-electron system (eV)
  ---------------------------------------------------
  alpha Z        PSCENC =         3.21152025
  Ewald energy   TEWEN  =      -225.05420071
  -Hartree energ DENC   =       -16.20281547
  -exchange      EXHF   =         0.00000000
  -V(xc)+E(xc)   XCENC  =       -18.08813357
  PAW double counting   =       821.98400982     -787.00443997
  entropy T*S    EENTRO =         0.00000000
  eigenvalues    EBANDS =         4.77463276
  atomic energy  EATOM  =       206.13324734
  Solvation  Ediel_sol  =         0.00000000
  ---------------------------------------------------
  free energy    TOTEN  =       -10.24617954 eV

  energy without entropy =      -10.24617954  energy(sigma->0) =      -10.24617954


--------------------------------------------------------------------------------------------------------




--------------------------------------- Iteration      1(   9)  ---------------------------------------


    POTLOK:  cpu time    0.2629: real time    0.2645
    SETDIJ:  cpu time    0.2804: real time    0.2824
     EDDAV:  cpu time    0.3606: real time    0.3627
 BZINTS: Fermi energy:    5.485225;    8.000000 electrons
         Band energy: 0.481871E+01;  BLOECHL correction:   -0.000000
       DOS:  cpu time    0.0002: real time    0.0002
    CHARGE:  cpu time    0.0424: real time    0.0425
    MIXING:  cpu time    0.0079: real time    0.0079
    --------------------------------------------
      LOOP:  cpu time    0.9544: real time    0.9603

 eigenvalue-minimisations  :   256
 total energy-change (2. order) :-0.4431970E-03  (-0.4504758E-04)
 number of electron       8.0000000 magnetization      -0.0000000
 augmentation part       -0.4443882 magnetization       0.0000088

 Broyden mixing:
  rms(total) = 0.56592E-02    rms(broyden)= 0.56592E-02
  rms(prec ) = 0.68414E-02
  weight for this iteration     100.00

 eigenvalues of (default mixing * dielectric matrix)
  average eigenvalue GAMMA=   2.1618
  0.9417  3.0464  2.3296  2.3296

 Free energy of the ion-electron system (eV)
  ---------------------------------------------------
  alpha Z        PSCENC =         3.21152025
  Ewald energy   TEWEN  =      -225.05420071
  -Hartree energ DENC   =       -16.26139058
  -exchange      EXHF   =         0.00000000
  -V(xc)+E(xc)   XCENC  =       -18.07800647
  PAW double counting   =       823.77013084     -788.78663078
  entropy T*S    EENTRO =         0.00000000
  eigenvalues    EBANDS =         4.81870737
  atomic energy  EATOM  =       206.13324734
  Solvation  Ediel_sol  =         0.00000000
  ---------------------------------------------------
  free energy    TOTEN  =       -10.24662273 eV

  energy without entropy =      -10.24662273  energy(sigma->0) =      -10.24662273


--------------------------------------------------------------------------------------------------------




--------------------------------------- Iteration      1(  10)  ---------------------------------------


    POTLOK:  cpu time    0.2718: real time    0.2735
    SETDIJ:  cpu time    0.3160: real time    0.3218
     EDDAV:  cpu time    0.4805: real time    0.4947
 BZINTS: Fermi energy:    5.486963;    8.000000 electrons
         Band energy: 0.483045E+01;  BLOECHL correction:   -0.000000
       DOS:  cpu time    0.0002: real time    0.0002
    CHARGE:  cpu time    0.0436: real time    0.0437
    MIXING:  cpu time    0.0087: real time    0.0087
    --------------------------------------------
      LOOP:  cpu time    1.1208: real time    1.1427

 eigenvalue-minimisations  :   224
 total energy-change (2. order) :-0.4304370E-04  (-0.6104559E-05)
 number of electron       8.0000000 magnetization      -0.0000000
 augmentation part       -0.4443567 magnetization       0.0000010

 Broyden mixing:
  rms(total) = 0.88920E-03    rms(broyden)= 0.88920E-03
  rms(prec ) = 0.94725E-03
  weight for this iteration     100.00

 eigenvalues of (default mixing * dielectric matrix)
  average eigenvalue GAMMA=   1.8850
  3.0598  2.4432  2.2219  0.9719  0.7281

 Free energy of the ion-electron system (eV)
  ---------------------------------------------------
  alpha Z        PSCENC =         3.21152025
  Ewald energy   TEWEN  =      -225.05420071
  -Hartree energ DENC   =       -16.27295363
  -exchange      EXHF   =         0.00000000
  -V(xc)+E(xc)   XCENC  =       -18.07765387
  PAW double counting   =       812.75322513     -777.77030081
  entropy T*S    EENTRO =         0.00000000
  eigenvalues    EBANDS =         4.83045051
  atomic energy  EATOM  =       206.13324734
  Solvation  Ediel_sol  =         0.00000000
  ---------------------------------------------------
  free energy    TOTEN  =       -10.24666578 eV

  energy without entropy =      -10.24666578  energy(sigma->0) =      -10.24666578


--------------------------------------------------------------------------------------------------------




--------------------------------------- Iteration      1(  11)  ---------------------------------------


    POTLOK:  cpu time    0.3632: real time    0.3791
    SETDIJ:  cpu time    0.5076: real time    0.6443
     EDDAV:  cpu time    0.7892: real time    0.8447
 BZINTS: Fermi energy:    5.486785;    8.000000 electrons
         Band energy: 0.482899E+01;  BLOECHL correction:   -0.000000
       DOS:  cpu time    0.0003: real time    0.0004
    CHARGE:  cpu time    0.0429: real time    0.0431
    MIXING:  cpu time    0.0086: real time    0.0087
    --------------------------------------------
      LOOP:  cpu time    1.7119: real time    1.9202

 eigenvalue-minimisations  :   328
 total energy-change (2. order) : 0.2391781E-06  (-0.6741928E-07)
 number of electron       8.0000000 magnetization      -0.0000000
 augmentation part       -0.4443691 magnetization       0.0000003

 Broyden mixing:
  rms(total) = 0.32364E-03    rms(broyden)= 0.32364E-03
  rms(prec ) = 0.44757E-03
  weight for this iteration     100.00

 eigenvalues of (default mixing * dielectric matrix)
  average eigenvalue GAMMA=   1.7836
  3.0395  2.5176  2.0425  1.4748  0.9619  0.6656

 Free energy of the ion-electron system (eV)
  ---------------------------------------------------
  alpha Z        PSCENC =         3.21152025
  Ewald energy   TEWEN  =      -225.05420071
  -Hartree energ DENC   =       -16.27160576
  -exchange      EXHF   =         0.00000000
  -V(xc)+E(xc)   XCENC  =       -18.07779208
  PAW double counting   =       813.54034924     -778.55717460
  entropy T*S    EENTRO =         0.00000000
  eigenvalues    EBANDS =         4.82899079
  atomic energy  EATOM  =       206.13324734
  Solvation  Ediel_sol  =         0.00000000
  ---------------------------------------------------
  free energy    TOTEN  =       -10.24666554 eV

  energy without entropy =      -10.24666554  energy(sigma->0) =      -10.24666554


--------------------------------------------------------------------------------------------------------




--------------------------------------- Iteration      1(  12)  ---------------------------------------


    POTLOK:  cpu time    0.3351: real time    0.3502
    SETDIJ:  cpu time    0.3285: real time    0.3313
     EDDAV:  cpu time    0.4164: real time    0.4286
 BZINTS: Fermi energy:    5.487017;    8.000000 electrons
         Band energy: 0.482927E+01;  BLOECHL correction:    0.000000
       DOS:  cpu time    0.0004: real time    0.0004
    CHARGE:  cpu time    0.0591: real time    0.0600
    MIXING:  cpu time    0.0108: real time    0.0108
    --------------------------------------------
      LOOP:  cpu time    1.1503: real time    1.1814

 eigenvalue-minimisations  :   224
 total energy-change (2. order) :-0.2193139E-06  (-0.2810136E-07)
 number of electron       8.0000000 magnetization      -0.0000000
 augmentation part       -0.4443655 magnetization      -0.0000003

 Broyden mixing:
  rms(total) = 0.14184E-03    rms(broyden)= 0.14184E-03
  rms(prec ) = 0.17556E-03
  weight for this iteration     100.00

 eigenvalues of (default mixing * dielectric matrix)
  average eigenvalue GAMMA=   1.8275
  3.1184  2.3553  2.3513  2.3513  1.0508  0.9488  0.6169

 Free energy of the ion-electron system (eV)
  ---------------------------------------------------
  alpha Z        PSCENC =         3.21152025
  Ewald energy   TEWEN  =      -225.05420071
  -Hartree energ DENC   =       -16.27189567
  -exchange      EXHF   =         0.00000000
  -V(xc)+E(xc)   XCENC  =       -18.07787752
  PAW double counting   =       814.04030161     -779.05703381
  entropy T*S    EENTRO =         0.00000000
  eigenvalues    EBANDS =         4.82927274
  atomic energy  EATOM  =       206.13324734
  Solvation  Ediel_sol  =         0.00000000
  ---------------------------------------------------
  free energy    TOTEN  =       -10.24666576 eV

  energy without entropy =      -10.24666576  energy(sigma->0) =      -10.24666576


--------------------------------------------------------------------------------------------------------




--------------------------------------- Iteration      1(  13)  ---------------------------------------


    POTLOK:  cpu time    0.2811: real time    0.2820
    SETDIJ:  cpu time    0.3412: real time    0.3490
     EDDAV:  cpu time    0.5091: real time    0.5259
 BZINTS: Fermi energy:    5.487168;    8.000000 electrons
         Band energy: 0.482980E+01;  BLOECHL correction:    0.000000
       DOS:  cpu time    0.0003: real time    0.0002
    --------------------------------------------
      LOOP:  cpu time    1.1316: real time    1.1572

 eigenvalue-minimisations  :   240
 total energy-change (2. order) :-0.8486629E-07  (-0.7122171E-08)
 number of electron       8.0000000 magnetization      -0.0000000
 augmentation part       -0.4443655 magnetization      -0.0000003

 Free energy of the ion-electron system (eV)
  ---------------------------------------------------
  alpha Z        PSCENC =         3.21152025
  Ewald energy   TEWEN  =      -225.05420071
  -Hartree energ DENC   =       -16.27241670
  -exchange      EXHF   =         0.00000000
  -V(xc)+E(xc)   XCENC  =       -18.07786133
  PAW double counting   =       814.02505504     -779.04180557
  entropy T*S    EENTRO =         0.00000000
  eigenvalues    EBANDS =         4.82979583
  atomic energy  EATOM  =       206.13324734
  Solvation  Ediel_sol  =         0.00000000
  ---------------------------------------------------
  free energy    TOTEN  =       -10.24666584 eV

  energy without entropy =      -10.24666584  energy(sigma->0) =      -10.24666584


--------------------------------------------------------------------------------------------------------




 average (electrostatic) potential at core
  the test charge radii are     0.9892
  (the norm of the test charge is              1.0000)
       1 -83.5952       2 -83.5952
 
 
 
 E-fermi :   5.4872     XC(G=0):  -9.1609     alpha+bet :-11.4408

 Fermi energy:         5.4871684399

 spin component 1

 k-point     1 :       0.0000    0.0000    0.0000
  band No.  band energies     occupation 
      1      -6.1900      1.00000
      2       5.4528      1.00000
      3       5.4870      1.00000
      4       5.4870      1.00000
      5       7.9722      0.00000
      6       7.9722      0.00000
      7       7.9910      0.00000
      8       8.3353      0.00000

 k-point     2 :       0.3333   -0.0000    0.0000
  band No.  band energies     occupation 
      1      -4.8688      1.00000
      2       0.2597      1.00000
      3       4.4828      1.00000
      4       4.5232      1.00000
      5       7.0634      0.00000
      6       8.9149      0.00000
      7       8.9413      0.00000
      8      13.1317      0.00000

 k-point     3 :       0.3333    0.3333   -0.0000
  band No.  band energies     occupation 
      1      -4.3530      1.00000
      2       0.5111      1.00000
      3       3.1300      1.00000
      4       3.1368      1.00000
      5       6.2185      0.00000
      6       7.4834      0.00000
      7      12.4759      0.00000
      8      12.5658      0.00000

 k-point     4 :      -0.3333    0.3333    0.0000
  band No.  band energies     occupation 
      1      -3.0652      1.00000
      2      -1.1789      1.00000
      3       1.2548      1.00000
      4       3.4233      1.00000
      5       7.0328      0.00000
      6      11.1809      0.00000
      7      11.7556      0.00000
      8      12.3224      0.00000

 k-point     5 :       0.0000    0.3333    0.3333
  band No.  band energies     occupation 
      1      -4.3675      1.00000
      2       0.4771      1.00000
      3       3.1657      1.00000
      4       3.1657      1.00000
      5       6.2620      0.00000
      6       7.4961      0.00000
      7      12.5164      0.00000
      8      12.5164      0.00000

 k-point     6 :      -0.3333    0.3333    0.3333
  band No.  band energies     occupation 
      1      -3.0645      1.00000
      2      -1.2013      1.00000
      3       1.2391      1.00000
      4       3.4611      1.00000
      5       7.0754      0.00000
      6      11.2483      0.00000
      7      11.7633      0.00000
      8      12.2865      0.00000
 Fermi energy:         5.4871684399

 spin component 2

 k-point     1 :       0.0000    0.0000    0.0000
  band No.  band energies     occupation 
      1      -6.1900      1.00000
      2       5.4528      1.00000
      3       5.4870      1.00000
      4       5.4870      1.00000
      5       7.9722      0.00000
      6       7.9722      0.00000
      7       7.9910      0.00000
      8       8.3353      0.00000

 k-point     2 :       0.3333   -0.0000    0.0000
  band No.  band energies     occupation 
      1      -4.8688      1.00000
      2       0.2596      1.00000
      3       4.4828      1.00000
      4       4.5232      1.00000
      5       7.0634      0.00000
      6       8.9149      0.00000
      7       8.9413      0.00000
      8      13.1317      0.00000

 k-point     3 :       0.3333    0.3333   -0.0000
  band No.  band energies     occupation 
      1      -4.3530      1.00000
      2       0.5111      1.00000
      3       3.1300      1.00000
      4       3.1368      1.00000
      5       6.2185      0.00000
      6       7.4834      0.00000
      7      12.4759      0.00000
      8      12.5658      0.00000

 k-point     4 :      -0.3333    0.3333    0.0000
  band No.  band energies     occupation 
      1      -3.0652      1.00000
      2      -1.1789      1.00000
      3       1.2548      1.00000
      4       3.4233      1.00000
      5       7.0328      0.00000
      6      11.1809      0.00000
      7      11.7556      0.00000
      8      12.3224      0.00000

 k-point     5 :       0.0000    0.3333    0.3333
  band No.  band energies     occupation 
      1      -4.3675      1.00000
      2       0.4770      1.00000
      3       3.1657      1.00000
      4       3.1657      1.00000
      5       6.2620      0.00000
      6       7.4961      0.00000
      7      12.5164      0.00000
      8      12.5164      0.00000

 k-point     6 :      -0.3333    0.3333    0.3333
  band No.  band energies     occupation 
      1      -3.0645      1.00000
      2      -1.2013      1.00000
      3       1.2391      1.00000
      4       3.4611      1.00000
      5       7.0754      0.00000
      6      11.2482      0.00000
      7      11.7633      0.00000
      8      12.2865      0.00000


--------------------------------------------------------------------------------------------------------


 soft charge-density along one line, spin component           1
         0         1         2         3         4         5         6         7         8         9
 total charge-density along one line
 
 soft charge-density along one line, spin component           2
         0         1         2         3         4         5         6         7         8         9
 total charge-density along one line
 
 pseudopotential strength for first ion, spin component:           1
 18.451  25.742  -0.000  -0.000   0.000  -0.000  -0.000   0.000
 25.742  35.920  -0.000  -0.000   0.000  -0.000  -0.000   0.000
 -0.000  -0.000   4.182   0.000   0.000   7.794   0.000   0.000
 -0.000  -0.000   0.000   4.182   0.000   0.000   7.794   0.000
  0.000   0.000   0.000   0.000   4.182   0.000   0.000   7.794
 -0.000  -0.000   7.794   0.000   0.000  14.535   0.000   0.000
 -0.000  -0.000   0.000   7.794   0.000   0.000  14.535   0.000
  0.000   0.000   0.000   0.000   7.794   0.000   0.000  14.535
 pseudopotential strength for first ion, spin component:           2
 18.451  25.742   0.000   0.000   0.000   0.000   0.000   0.000
 25.742  35.920   0.000   0.000   0.000   0.000   0.000   0.000
  0.000   0.000   4.182   0.000   0.000   7.794   0.000   0.000
  0.000   0.000   0.000   4.182   0.000   0.000   7.794   0.000
  0.000   0.000   0.000   0.000   4.182   0.000   0.000   7.794
  0.000   0.000   7.794   0.000   0.000  14.535   0.000   0.000
  0.000   0.000   0.000   7.794   0.000   0.000  14.535   0.000
  0.000   0.000   0.000   0.000   7.794   0.000   0.000  14.535
 total augmentation occupancy for first ion, spin component:           1
  5.416  -1.993   0.000   0.000   0.000   0.000   0.000   0.000
 -1.993   0.805   0.000   0.000   0.000  -0.000  -0.000  -0.000
  0.000   0.000   2.879   0.000  -0.000  -0.627  -0.000   0.000
  0.000   0.000   0.000   2.879  -0.000  -0.000  -0.627   0.000
  0.000   0.000  -0.000  -0.000   2.888   0.000   0.000  -0.631
  0.000  -0.000  -0.627  -0.000   0.000   0.146   0.000  -0.000
  0.000  -0.000  -0.000  -0.627   0.000   0.000   0.146   0.000
  0.000  -0.000   0.000  -0.000  -0.631  -0.000   0.000   0.148
 total augmentation occupancy for first ion, spin component:           2
 -0.000   0.000  -0.000   0.000   0.000   0.000  -0.000   0.000
  0.000  -0.000   0.000  -0.000   0.000  -0.000   0.000   0.000
 -0.000   0.000  -0.000  -0.000  -0.000   0.000   0.000   0.000
  0.000  -0.000  -0.000  -0.000  -0.000   0.000   0.000   0.000
  0.000   0.000  -0.000  -0.000   0.000   0.000   0.000  -0.000
  0.000  -0.000   0.000   0.000   0.000  -0.000  -0.000  -0.000
 -0.000   0.000   0.000   0.000   0.000  -0.000  -0.000  -0.000
  0.000   0.000   0.000   0.000  -0.000  -0.000  -0.000   0.000


------------------------ aborting loop because EDIFF is reached ----------------------------------------





 total charge

# of ion       s       p       d       tot
------------------------------------------
    1        0.718   0.953   0.000   1.671
    2        0.718   0.953   0.000   1.671
--------------------------------------------------
tot          1.436   1.907   0.000   3.343



 magnetization (x)

# of ion       s       p       d       tot
------------------------------------------
    1        0.000   0.000   0.000   0.000
    2        0.000   0.000   0.000   0.000
--------------------------------------------------
tot          0.000   0.000   0.000   0.000
 
    CHARGE:  cpu time    0.0660: real time    0.0684
    FORLOC:  cpu time    0.0102: real time    0.0106
    FORNL :  cpu time    0.1031: real time    0.1054
    STRESS:  cpu time    0.2942: real time    0.3004
    FORCOR:  cpu time    0.2481: real time    0.2486
    FORHAR:  cpu time    0.0202: real time    0.0202
    MIXING:  cpu time    0.0071: real time    0.0072
    OFIELD:  cpu time    0.0000: real time    0.0000

  FORCE on cell =-STRESS in cart. coord.  units (eV):
  Direction    XX          YY          ZZ          XY          YZ          ZX
  --------------------------------------------------------------------------------------
  Alpha Z     3.21152     3.21152     3.21152
  Ewald     -74.67587   -75.18922   -75.18922     0.00000    -0.00000    -0.00000
  Hartree     5.49040     5.39095     5.39095     0.00000     0.00000     0.00000
  E(xc)     -25.23335   -25.23408   -25.23408     0.00000     0.00000     0.00000
  Local     -30.70756   -30.06361   -30.06361     0.00000     0.00000     0.00000
  n-local    76.25453    78.17052    74.21928     2.29719    -1.77791     1.20972
  augment   -11.30217   -11.30320   -11.30320    -0.00000    -0.00000    -0.00000
  Kinetic    56.76150    58.67913    55.16936     3.62922    -2.67293     1.76063
  Fock        0.00000     0.00000     0.00000     0.00000     0.00000     0.00000
  -------------------------------------------------------------------------------------
  Total      -0.20100    -0.06849    -0.06849     0.00000     0.00000     0.00000
  in kB      -7.68055    -2.61703    -2.61703     0.00000     0.00000     0.00000
  external pressure =       -4.30 kB  Pullay stress =        0.00 kB


 VOLUME and BASIS-vectors are now :
 -----------------------------------------------------------------------------
  energy-cutoff  :      700.00
  volume of cell :       41.93
      direct lattice vectors                 reciprocal lattice vectors
     0.000000000  2.752777000  2.752777000    -0.180733322  0.181634764  0.181634764
     2.766507000  0.000000000  2.752777000     0.180733322 -0.181634764  0.181634764
     2.766507000  2.752777000  0.000000000     0.180733322  0.181634764 -0.181634764

  length of vectors
     3.893014568  3.902735219  3.902735219     0.314081054  0.314081054  0.314081054


 FORCES acting on ions
    electron-ion (+dipol)            ewald-force                    non-local-force                 convergence-correction
 -----------------------------------------------------------------------------------------------
   -.809E-08 -.424E-08 -.449E-08   0.238E-14 -.119E-14 -.491E-14   0.731E-16 0.572E-16 0.757E-16   0.184E-10 0.205E-10 0.205E-10
   0.809E-08 0.424E-08 0.449E-08   -.241E-14 0.872E-15 0.462E-14   -.949E-16 -.710E-16 -.551E-16   -.184E-10 -.205E-10 -.205E-10
 -----------------------------------------------------------------------------------------------
   0.385E-12 0.103E-12 0.250E-12   -.283E-16 -.319E-15 -.292E-15   -.218E-16 -.138E-16 0.206E-16   -.163E-14 -.153E-14 0.194E-14
 
 
 POSITION                                       TOTAL-FORCE (eV/Angst)
 -----------------------------------------------------------------------------------
      4.14976      4.12917      4.12917        -0.000000     -0.000000      0.000000
      2.76651      2.75278      2.75278         0.000000      0.000000     -0.000000
 -----------------------------------------------------------------------------------
    total drift:                                0.000000      0.000000      0.000000


--------------------------------------------------------------------------------------------------------



  FREE ENERGIE OF THE ION-ELECTRON SYSTEM (eV)
  ---------------------------------------------------
  free  energy   TOTEN  =       -10.24666584 eV

  energy  without entropy=      -10.24666584  energy(sigma->0) =      -10.24666584
 


--------------------------------------------------------------------------------------------------------


    POTLOK:  cpu time    0.6480: real time    0.6590


--------------------------------------------------------------------------------------------------------




--------------------------------------------------------------------------------------------------------


     LOOP+:  cpu time   14.7210: real time   15.1718
    4ORBIT:  cpu time    0.0000: real time    0.0000



 total charge

# of ion       s       p       d       tot
------------------------------------------
    1        0.718   0.953   0.000   1.671
    2        0.718   0.953   0.000   1.671
--------------------------------------------------
tot          1.436   1.907   0.000   3.343



 magnetization (x)

# of ion       s       p       d       tot
------------------------------------------
    1        0.000   0.000   0.000   0.000
    2        0.000   0.000   0.000   0.000
--------------------------------------------------
tot          0.000   0.000   0.000   0.000
 
 BZINTS: Fermi energy:    5.487168;    8.000000 electrons
         Band energy: 0.482980E+01;  BLOECHL correction:    0.000000

 total amount of memory used by VASP MPI-rank0    77851. kBytes
=======================================================================

   base      :      30000. kBytes
   nonl-proj :        751. kBytes
   fftplans  :      13060. kBytes
   grid      :      31228. kBytes
   one-center:         12. kBytes
   wavefun   :       2800. kBytes
 
  
  
 General timing and accounting informations for this job:
 ========================================================
  
                  Total CPU time used (sec):       19.573
                            User time (sec):       17.080
                          System time (sec):        2.492
                         Elapsed time (sec):       20.220
  
                   Maximum memory used (kb):   118521856.
                   Average memory used (kb):          N/A
  
                          Minor page faults:       171400
                          Major page faults:          329
                 Voluntary context switches:           16
