<?xml version="1.0" encoding="ISO-8859-1"?>
<modeling>
 <generator>
  <i name="program" type="string">vasp </i>
  <i name="version" type="string">6.2.1  </i>
  <i name="subversion" type="string">16May21 (build Oct 27 2021 18:14:32) complex                          parallel </i>
  <i name="platform" type="string">LinuxIFC </i>
  <i name="date" type="string">2021 11 08 </i>
  <i name="time" type="string">17:27:12 </i>
 </generator>
 <incar>
  <i type="string" name="PREC">Accurate</i>
  <i type="string" name="ALGO">Normal</i>
  <i type="int" name="ISPIN">     2</i>
  <i type="int" name="NELM">   200</i>
  <i type="int" name="IBRION">     2</i>
  <i name="EDIFF">      0.00000010</i>
  <i name="EDIFFG">     -0.00100000</i>
  <i type="int" name="NSW">     1</i>
  <i type="int" name="ISIF">     3</i>
  <i name="ENCUT">    700.00000000</i>
  <i name="ENAUG">   1360.00000000</i>
  <v name="MAGMOM">      0.00000000      0.00000000</v>
  <i type="logical" name="LREAL"> F  </i>
  <i type="int" name="ISMEAR">    -5</i>
  <i name="SIGMA">      0.05000000</i>
  <i name="KSPACING">      0.29252878</i>
  <i type="logical" name="LWAVE"> F  </i>
  <i type="logical" name="LCHARG"> T  </i>
  <i type="logical" name="LVTOT"> T  </i>
  <i type="int" name="LORBIT">    11</i>
  <i type="logical" name="LELF"> T  </i>
  <i type="logical" name="LASPH"> T  </i>
  <i type="logical" name="LAECHG"> F  </i>
  <i type="logical" name="LMIXTAU"> T  </i>
 </incar>
 <primitive_cell>
  <structure name="primitive_cell" >
   <crystal>
    <varray name="basis" >
     <v>       0.00000000       2.75277700       2.75277700 </v>
     <v>       2.76650700       0.00000000       2.75277700 </v>
     <v>       2.76650700       2.75277700       0.00000000 </v>
    </varray>
    <i name="volume">     41.92796953 </i>
    <varray name="rec_basis" >
     <v>      -0.18073332       0.18163476       0.18163476 </v>
     <v>       0.18073332      -0.18163476       0.18163476 </v>
     <v>       0.18073332       0.18163476      -0.18163476 </v>
    </varray>
   </crystal>
   <varray name="positions" >
    <v>       0.75000000       0.75000000       0.75000000 </v>
    <v>       0.50000000       0.50000000       0.50000000 </v>
   </varray>
  </structure>
  <varray name="primitive_index" >
   <v type="int" >        1 </v>
   <v type="int" >        2 </v>
  </varray>
 </primitive_cell>
 <kpoints>
  <generation param="Gamma">
   <v type="int" name="divisions">       3        3        3 </v>
   <v name="usershift">      0.00000000       0.00000000       0.00000000 </v>
   <v name="genvec1">      0.33333333      -0.00000000       0.00000000 </v>
   <v name="genvec2">     -0.00000000       0.33333333      -0.00000000 </v>
   <v name="genvec3">      0.00000000       0.00000000       0.33333333 </v>
   <v name="shift">      0.00000000       0.00000000       0.00000000 </v>
  </generation>
  <varray name="kpointlist" >
   <v>       0.00000000       0.00000000       0.00000000 </v>
   <v>       0.33333333      -0.00000000       0.00000000 </v>
   <v>       0.33333333       0.33333333      -0.00000000 </v>
   <v>      -0.33333333       0.33333333       0.00000000 </v>
   <v>       0.00000000       0.33333333       0.33333333 </v>
   <v>      -0.33333333       0.33333333       0.33333333 </v>
  </varray>
  <varray name="weights" >
   <v>       0.03703704 </v>
   <v>       0.29629630 </v>
   <v>       0.14814815 </v>
   <v>       0.29629630 </v>
   <v>       0.07407407 </v>
   <v>       0.14814815 </v>
  </varray>
  <varray name="tetrahedronlist"  type="int" >
   <v type="int" >       16        1        2        2        3 </v>
   <v type="int" >        8        1        2        2        5 </v>
   <v type="int" >       16        2        3        4        6 </v>
   <v type="int" >       16        2        2        4        6 </v>
   <v type="int" >        8        2        2        3        6 </v>
   <v type="int" >        8        2        2        4        5 </v>
   <v type="int" >       16        2        4        5        6 </v>
   <v type="int" >        8        2        2        4        4 </v>
   <v type="int" >       16        2        3        4        4 </v>
   <v type="int" >        8        2        2        3        4 </v>
   <v type="int" >        8        3        3        4        4 </v>
   <v type="int" >        8        3        4        4        6 </v>
   <v type="int" >        8        3        4        4        4 </v>
   <v type="int" >        4        4        4        6        6 </v>
   <v type="int" >        8        4        5        6        6 </v>
   <v type="int" >        2        4        4        4        4 </v>
   <v type="int" >        4        5        5        6        6 </v>
  </varray>
  <i name="volumeweight">      0.00617284 </i>
 </kpoints>
 <parameters>
  <separator name="general" >
   <i type="string" name="SYSTEM">unknown system</i>
   <i type="logical" name="LCOMPAT"> F  </i>
  </separator>
  <separator name="electronic" >
   <i type="string" name="PREC">accura</i>
   <i name="ENMAX">    700.00000000</i>
   <i name="ENAUG">   1360.00000000</i>
   <i name="EDIFF">      0.00000010</i>
   <i type="int" name="IALGO">    38</i>
   <i type="int" name="IWAVPR">    11</i>
   <i type="int" name="NBANDS">     8</i>
   <i type="int" name="NBANDSLOW">    -1</i>
   <i type="int" name="NBANDSHIGH">    -1</i>
   <i name="NELECT">      8.00000000</i>
   <i type="int" name="TURBO">     0</i>
   <i type="int" name="IRESTART">     0</i>
   <i type="int" name="NREBOOT">     0</i>
   <i type="int" name="NMIN">     0</i>
   <i name="EREF">      0.00000000</i>
   <separator name="electronic smearing" >
    <i type="int" name="ISMEAR">    -5</i>
    <i name="SIGMA">      0.05000000</i>
    <i name="KSPACING">      0.29252878</i>
    <i type="logical" name="KGAMMA"> T  </i>
    <i type="logical" name="KBLOWUP"> T  </i>
   </separator>
   <separator name="electronic projectors" >
    <i type="logical" name="LREAL"> F  </i>
    <v name="ROPT">      0.00000000</v>
    <i type="int" name="LMAXPAW">  -100</i>
    <i type="int" name="LMAXMIX">     2</i>
    <i type="logical" name="NLSPLINE"> F  </i>
   </separator>
   <separator name="electronic startup" >
    <i type="int" name="ISTART">     0</i>
    <i type="int" name="ICHARG">     2</i>
    <i type="int" name="INIWAV">     1</i>
   </separator>
   <separator name="electronic spin" >
    <i type="int" name="ISPIN">     2</i>
    <i type="logical" name="LNONCOLLINEAR"> F  </i>
    <v name="MAGMOM">      0.00000000      0.00000000</v>
    <i name="NUPDOWN">     -1.00000000</i>
    <i type="logical" name="LSORBIT"> F  </i>
    <v name="SAXIS">      0.00000000      0.00000000      1.00000000</v>
    <i type="logical" name="LSPIRAL"> F  </i>
    <v name="QSPIRAL">      0.00000000      0.00000000      0.00000000</v>
    <i type="logical" name="LZEROZ"> F  </i>
   </separator>
   <separator name="electronic exchange-correlation" >
    <i type="logical" name="LASPH"> T  </i>
    <i type="logical" name="LMETAGGA"> F  </i>
   </separator>
   <separator name="electronic convergence" >
    <i type="int" name="NELM">   200</i>
    <i type="int" name="NELMDL">    -5</i>
    <i type="int" name="NELMIN">     2</i>
    <i name="ENINI">    700.00000000</i>
    <separator name="electronic convergence detail" >
     <i type="logical" name="LDIAG"> T  </i>
     <i type="logical" name="LSUBROT"> F  </i>
     <i name="WEIMIN">      0.00100000</i>
     <i name="EBREAK">      0.00000000</i>
     <i name="DEPER">      0.30000000</i>
     <i type="int" name="NRMM">     4</i>
     <i name="TIME">      0.40000000</i>
    </separator>
   </separator>
   <separator name="electronic mixer" >
    <i name="AMIX">      0.40000000</i>
    <i name="BMIX">      1.00000000</i>
    <i name="AMIN">      0.10000000</i>
    <i name="AMIX_MAG">      1.60000000</i>
    <i name="BMIX_MAG">      1.00000000</i>
    <separator name="electronic mixer details" >
     <i type="int" name="IMIX">     4</i>
     <i type="logical" name="MIXFIRST"> F  </i>
     <i type="int" name="MAXMIX">   -45</i>
     <i name="WC">    100.00000000</i>
     <i type="int" name="INIMIX">     1</i>
     <i type="int" name="MIXPRE">     1</i>
     <i type="int" name="MREMOVE">     5</i>
    </separator>
   </separator>
   <separator name="electronic dipolcorrection" >
    <i type="logical" name="LDIPOL"> F  </i>
    <i type="logical" name="LMONO"> F  </i>
    <i type="int" name="IDIPOL">     0</i>
    <i name="EPSILON">      1.00000000</i>
    <v name="DIPOL">   -100.00000000   -100.00000000   -100.00000000</v>
    <i name="EFIELD">      0.00000000</i>
   </separator>
  </separator>
  <separator name="grids" >
   <i type="int" name="NGX">    36</i>
   <i type="int" name="NGY">    36</i>
   <i type="int" name="NGZ">    36</i>
   <i type="int" name="NGXF">    72</i>
   <i type="int" name="NGYF">    72</i>
   <i type="int" name="NGZF">    72</i>
   <i type="logical" name="ADDGRID"> F  </i>
  </separator>
  <separator name="ionic" >
   <i type="int" name="NSW">     1</i>
   <i type="int" name="IBRION">     2</i>
   <i type="int" name="MDALGO">     0</i>
   <i type="int" name="ISIF">     3</i>
   <i name="PSTRESS">      0.00000000</i>
   <i name="EDIFFG">     -0.00100000</i>
   <i type="int" name="NFREE">     1</i>
   <i name="POTIM">      0.50000000</i>
   <i name="SMASS">     -3.00000000</i>
   <i name="SCALEE">      1.00000000</i>
  </separator>
  <separator name="ionic md" >
   <i name="TEBEG">      0.00010000</i>
   <i name="TEEND">      0.00010000</i>
   <i type="int" name="NBLOCK">     1</i>
   <i type="int" name="KBLOCK">     1</i>
   <i type="int" name="NPACO">   256</i>
   <i name="APACO">     16.00000000</i>
  </separator>
  <separator name="symmetry" >
   <i type="int" name="ISYM">     2</i>
   <i name="SYMPREC">      0.00001000</i>
  </separator>
  <separator name="dos" >
   <i type="int" name="LORBIT">    11</i>
   <v name="RWIGS">     -1.00000000</v>
   <i type="int" name="NEDOS">   301</i>
   <i name="EMIN">     10.00000000</i>
   <i name="EMAX">    -10.00000000</i>
   <i name="EFERMI">      0.00000000</i>
  </separator>
  <separator name="writing" >
   <i type="int" name="NWRITE">     2</i>
   <i type="logical" name="LWAVE"> F  </i>
   <i type="logical" name="LDOWNSAMPLE"> F  </i>
   <i type="logical" name="LCHARG"> T  </i>
   <i type="logical" name="LPARD"> F  </i>
   <i type="logical" name="LVTOT"> T  </i>
   <i type="logical" name="LVHAR"> F  </i>
   <i type="logical" name="LELF"> T  </i>
   <i type="logical" name="LOPTICS"> F  </i>
   <v name="STM">      0.00000000      0.00000000      0.00000000      0.00000000      0.00000000      0.00000000      0.00000000</v>
  </separator>
  <separator name="performance" >
   <i type="int" name="NPAR">     1</i>
   <i type="int" name="NSIM">     4</i>
   <i type="int" name="NBLK">    -1</i>
   <i type="logical" name="LPLANE"> T  </i>
   <i type="logical" name="LSCALAPACK"> F  </i>
   <i type="logical" name="LSCAAWARE"> F  </i>
   <i type="logical" name="LSCALU"> F  </i>
   <i type="logical" name="LASYNC"> F  </i>
   <i type="logical" name="LORBITALREAL"> F  </i>
  </separator>
  <separator name="miscellaneous" >
   <i type="int" name="IDIOT">     3</i>
   <i type="int" name="PHON_NSTRUCT">    -1</i>
   <i type="logical" name="LMUSIC"> F  </i>
   <v name="POMASS">     28.08500000</v>
   <v name="DARWINR">      0.00000000</v>
   <v name="DARWINV">      1.00000000</v>
   <i type="logical" name="LCORR"> T  </i>
  </separator>
  <i type="logical" name="GGA_COMPAT"> T  </i>
  <i type="logical" name="LBERRY"> F  </i>
  <i type="int" name="ICORELEVEL">     0</i>
  <i type="logical" name="LDAU"> F  </i>
  <i type="int" name="I_CONSTRAINED_M">     0</i>
  <separator name="electronic exchange-correlation" >
   <i type="string" name="GGA">--</i>
   <i type="int" name="VOSKOWN">     0</i>
   <i type="logical" name="LHFCALC"> F  </i>
   <i type="string" name="PRECFOCK"></i>
   <i type="logical" name="LSYMGRAD"> F  </i>
   <i type="logical" name="LHFONE"> F  </i>
   <i type="logical" name="LRHFCALC"> F  </i>
   <i type="logical" name="LTHOMAS"> F  </i>
   <i type="logical" name="LMODELHF"> F  </i>
   <i type="logical" name="LFOCKACE"> F  </i>
   <i name="ENCUT4O">     -1.00000000</i>
   <i type="int" name="EXXOEP">     0</i>
   <i type="int" name="FOURORBIT">     0</i>
   <i name="AEXX">      0.00000000</i>
   <i name="HFALPHA">      0.00000000</i>
   <i name="MCALPHA">      0.00000000</i>
   <i name="ALDAX">      1.00000000</i>
   <i name="AGGAX">      1.00000000</i>
   <i name="ALDAC">      1.00000000</i>
   <i name="AGGAC">      1.00000000</i>
   <i type="int" name="NKREDX">     1</i>
   <i type="int" name="NKREDY">     1</i>
   <i type="int" name="NKREDZ">     1</i>
   <i type="logical" name="SHIFTRED"> F  </i>
   <i type="logical" name="ODDONLY"> F  </i>
   <i type="logical" name="EVENONLY"> F  </i>
   <i type="int" name="LMAXFOCK">     0</i>
   <i type="int" name="NMAXFOCKAE">     0</i>
   <i type="logical" name="LFOCKAEDFT"> F  </i>
   <i name="HFSCREEN">      0.00000000</i>
   <i name="HFSCREENC">      0.00000000</i>
   <i type="int" name="NBANDSGWLOW">     0</i>
  </separator>
  <separator name="vdW DFT" >
   <i type="logical" name="LUSE_VDW"> F  </i>
   <i name="Zab_VDW">     -0.84910000</i>
   <i name="PARAM1">      0.12340000</i>
   <i name="PARAM2">      1.00000000</i>
   <i name="PARAM3">      0.00000000</i>
  </separator>
  <separator name="model GW" >
   <i type="int" name="MODEL_GW">     0</i>
   <i name="MODEL_EPS0">     12.57839086</i>
   <i name="MODEL_ALPHA">      1.00000000</i>
  </separator>
  <separator name="linear response parameters" >
   <i type="logical" name="LEPSILON"> F  </i>
   <i type="logical" name="LRPA"> F  </i>
   <i type="logical" name="LNABLA"> F  </i>
   <i type="logical" name="LVEL"> F  </i>
   <i type="int" name="KINTER">     0</i>
   <i name="CSHIFT">      0.10000000</i>
   <i name="OMEGAMAX">     -1.00000000</i>
   <i name="DEG_THRESHOLD">      0.00200000</i>
   <i name="RTIME">     -0.10000000</i>
   <i name="WPLASMAI">      0.00000000</i>
   <v name="DFIELD">      0.00000000      0.00000000      0.00000000</v>
   <v name="WPLASMA">      0.00000000      0.00000000      0.00000000      0.00000000      0.00000000      0.00000000      0.00000000      0.00000000      0.00000000</v>
  </separator>
  <separator name="orbital magnetization" >
   <i type="logical" name="NUCIND"> F  </i>
   <v name="MAGPOS">      0.00000000      0.00000000      0.00000000</v>
   <i type="logical" name="LNICSALL"> T  </i>
   <i type="logical" name="ORBITALMAG"> F  </i>
   <i type="logical" name="LMAGBLOCH"> F  </i>
   <i type="logical" name="LCHIMAG"> F  </i>
   <i type="logical" name="LGAUGE"> T  </i>
   <i type="int" name="MAGATOM">     0</i>
   <v name="MAGDIPOL">      0.00000000      0.00000000      0.00000000</v>
   <v name="AVECCONST">      0.00000000      0.00000000      0.00000000</v>
  </separator>
  <separator name="response functions" >
   <i type="logical" name="LFINITE_TEMPERATURE"> F  </i>
   <i type="logical" name="LADDER"> F  </i>
   <i type="logical" name="LRPAFORCE"> F  </i>
   <i type="logical" name="LFXC"> F  </i>
   <i type="logical" name="LHARTREE"> T  </i>
   <i type="int" name="IBSE">     0</i>
   <v type="int" name="KPOINT">    -1     0     0     0</v>
   <i type="logical" name="LTCTC"> F  </i>
   <i type="logical" name="LTCTE"> F  </i>
   <i type="logical" name="LTETE"> F  </i>
   <i type="logical" name="LTRIPLET"> F  </i>
   <i type="logical" name="LFXCEPS"> F  </i>
   <i type="logical" name="LFXHEG"> F  </i>
   <i type="int" name="NATURALO">     2</i>
   <i type="logical" name="LHOLEGF"> F  </i>
   <i type="logical" name="L2ORDER"> F  </i>
   <i type="logical" name="LDMP1"> F  </i>
   <i type="logical" name="LMP2LT"> F  </i>
   <i type="logical" name="LSMP2LT"> F  </i>
   <i type="logical" name="LGWLF"> F  </i>
   <i name="ENCUTGW">     -2.00000000</i>
   <i name="ENCUTGWSOFT">     -2.00000000</i>
   <i name="ENCUTLF">     -1.00000000</i>
   <i type="logical" name="LESF_SPLINES"> F  </i>
   <i type="int" name="LMAXMP2">    -1</i>
   <i name="SCISSOR">      0.00000000</i>
   <i type="int" name="NOMEGA">     0</i>
   <i type="int" name="NOMEGAR">     0</i>
   <i type="int" name="NBANDSGW">    -1</i>
   <i type="int" name="NBANDSO">    -1</i>
   <i type="int" name="NBANDSV">    -1</i>
   <i type="int" name="NELM">   200</i>
   <i type="int" name="NELMHF">     1</i>
   <i type="int" name="DIM">     3</i>
   <i type="int" name="IESPILON">     4</i>
   <i type="int" name="ANTIRES">     0</i>
   <i name="OMEGAMAX">    -30.00000000</i>
   <i name="OMEGAMIN">    -30.00000000</i>
   <i name="OMEGATL">   -200.00000000</i>
   <i type="int" name="OMEGAGRID">     0</i>
   <i name="CSHIFT">     -0.10000000</i>
   <i type="logical" name="LSELFENERGY"> F  </i>
   <i type="logical" name="LSPECTRAL"> F  </i>
   <i type="logical" name="LSPECTRALGW"> F  </i>
   <i type="logical" name="LSINGLES"> F  </i>
   <i type="logical" name="LFERMIGW"> F  </i>
   <i type="logical" name="ODDONLYGW"> F  </i>
   <i type="logical" name="EVENONLYGW"> F  </i>
   <i type="int" name="NKREDLFX">     1</i>
   <i type="int" name="NKREDLFY">     1</i>
   <i type="int" name="NKREDLFZ">     1</i>
   <i type="int" name="MAXMEM">  2800</i>
   <i type="int" name="TELESCOPE">     0</i>
   <i type="int" name="NTAUPAR">    -1</i>
   <i type="int" name="NOMEGAPAR">    -1</i>
   <i name="DAMP_NEWTON">      0.80000001</i>
   <i name="LAMBDA">      1.00000000</i>
  </separator>
  <separator name="External order field" >
   <i name="OFIELD_KAPPA">      0.00000000</i>
   <v name="OFIELD_K">      0.00000000      0.00000000      0.00000000</v>
   <i name="OFIELD_Q6_NEAR">      0.00000000</i>
   <i name="OFIELD_Q6_FAR">      0.00000000</i>
   <i name="OFIELD_A">      0.00000000</i>
  </separator>
 </parameters>
 <atominfo>
  <atoms>       2 </atoms>
  <types>       1 </types>
  <array name="atoms" >
   <dimension dim="1">ion</dimension>
   <field type="string">element</field>
   <field type="int">atomtype</field>
   <set>
    <rc><c>Si</c><c>   1</c></rc>
    <rc><c>Si</c><c>   1</c></rc>
   </set>
  </array>
  <array name="atomtypes" >
   <dimension dim="1">type</dimension>
   <field type="int">atomspertype</field>
   <field type="string">element</field>
   <field>mass</field>
   <field>valence</field>
   <field type="string">pseudopotential</field>
   <set>
    <rc><c>   2</c><c>Si</c><c>     28.08500000</c><c>      4.00000000</c><c>  PAW_PBE Si 05Jan2001                  </c></rc>
   </set>
  </array>
 </atominfo>
 <structure name="initialpos" >
  <crystal>
   <varray name="basis" >
    <v>       0.00000000       2.75277700       2.75277700 </v>
    <v>       2.76650700       0.00000000       2.75277700 </v>
    <v>       2.76650700       2.75277700       0.00000000 </v>
   </varray>
   <i name="volume">     41.92796953 </i>
   <varray name="rec_basis" >
    <v>      -0.18073332       0.18163476       0.18163476 </v>
    <v>       0.18073332      -0.18163476       0.18163476 </v>
    <v>       0.18073332       0.18163476      -0.18163476 </v>
   </varray>
  </crystal>
  <varray name="positions" >
   <v>       0.75000000       0.75000000       0.75000000 </v>
   <v>       0.50000000       0.50000000       0.50000000 </v>
  </varray>
 </structure>
 <calculation>
  <scstep>
   <time name="dav">    0.33    0.33</time>
   <time name="total">    0.97    0.99</time>
   <energy>
    <i name="alphaZ">      3.21152025 </i>
    <i name="ewald">   -225.05420071 </i>
    <i name="hartreedc">    -11.70851578 </i>
    <i name="XCdc">    -18.78191073 </i>
    <i name="pawpsdc">    176.24759923 </i>
    <i name="pawaedc">   -141.06103558 </i>
    <i name="eentropy">      0.00000000 </i>
    <i name="bandstr">     25.67905055 </i>
    <i name="atom">    206.13324734 </i>
    <i name="e_fr_energy">     14.66575458 </i>
    <i name="e_wo_entrp">     14.66575458 </i>
    <i name="e_0_energy">     14.66575458 </i>
   </energy>
  </scstep>
  <scstep>
   <time name="dav">    0.50    0.51</time>
   <time name="total">    0.50    0.51</time>
   <energy>
    <i name="e_fr_energy">    -10.11216347 </i>
    <i name="e_wo_entrp">    -10.11216347 </i>
    <i name="e_0_energy">    -10.11216347 </i>
   </energy>
  </scstep>
  <scstep>
   <time name="dav">    0.41    0.42</time>
   <time name="total">    0.41    0.42</time>
   <energy>
    <i name="e_fr_energy">    -10.45094038 </i>
    <i name="e_wo_entrp">    -10.45094038 </i>
    <i name="e_0_energy">    -10.45094038 </i>
   </energy>
  </scstep>
  <scstep>
   <time name="dav">    0.52    0.53</time>
   <time name="total">    0.52    0.53</time>
   <energy>
    <i name="e_fr_energy">    -10.45320307 </i>
    <i name="e_wo_entrp">    -10.45320307 </i>
    <i name="e_0_energy">    -10.45320307 </i>
   </energy>
  </scstep>
  <scstep>
   <time name="dav">    0.40    0.41</time>
   <time name="total">    0.45    0.46</time>
   <energy>
    <i name="e_fr_energy">    -10.45320331 </i>
    <i name="e_wo_entrp">    -10.45320331 </i>
    <i name="e_0_energy">    -10.45320331 </i>
   </energy>
  </scstep>
  <scstep>
   <time name="dav">    0.34    0.35</time>
   <time name="total">    0.98    0.99</time>
   <energy>
    <i name="e_fr_energy">    -10.30929611 </i>
    <i name="e_wo_entrp">    -10.30929611 </i>
    <i name="e_0_energy">    -10.30929611 </i>
   </energy>
  </scstep>
  <scstep>
   <time name="dav">    0.41    0.42</time>
   <time name="total">    1.07    1.09</time>
   <energy>
    <i name="e_fr_energy">    -10.24373100 </i>
    <i name="e_wo_entrp">    -10.24373100 </i>
    <i name="e_0_energy">    -10.24373100 </i>
   </energy>
  </scstep>
  <scstep>
   <time name="dav">    0.29    0.30</time>
   <time name="total">    0.90    0.91</time>
   <energy>
    <i name="e_fr_energy">    -10.24617954 </i>
    <i name="e_wo_entrp">    -10.24617954 </i>
    <i name="e_0_energy">    -10.24617954 </i>
   </energy>
  </scstep>
  <scstep>
   <time name="dav">    0.36    0.36</time>
   <time name="total">    0.95    0.96</time>
   <energy>
    <i name="e_fr_energy">    -10.24662273 </i>
    <i name="e_wo_entrp">    -10.24662273 </i>
    <i name="e_0_energy">    -10.24662273 </i>
   </energy>
  </scstep>
  <scstep>
   <time name="dav">    0.48    0.49</time>
   <time name="total">    1.12    1.14</time>
   <energy>
    <i name="e_fr_energy">    -10.24666578 </i>
    <i name="e_wo_entrp">    -10.24666578 </i>
    <i name="e_0_energy">    -10.24666578 </i>
   </energy>
  </scstep>
  <scstep>
   <time name="dav">    0.79    0.84</time>
   <time name="total">    1.71    1.92</time>
   <energy>
    <i name="e_fr_energy">    -10.24666554 </i>
    <i name="e_wo_entrp">    -10.24666554 </i>
    <i name="e_0_energy">    -10.24666554 </i>
   </energy>
  </scstep>
  <scstep>
   <time name="dav">    0.42    0.43</time>
   <time name="total">    1.15    1.18</time>
   <energy>
    <i name="e_fr_energy">    -10.24666576 </i>
    <i name="e_wo_entrp">    -10.24666576 </i>
    <i name="e_0_energy">    -10.24666576 </i>
   </energy>
  </scstep>
  <scstep>
   <time name="dav">    0.51    0.53</time>
   <time name="total">    1.13    1.16</time>
   <energy>
    <i name="alphaZ">      3.21152025 </i>
    <i name="ewald">   -225.05420071 </i>
    <i name="hartreedc">    -16.27241670 </i>
    <i name="XCdc">    -18.07786133 </i>
    <i name="pawpsdc">    814.02505504 </i>
    <i name="pawaedc">   -779.04180557 </i>
    <i name="eentropy">      0.00000000 </i>
    <i name="bandstr">      4.82979583 </i>
    <i name="atom">    206.13324734 </i>
    <i name="e_fr_energy">    -10.24666584 </i>
    <i name="e_wo_entrp">    -10.24666584 </i>
    <i name="e_0_energy">    -10.24666584 </i>
   </energy>
  </scstep>
  <structure>
   <crystal>
    <varray name="basis" >
     <v>       0.00000000       2.75277700       2.75277700 </v>
     <v>       2.76650700       0.00000000       2.75277700 </v>
     <v>       2.76650700       2.75277700       0.00000000 </v>
    </varray>
    <i name="volume">     41.92796953 </i>
    <varray name="rec_basis" >
     <v>      -0.18073332       0.18163476       0.18163476 </v>
     <v>       0.18073332      -0.18163476       0.18163476 </v>
     <v>       0.18073332       0.18163476      -0.18163476 </v>
    </varray>
   </crystal>
   <varray name="positions" >
    <v>       0.75000000       0.75000000       0.75000000 </v>
    <v>       0.50000000       0.50000000       0.50000000 </v>
   </varray>
  </structure>
  <varray name="forces" >
   <v>      -0.00000000      -0.00000000       0.00000000 </v>
   <v>       0.00000000       0.00000000      -0.00000000 </v>
  </varray>
  <varray name="stress" >
   <v>      -7.68054883      -0.00000000       0.00000000 </v>
   <v>       0.00000000      -2.61702513       0.00000000 </v>
   <v>      -0.00000000       0.00000000      -2.61702513 </v>
  </varray>
  <energy>
   <i name="e_fr_energy">    -10.24666584 </i>
   <i name="e_wo_entrp">    -10.24666584 </i>
   <i name="e_0_energy">    -10.24666584 </i>
  </energy>
  <time name="totalsc">   14.72   15.17</time>
  <eigenvalues>
   <array>
    <dimension dim="1">band</dimension>
    <dimension dim="2">kpoint</dimension>
    <dimension dim="3">spin</dimension>
    <field>eigene</field>
    <field>occ</field>
    <set>
     <set comment="spin 1">
      <set comment="kpoint 1">
       <r>   -6.1900    1.0000 </r>
       <r>    5.4528    1.0000 </r>
       <r>    5.4870    1.0000 </r>
       <r>    5.4870    1.0000 </r>
       <r>    7.9722    0.0000 </r>
       <r>    7.9722    0.0000 </r>
       <r>    7.9910    0.0000 </r>
       <r>    8.3353    0.0000 </r>
      </set>
      <set comment="kpoint 2">
       <r>   -4.8688    1.0000 </r>
       <r>    0.2597    1.0000 </r>
       <r>    4.4828    1.0000 </r>
       <r>    4.5232    1.0000 </r>
       <r>    7.0634    0.0000 </r>
       <r>    8.9149    0.0000 </r>
       <r>    8.9413    0.0000 </r>
       <r>   13.1317    0.0000 </r>
      </set>
      <set comment="kpoint 3">
       <r>   -4.3530    1.0000 </r>
       <r>    0.5111    1.0000 </r>
       <r>    3.1300    1.0000 </r>
       <r>    3.1368    1.0000 </r>
       <r>    6.2185    0.0000 </r>
       <r>    7.4834    0.0000 </r>
       <r>   12.4759    0.0000 </r>
       <r>   12.5658    0.0000 </r>
      </set>
      <set comment="kpoint 4">
       <r>   -3.0652    1.0000 </r>
       <r>   -1.1789    1.0000 </r>
       <r>    1.2548    1.0000 </r>
       <r>    3.4233    1.0000 </r>
       <r>    7.0328    0.0000 </r>
       <r>   11.1809    0.0000 </r>
       <r>   11.7556    0.0000 </r>
       <r>   12.3224    0.0000 </r>
      </set>
      <set comment="kpoint 5">
       <r>   -4.3675    1.0000 </r>
       <r>    0.4771    1.0000 </r>
       <r>    3.1657    1.0000 </r>
       <r>    3.1657    1.0000 </r>
       <r>    6.2620    0.0000 </r>
       <r>    7.4961    0.0000 </r>
       <r>   12.5164    0.0000 </r>
       <r>   12.5164    0.0000 </r>
      </set>
      <set comment="kpoint 6">
       <r>   -3.0645    1.0000 </r>
       <r>   -1.2013    1.0000 </r>
       <r>    1.2391    1.0000 </r>
       <r>    3.4611    1.0000 </r>
       <r>    7.0754    0.0000 </r>
       <r>   11.2483    0.0000 </r>
       <r>   11.7633    0.0000 </r>
       <r>   12.2865    0.0000 </r>
      </set>
     </set>
     <set comment="spin 2">
      <set comment="kpoint 1">
       <r>   -6.1900    1.0000 </r>
       <r>    5.4528    1.0000 </r>
       <r>    5.4870    1.0000 </r>
       <r>    5.4870    1.0000 </r>
       <r>    7.9722    0.0000 </r>
       <r>    7.9722    0.0000 </r>
       <r>    7.9910    0.0000 </r>
       <r>    8.3353    0.0000 </r>
      </set>
      <set comment="kpoint 2">
       <r>   -4.8688    1.0000 </r>
       <r>    0.2596    1.0000 </r>
       <r>    4.4828    1.0000 </r>
       <r>    4.5232    1.0000 </r>
       <r>    7.0634    0.0000 </r>
       <r>    8.9149    0.0000 </r>
       <r>    8.9413    0.0000 </r>
       <r>   13.1317    0.0000 </r>
      </set>
      <set comment="kpoint 3">
       <r>   -4.3530    1.0000 </r>
       <r>    0.5111    1.0000 </r>
       <r>    3.1300    1.0000 </r>
       <r>    3.1368    1.0000 </r>
       <r>    6.2185    0.0000 </r>
       <r>    7.4834    0.0000 </r>
       <r>   12.4759    0.0000 </r>
       <r>   12.5658    0.0000 </r>
      </set>
      <set comment="kpoint 4">
       <r>   -3.0652    1.0000 </r>
       <r>   -1.1789    1.0000 </r>
       <r>    1.2548    1.0000 </r>
       <r>    3.4233    1.0000 </r>
       <r>    7.0328    0.0000 </r>
       <r>   11.1809    0.0000 </r>
       <r>   11.7556    0.0000 </r>
       <r>   12.3224    0.0000 </r>
      </set>
      <set comment="kpoint 5">
       <r>   -4.3675    1.0000 </r>
       <r>    0.4770    1.0000 </r>
       <r>    3.1657    1.0000 </r>
       <r>    3.1657    1.0000 </r>
       <r>    6.2620    0.0000 </r>
       <r>    7.4961    0.0000 </r>
       <r>   12.5164    0.0000 </r>
       <r>   12.5164    0.0000 </r>
      </set>
      <set comment="kpoint 6">
       <r>   -3.0645    1.0000 </r>
       <r>   -1.2013    1.0000 </r>
       <r>    1.2391    1.0000 </r>
       <r>    3.4611    1.0000 </r>
       <r>    7.0754    0.0000 </r>
       <r>   11.2482    0.0000 </r>
       <r>   11.7633    0.0000 </r>
       <r>   12.2865    0.0000 </r>
      </set>
     </set>
    </set>
   </array>
  </eigenvalues>
  <separator name="orbital magnetization" >
   <v name="MAGDIPOLOUT">      0.00000000      0.00000000      0.00000000</v>
  </separator>
  <dos>
   <i name="efermi">      5.48716844 </i>
   <total>
    <array>
     <dimension dim="1">gridpoints</dimension>
     <dimension dim="2">spin</dimension>
     <field>energy</field>
     <field>total</field>
     <field>integrated</field>
     <set>
      <set comment="spin 1">
       <r>    -7.1561     0.0000     0.0000 </r>
       <r>    -7.0852     0.0000     0.0000 </r>
       <r>    -7.0144     0.0000     0.0000 </r>
       <r>    -6.9435     0.0000     0.0000 </r>
       <r>    -6.8727     0.0000     0.0000 </r>
       <r>    -6.8018     0.0000     0.0000 </r>
       <r>    -6.7310     0.0000     0.0000 </r>
       <r>    -6.6601     0.0000     0.0000 </r>
       <r>    -6.5893     0.0000     0.0000 </r>
       <r>    -6.5184     0.0000     0.0000 </r>
       <r>    -6.4476     0.0000     0.0000 </r>
       <r>    -6.3768     0.0000     0.0000 </r>
       <r>    -6.3059     0.0000     0.0000 </r>
       <r>    -6.2351     0.0000     0.0000 </r>
       <r>    -6.1642     0.0001     0.0000 </r>
       <r>    -6.0934     0.0013     0.0000 </r>
       <r>    -6.0225     0.0039     0.0002 </r>
       <r>    -5.9517     0.0079     0.0006 </r>
       <r>    -5.8808     0.0133     0.0014 </r>
       <r>    -5.8100     0.0201     0.0025 </r>
       <r>    -5.7391     0.0282     0.0042 </r>
       <r>    -5.6683     0.0378     0.0066 </r>
       <r>    -5.5974     0.0488     0.0096 </r>
       <r>    -5.5266     0.0612     0.0135 </r>
       <r>    -5.4558     0.0749     0.0183 </r>
       <r>    -5.3849     0.0901     0.0242 </r>
       <r>    -5.3141     0.1066     0.0311 </r>
       <r>    -5.2432     0.1246     0.0393 </r>
       <r>    -5.1724     0.1439     0.0488 </r>
       <r>    -5.1015     0.1647     0.0597 </r>
       <r>    -5.0307     0.1868     0.0722 </r>
       <r>    -4.9598     0.2103     0.0862 </r>
       <r>    -4.8890     0.2352     0.1020 </r>
       <r>    -4.8181     0.2574     0.1195 </r>
       <r>    -4.7473     0.2791     0.1385 </r>
       <r>    -4.6764     0.3017     0.1591 </r>
       <r>    -4.6056     0.3254     0.1813 </r>
       <r>    -4.5348     0.3501     0.2052 </r>
       <r>    -4.4639     0.3758     0.2309 </r>
       <r>    -4.3931     0.4026     0.2585 </r>
       <r>    -4.3222     0.4389     0.2881 </r>
       <r>    -4.2514     0.4799     0.3207 </r>
       <r>    -4.1805     0.5154     0.3560 </r>
       <r>    -4.1097     0.5454     0.3936 </r>
       <r>    -4.0388     0.5698     0.4332 </r>
       <r>    -3.9680     0.5886     0.4742 </r>
       <r>    -3.8971     0.6020     0.5164 </r>
       <r>    -3.8263     0.6098     0.5594 </r>
       <r>    -3.7554     0.6120     0.6027 </r>
       <r>    -3.6846     0.6087     0.6460 </r>
       <r>    -3.6138     0.5999     0.6888 </r>
       <r>    -3.5429     0.5855     0.7308 </r>
       <r>    -3.4721     0.5656     0.7716 </r>
       <r>    -3.4012     0.5401     0.8108 </r>
       <r>    -3.3304     0.5092     0.8480 </r>
       <r>    -3.2595     0.4726     0.8829 </r>
       <r>    -3.1887     0.4305     0.9149 </r>
       <r>    -3.1178     0.3829     0.9437 </r>
       <r>    -3.0470     0.5228     1.0000 </r>
       <r>    -2.9761     0.0000     1.0000 </r>
       <r>    -2.9053     0.0000     1.0000 </r>
       <r>    -2.8344     0.0000     1.0000 </r>
       <r>    -2.7636     0.0000     1.0000 </r>
       <r>    -2.6928     0.0000     1.0000 </r>
       <r>    -2.6219     0.0000     1.0000 </r>
       <r>    -2.5511     0.0000     1.0000 </r>
       <r>    -2.4802     0.0000     1.0000 </r>
       <r>    -2.4094     0.0000     1.0000 </r>
       <r>    -2.3385     0.0000     1.0000 </r>
       <r>    -2.2677     0.0000     1.0000 </r>
       <r>    -2.1968     0.0000     1.0000 </r>
       <r>    -2.1260     0.0000     1.0000 </r>
       <r>    -2.0551     0.0000     1.0000 </r>
       <r>    -1.9843     0.0000     1.0000 </r>
       <r>    -1.9134     0.0000     1.0000 </r>
       <r>    -1.8426     0.0000     1.0000 </r>
       <r>    -1.7718     0.0000     1.0000 </r>
       <r>    -1.7009     0.0000     1.0000 </r>
       <r>    -1.6301     0.0000     1.0000 </r>
       <r>    -1.5592     0.0000     1.0000 </r>
       <r>    -1.4884     0.0000     1.0000 </r>
       <r>    -1.4175     0.0000     1.0000 </r>
       <r>    -1.3467     0.0000     1.0000 </r>
       <r>    -1.2758     0.0000     1.0000 </r>
       <r>    -1.2050     0.0000     1.0000 </r>
       <r>    -1.1341     0.8367     1.0522 </r>
       <r>    -1.0633     0.3767     1.0767 </r>
       <r>    -0.9924     0.4331     1.1054 </r>
       <r>    -0.9216     0.4831     1.1379 </r>
       <r>    -0.8508     0.5268     1.1737 </r>
       <r>    -0.7799     0.5640     1.2124 </r>
       <r>    -0.7091     0.5949     1.2535 </r>
       <r>    -0.6382     0.6194     1.2965 </r>
       <r>    -0.5674     0.6375     1.3411 </r>
       <r>    -0.4965     0.6492     1.3867 </r>
       <r>    -0.4257     0.6545     1.4329 </r>
       <r>    -0.3548     0.6534     1.4793 </r>
       <r>    -0.2840     0.6460     1.5253 </r>
       <r>    -0.2131     0.6321     1.5707 </r>
       <r>    -0.1423     0.6119     1.6148 </r>
       <r>    -0.0714     0.5853     1.6572 </r>
       <r>    -0.0006     0.5523     1.6975 </r>
       <r>     0.0702     0.5129     1.7353 </r>
       <r>     0.1411     0.4671     1.7701 </r>
       <r>     0.2119     0.4149     1.8013 </r>
       <r>     0.2828     0.3259     1.8283 </r>
       <r>     0.3536     0.2012     1.8467 </r>
       <r>     0.4245     0.1204     1.8579 </r>
       <r>     0.4953     0.0841     1.8649 </r>
       <r>     0.5662     0.0795     1.8706 </r>
       <r>     0.6370     0.0772     1.8761 </r>
       <r>     0.7079     0.0749     1.8815 </r>
       <r>     0.7787     0.0727     1.8867 </r>
       <r>     0.8496     0.0705     1.8918 </r>
       <r>     0.9204     0.0684     1.8967 </r>
       <r>     0.9912     0.0662     1.9015 </r>
       <r>     1.0621     0.0641     1.9061 </r>
       <r>     1.1329     0.0621     1.9106 </r>
       <r>     1.2038     0.0601     1.9149 </r>
       <r>     1.2746     0.8220     1.9621 </r>
       <r>     1.3455     0.3140     1.9838 </r>
       <r>     1.4163     0.3275     2.0066 </r>
       <r>     1.4872     0.3399     2.0302 </r>
       <r>     1.5580     0.3510     2.0547 </r>
       <r>     1.6289     0.3609     2.0799 </r>
       <r>     1.6997     0.3695     2.1058 </r>
       <r>     1.7706     0.3769     2.1322 </r>
       <r>     1.8414     0.3831     2.1592 </r>
       <r>     1.9122     0.3881     2.1865 </r>
       <r>     1.9831     0.3919     2.2141 </r>
       <r>     2.0539     0.3944     2.2420 </r>
       <r>     2.1248     0.3957     2.2700 </r>
       <r>     2.1956     0.3957     2.2980 </r>
       <r>     2.2665     0.3946     2.3260 </r>
       <r>     2.3373     0.3922     2.3539 </r>
       <r>     2.4082     0.3885     2.3816 </r>
       <r>     2.4790     0.3837     2.4089 </r>
       <r>     2.5499     0.3776     2.4359 </r>
       <r>     2.6207     0.3703     2.4624 </r>
       <r>     2.6916     0.3618     2.4883 </r>
       <r>     2.7624     0.3520     2.5136 </r>
       <r>     2.8332     0.3411     2.5382 </r>
       <r>     2.9041     0.3288     2.5619 </r>
       <r>     2.9749     0.3154     2.5848 </r>
       <r>     3.0458     0.3007     2.6066 </r>
       <r>     3.1166     0.2849     2.6274 </r>
       <r>     3.1875     0.5078     2.6523 </r>
       <r>     3.2583     0.9670     2.7041 </r>
       <r>     3.3292     1.5149     2.7915 </r>
       <r>     3.4000     2.1516     2.9208 </r>
       <r>     3.4709     1.4924     3.0747 </r>
       <r>     3.5417     0.9646     3.1432 </r>
       <r>     3.6126     0.9546     3.2112 </r>
       <r>     3.6834     0.9396     3.2783 </r>
       <r>     3.7542     0.9196     3.3442 </r>
       <r>     3.8251     0.8946     3.4085 </r>
       <r>     3.8959     0.8647     3.4709 </r>
       <r>     3.9668     0.8298     3.5309 </r>
       <r>     4.0376     0.7898     3.5883 </r>
       <r>     4.1085     0.7449     3.6427 </r>
       <r>     4.1793     0.6950     3.6938 </r>
       <r>     4.2502     0.6402     3.7411 </r>
       <r>     4.3210     0.5803     3.7844 </r>
       <r>     4.3919     0.5154     3.8232 </r>
       <r>     4.4627     0.4456     3.8573 </r>
       <r>     4.5336     0.3595     3.8858 </r>
       <r>     4.6044     0.3080     3.9094 </r>
       <r>     4.6752     0.2606     3.9295 </r>
       <r>     4.7461     0.2170     3.9464 </r>
       <r>     4.8169     0.1775     3.9604 </r>
       <r>     4.8878     0.1419     3.9717 </r>
       <r>     4.9586     0.1103     3.9806 </r>
       <r>     5.0295     0.0827     3.9874 </r>
       <r>     5.1003     0.0591     3.9924 </r>
       <r>     5.1712     0.0394     3.9959 </r>
       <r>     5.2420     0.0237     3.9981 </r>
       <r>     5.3129     0.0120     3.9993 </r>
       <r>     5.3837     0.0042     3.9999 </r>
       <r>     5.4545     0.0004     4.0000 </r>
       <r>     5.5254     0.0000     4.0000 </r>
       <r>     5.5962     0.0000     4.0000 </r>
       <r>     5.6671     0.0000     4.0000 </r>
       <r>     5.7379     0.0000     4.0000 </r>
       <r>     5.8088     0.0000     4.0000 </r>
       <r>     5.8796     0.0000     4.0000 </r>
       <r>     5.9505     0.0000     4.0000 </r>
       <r>     6.0213     0.0000     4.0000 </r>
       <r>     6.0922     0.0000     4.0000 </r>
       <r>     6.1630     0.0000     4.0000 </r>
       <r>     6.2339     0.0073     4.0001 </r>
       <r>     6.3047     0.0630     4.0023 </r>
       <r>     6.3755     0.1522     4.0097 </r>
       <r>     6.4464     0.2694     4.0245 </r>
       <r>     6.5172     0.4146     4.0485 </r>
       <r>     6.5881     0.5878     4.0839 </r>
       <r>     6.6589     0.7891     4.1325 </r>
       <r>     6.7298     1.0184     4.1964 </r>
       <r>     6.8006     1.2756     4.2775 </r>
       <r>     6.8715     1.5609     4.3778 </r>
       <r>     6.9423     1.8742     4.4993 </r>
       <r>     7.0132     2.2156     4.6440 </r>
       <r>     7.0840     2.8580     4.9277 </r>
       <r>     7.1549     0.2067     4.9437 </r>
       <r>     7.2257     0.1724     4.9571 </r>
       <r>     7.2965     0.1413     4.9682 </r>
       <r>     7.3674     0.1132     4.9772 </r>
       <r>     7.4382     0.0882     4.9843 </r>
       <r>     7.5091     0.0673     4.9898 </r>
       <r>     7.5799     0.0553     4.9941 </r>
       <r>     7.6508     0.0520     4.9978 </r>
       <r>     7.7216     0.0573     5.0016 </r>
       <r>     7.7925     0.0713     5.0061 </r>
       <r>     7.8633     0.0940     5.0119 </r>
       <r>     7.9342     0.1253     5.0197 </r>
       <r>     8.0050     0.1639     5.0299 </r>
       <r>     8.0759     0.2004     5.0428 </r>
       <r>     8.1467     0.2331     5.0582 </r>
       <r>     8.2175     0.2622     5.0757 </r>
       <r>     8.2884     0.2876     5.0952 </r>
       <r>     8.3592     0.3092     5.1164 </r>
       <r>     8.4301     0.3272     5.1390 </r>
       <r>     8.5009     0.3416     5.1627 </r>
       <r>     8.5718     0.3523     5.1873 </r>
       <r>     8.6426     0.3593     5.2125 </r>
       <r>     8.7135     0.3627     5.2381 </r>
       <r>     8.7843     0.3624     5.2638 </r>
       <r>     8.8552     0.3585     5.2894 </r>
       <r>     8.9260     0.3572     5.3146 </r>
       <r>     8.9969     0.3840     5.3409 </r>
       <r>     9.0677     0.4083     5.3689 </r>
       <r>     9.1385     0.4311     5.3987 </r>
       <r>     9.2094     0.4524     5.4300 </r>
       <r>     9.2802     0.4722     5.4627 </r>
       <r>     9.3511     0.4905     5.4969 </r>
       <r>     9.4219     0.5074     5.5322 </r>
       <r>     9.4928     0.5227     5.5687 </r>
       <r>     9.5636     0.5365     5.6062 </r>
       <r>     9.6345     0.5489     5.6447 </r>
       <r>     9.7053     0.5597     5.6840 </r>
       <r>     9.7762     0.5690     5.7240 </r>
       <r>     9.8470     0.5768     5.7646 </r>
       <r>     9.9179     0.5832     5.8057 </r>
       <r>     9.9887     0.5880     5.8472 </r>
       <r>    10.0595     0.5914     5.8889 </r>
       <r>    10.1304     0.5932     5.9309 </r>
       <r>    10.2012     0.5935     5.9730 </r>
       <r>    10.2721     0.5924     6.0150 </r>
       <r>    10.3429     0.5897     6.0569 </r>
       <r>    10.4138     0.5856     6.0985 </r>
       <r>    10.4846     0.5799     6.1398 </r>
       <r>    10.5555     0.5728     6.1806 </r>
       <r>    10.6263     0.5641     6.2209 </r>
       <r>    10.6972     0.5540     6.2605 </r>
       <r>    10.7680     0.5423     6.2994 </r>
       <r>    10.8389     0.5292     6.3373 </r>
       <r>    10.9097     0.5145     6.3743 </r>
       <r>    10.9805     0.4984     6.4102 </r>
       <r>    11.0514     0.4807     6.4449 </r>
       <r>    11.1222     0.4616     6.4783 </r>
       <r>    11.1931     0.8881     6.5242 </r>
       <r>    11.2639     0.3209     6.5713 </r>
       <r>    11.3348     0.3235     6.5941 </r>
       <r>    11.4056     0.3259     6.6171 </r>
       <r>    11.4765     0.3281     6.6403 </r>
       <r>    11.5473     0.3300     6.6636 </r>
       <r>    11.6182     0.3317     6.6870 </r>
       <r>    11.6890     0.3331     6.7106 </r>
       <r>    11.7599     5.6865     6.7621 </r>
       <r>    11.8307     0.8313     6.8350 </r>
       <r>    11.9015     0.7283     6.8902 </r>
       <r>    11.9724     0.6305     6.9383 </r>
       <r>    12.0432     0.5381     6.9797 </r>
       <r>    12.1141     0.4510     7.0147 </r>
       <r>    12.1849     0.3693     7.0437 </r>
       <r>    12.2558     0.2929     7.0671 </r>
       <r>    12.3266     2.6355     7.1540 </r>
       <r>    12.3975     2.0505     7.3028 </r>
       <r>    12.4683     1.7637     7.4392 </r>
       <r>    12.5392     1.3600     7.5493 </r>
       <r>    12.6100     1.1770     7.6366 </r>
       <r>    12.6809     1.0933     7.7172 </r>
       <r>    12.7517     0.9856     7.7910 </r>
       <r>    12.8225     0.8540     7.8563 </r>
       <r>    12.8934     0.6985     7.9114 </r>
       <r>    12.9642     0.5191     7.9547 </r>
       <r>    13.0351     0.3158     7.9844 </r>
       <r>    13.1059     0.0886     7.9989 </r>
       <r>    13.1768     0.0000     8.0000 </r>
       <r>    13.2476     0.0000     8.0000 </r>
       <r>    13.3185     0.0000     8.0000 </r>
       <r>    13.3893     0.0000     8.0000 </r>
       <r>    13.4602     0.0000     8.0000 </r>
       <r>    13.5310     0.0000     8.0000 </r>
       <r>    13.6019     0.0000     8.0000 </r>
       <r>    13.6727     0.0000     8.0000 </r>
       <r>    13.7435     0.0000     8.0000 </r>
       <r>    13.8144     0.0000     8.0000 </r>
       <r>    13.8852     0.0000     8.0000 </r>
       <r>    13.9561     0.0000     8.0000 </r>
       <r>    14.0269     0.0000     8.0000 </r>
       <r>    14.0978     0.0000     8.0000 </r>
      </set>
      <set comment="spin 2">
       <r>    -7.1561     0.0000     0.0000 </r>
       <r>    -7.0852     0.0000     0.0000 </r>
       <r>    -7.0144     0.0000     0.0000 </r>
       <r>    -6.9435     0.0000     0.0000 </r>
       <r>    -6.8727     0.0000     0.0000 </r>
       <r>    -6.8018     0.0000     0.0000 </r>
       <r>    -6.7310     0.0000     0.0000 </r>
       <r>    -6.6601     0.0000     0.0000 </r>
       <r>    -6.5893     0.0000     0.0000 </r>
       <r>    -6.5184     0.0000     0.0000 </r>
       <r>    -6.4476     0.0000     0.0000 </r>
       <r>    -6.3768     0.0000     0.0000 </r>
       <r>    -6.3059     0.0000     0.0000 </r>
       <r>    -6.2351     0.0000     0.0000 </r>
       <r>    -6.1642     0.0001     0.0000 </r>
       <r>    -6.0934     0.0013     0.0000 </r>
       <r>    -6.0225     0.0039     0.0002 </r>
       <r>    -5.9517     0.0079     0.0006 </r>
       <r>    -5.8808     0.0133     0.0014 </r>
       <r>    -5.8100     0.0201     0.0025 </r>
       <r>    -5.7391     0.0282     0.0042 </r>
       <r>    -5.6683     0.0378     0.0066 </r>
       <r>    -5.5974     0.0488     0.0096 </r>
       <r>    -5.5266     0.0612     0.0135 </r>
       <r>    -5.4558     0.0749     0.0183 </r>
       <r>    -5.3849     0.0901     0.0242 </r>
       <r>    -5.3141     0.1066     0.0311 </r>
       <r>    -5.2432     0.1246     0.0393 </r>
       <r>    -5.1724     0.1439     0.0488 </r>
       <r>    -5.1015     0.1647     0.0597 </r>
       <r>    -5.0307     0.1868     0.0722 </r>
       <r>    -4.9598     0.2103     0.0862 </r>
       <r>    -4.8890     0.2352     0.1020 </r>
       <r>    -4.8181     0.2574     0.1195 </r>
       <r>    -4.7473     0.2791     0.1385 </r>
       <r>    -4.6764     0.3017     0.1591 </r>
       <r>    -4.6056     0.3254     0.1813 </r>
       <r>    -4.5348     0.3501     0.2052 </r>
       <r>    -4.4639     0.3758     0.2309 </r>
       <r>    -4.3931     0.4026     0.2585 </r>
       <r>    -4.3222     0.4389     0.2881 </r>
       <r>    -4.2514     0.4799     0.3207 </r>
       <r>    -4.1805     0.5154     0.3560 </r>
       <r>    -4.1097     0.5454     0.3936 </r>
       <r>    -4.0388     0.5698     0.4332 </r>
       <r>    -3.9680     0.5886     0.4742 </r>
       <r>    -3.8971     0.6020     0.5164 </r>
       <r>    -3.8263     0.6098     0.5594 </r>
       <r>    -3.7554     0.6120     0.6027 </r>
       <r>    -3.6846     0.6087     0.6460 </r>
       <r>    -3.6138     0.5999     0.6888 </r>
       <r>    -3.5429     0.5855     0.7308 </r>
       <r>    -3.4721     0.5656     0.7716 </r>
       <r>    -3.4012     0.5401     0.8108 </r>
       <r>    -3.3304     0.5092     0.8480 </r>
       <r>    -3.2595     0.4726     0.8829 </r>
       <r>    -3.1887     0.4305     0.9149 </r>
       <r>    -3.1178     0.3829     0.9437 </r>
       <r>    -3.0470     0.5228     1.0000 </r>
       <r>    -2.9761     0.0000     1.0000 </r>
       <r>    -2.9053     0.0000     1.0000 </r>
       <r>    -2.8344     0.0000     1.0000 </r>
       <r>    -2.7636     0.0000     1.0000 </r>
       <r>    -2.6928     0.0000     1.0000 </r>
       <r>    -2.6219     0.0000     1.0000 </r>
       <r>    -2.5511     0.0000     1.0000 </r>
       <r>    -2.4802     0.0000     1.0000 </r>
       <r>    -2.4094     0.0000     1.0000 </r>
       <r>    -2.3385     0.0000     1.0000 </r>
       <r>    -2.2677     0.0000     1.0000 </r>
       <r>    -2.1968     0.0000     1.0000 </r>
       <r>    -2.1260     0.0000     1.0000 </r>
       <r>    -2.0551     0.0000     1.0000 </r>
       <r>    -1.9843     0.0000     1.0000 </r>
       <r>    -1.9134     0.0000     1.0000 </r>
       <r>    -1.8426     0.0000     1.0000 </r>
       <r>    -1.7718     0.0000     1.0000 </r>
       <r>    -1.7009     0.0000     1.0000 </r>
       <r>    -1.6301     0.0000     1.0000 </r>
       <r>    -1.5592     0.0000     1.0000 </r>
       <r>    -1.4884     0.0000     1.0000 </r>
       <r>    -1.4175     0.0000     1.0000 </r>
       <r>    -1.3467     0.0000     1.0000 </r>
       <r>    -1.2758     0.0000     1.0000 </r>
       <r>    -1.2050     0.0000     1.0000 </r>
       <r>    -1.1341     0.8367     1.0522 </r>
       <r>    -1.0633     0.3767     1.0767 </r>
       <r>    -0.9924     0.4331     1.1054 </r>
       <r>    -0.9216     0.4831     1.1379 </r>
       <r>    -0.8508     0.5268     1.1737 </r>
       <r>    -0.7799     0.5640     1.2124 </r>
       <r>    -0.7091     0.5949     1.2535 </r>
       <r>    -0.6382     0.6194     1.2965 </r>
       <r>    -0.5674     0.6375     1.3411 </r>
       <r>    -0.4965     0.6492     1.3867 </r>
       <r>    -0.4257     0.6545     1.4329 </r>
       <r>    -0.3548     0.6534     1.4793 </r>
       <r>    -0.2840     0.6460     1.5253 </r>
       <r>    -0.2131     0.6321     1.5707 </r>
       <r>    -0.1423     0.6119     1.6148 </r>
       <r>    -0.0714     0.5853     1.6572 </r>
       <r>    -0.0006     0.5523     1.6975 </r>
       <r>     0.0702     0.5129     1.7353 </r>
       <r>     0.1411     0.4671     1.7701 </r>
       <r>     0.2119     0.4149     1.8013 </r>
       <r>     0.2828     0.3259     1.8283 </r>
       <r>     0.3536     0.2012     1.8467 </r>
       <r>     0.4245     0.1204     1.8579 </r>
       <r>     0.4953     0.0841     1.8649 </r>
       <r>     0.5662     0.0795     1.8706 </r>
       <r>     0.6370     0.0772     1.8761 </r>
       <r>     0.7079     0.0749     1.8815 </r>
       <r>     0.7787     0.0727     1.8867 </r>
       <r>     0.8496     0.0705     1.8918 </r>
       <r>     0.9204     0.0684     1.8967 </r>
       <r>     0.9912     0.0662     1.9015 </r>
       <r>     1.0621     0.0641     1.9061 </r>
       <r>     1.1329     0.0621     1.9106 </r>
       <r>     1.2038     0.0601     1.9149 </r>
       <r>     1.2746     0.8220     1.9621 </r>
       <r>     1.3455     0.3140     1.9838 </r>
       <r>     1.4163     0.3275     2.0066 </r>
       <r>     1.4872     0.3399     2.0302 </r>
       <r>     1.5580     0.3510     2.0547 </r>
       <r>     1.6289     0.3609     2.0799 </r>
       <r>     1.6997     0.3695     2.1058 </r>
       <r>     1.7706     0.3769     2.1322 </r>
       <r>     1.8414     0.3831     2.1592 </r>
       <r>     1.9122     0.3881     2.1865 </r>
       <r>     1.9831     0.3919     2.2141 </r>
       <r>     2.0539     0.3944     2.2420 </r>
       <r>     2.1248     0.3957     2.2700 </r>
       <r>     2.1956     0.3957     2.2980 </r>
       <r>     2.2665     0.3946     2.3260 </r>
       <r>     2.3373     0.3922     2.3539 </r>
       <r>     2.4082     0.3885     2.3816 </r>
       <r>     2.4790     0.3837     2.4089 </r>
       <r>     2.5499     0.3776     2.4359 </r>
       <r>     2.6207     0.3703     2.4624 </r>
       <r>     2.6916     0.3618     2.4883 </r>
       <r>     2.7624     0.3520     2.5136 </r>
       <r>     2.8332     0.3411     2.5382 </r>
       <r>     2.9041     0.3288     2.5619 </r>
       <r>     2.9749     0.3154     2.5848 </r>
       <r>     3.0458     0.3007     2.6066 </r>
       <r>     3.1166     0.2849     2.6274 </r>
       <r>     3.1875     0.5078     2.6523 </r>
       <r>     3.2583     0.9670     2.7041 </r>
       <r>     3.3292     1.5150     2.7915 </r>
       <r>     3.4000     2.1516     2.9208 </r>
       <r>     3.4709     1.4924     3.0747 </r>
       <r>     3.5417     0.9646     3.1432 </r>
       <r>     3.6126     0.9546     3.2112 </r>
       <r>     3.6834     0.9396     3.2783 </r>
       <r>     3.7542     0.9196     3.3442 </r>
       <r>     3.8251     0.8946     3.4085 </r>
       <r>     3.8959     0.8647     3.4709 </r>
       <r>     3.9668     0.8298     3.5309 </r>
       <r>     4.0376     0.7898     3.5883 </r>
       <r>     4.1085     0.7449     3.6427 </r>
       <r>     4.1793     0.6950     3.6938 </r>
       <r>     4.2502     0.6402     3.7411 </r>
       <r>     4.3210     0.5803     3.7844 </r>
       <r>     4.3919     0.5154     3.8232 </r>
       <r>     4.4627     0.4456     3.8573 </r>
       <r>     4.5336     0.3595     3.8858 </r>
       <r>     4.6044     0.3080     3.9094 </r>
       <r>     4.6752     0.2606     3.9295 </r>
       <r>     4.7461     0.2170     3.9464 </r>
       <r>     4.8169     0.1775     3.9604 </r>
       <r>     4.8878     0.1419     3.9717 </r>
       <r>     4.9586     0.1103     3.9806 </r>
       <r>     5.0295     0.0827     3.9874 </r>
       <r>     5.1003     0.0591     3.9924 </r>
       <r>     5.1712     0.0394     3.9959 </r>
       <r>     5.2420     0.0237     3.9981 </r>
       <r>     5.3129     0.0120     3.9993 </r>
       <r>     5.3837     0.0042     3.9999 </r>
       <r>     5.4545     0.0004     4.0000 </r>
       <r>     5.5254     0.0000     4.0000 </r>
       <r>     5.5962     0.0000     4.0000 </r>
       <r>     5.6671     0.0000     4.0000 </r>
       <r>     5.7379     0.0000     4.0000 </r>
       <r>     5.8088     0.0000     4.0000 </r>
       <r>     5.8796     0.0000     4.0000 </r>
       <r>     5.9505     0.0000     4.0000 </r>
       <r>     6.0213     0.0000     4.0000 </r>
       <r>     6.0922     0.0000     4.0000 </r>
       <r>     6.1630     0.0000     4.0000 </r>
       <r>     6.2339     0.0073     4.0001 </r>
       <r>     6.3047     0.0630     4.0023 </r>
       <r>     6.3755     0.1522     4.0097 </r>
       <r>     6.4464     0.2694     4.0245 </r>
       <r>     6.5172     0.4146     4.0485 </r>
       <r>     6.5881     0.5878     4.0839 </r>
       <r>     6.6589     0.7891     4.1325 </r>
       <r>     6.7298     1.0184     4.1964 </r>
       <r>     6.8006     1.2756     4.2775 </r>
       <r>     6.8715     1.5609     4.3778 </r>
       <r>     6.9423     1.8742     4.4993 </r>
       <r>     7.0132     2.2156     4.6440 </r>
       <r>     7.0840     2.8580     4.9277 </r>
       <r>     7.1549     0.2067     4.9437 </r>
       <r>     7.2257     0.1724     4.9571 </r>
       <r>     7.2965     0.1413     4.9682 </r>
       <r>     7.3674     0.1132     4.9772 </r>
       <r>     7.4382     0.0882     4.9843 </r>
       <r>     7.5091     0.0673     4.9898 </r>
       <r>     7.5799     0.0553     4.9941 </r>
       <r>     7.6508     0.0520     4.9978 </r>
       <r>     7.7216     0.0573     5.0016 </r>
       <r>     7.7925     0.0713     5.0061 </r>
       <r>     7.8633     0.0940     5.0119 </r>
       <r>     7.9342     0.1253     5.0197 </r>
       <r>     8.0050     0.1639     5.0299 </r>
       <r>     8.0759     0.2004     5.0428 </r>
       <r>     8.1467     0.2331     5.0582 </r>
       <r>     8.2175     0.2622     5.0757 </r>
       <r>     8.2884     0.2876     5.0952 </r>
       <r>     8.3592     0.3092     5.1164 </r>
       <r>     8.4301     0.3272     5.1390 </r>
       <r>     8.5009     0.3416     5.1627 </r>
       <r>     8.5718     0.3523     5.1873 </r>
       <r>     8.6426     0.3593     5.2125 </r>
       <r>     8.7135     0.3627     5.2381 </r>
       <r>     8.7843     0.3624     5.2638 </r>
       <r>     8.8552     0.3585     5.2894 </r>
       <r>     8.9260     0.3572     5.3146 </r>
       <r>     8.9969     0.3840     5.3409 </r>
       <r>     9.0677     0.4083     5.3689 </r>
       <r>     9.1385     0.4311     5.3987 </r>
       <r>     9.2094     0.4524     5.4300 </r>
       <r>     9.2802     0.4722     5.4627 </r>
       <r>     9.3511     0.4905     5.4969 </r>
       <r>     9.4219     0.5074     5.5322 </r>
       <r>     9.4928     0.5227     5.5687 </r>
       <r>     9.5636     0.5365     5.6062 </r>
       <r>     9.6345     0.5489     5.6447 </r>
       <r>     9.7053     0.5597     5.6840 </r>
       <r>     9.7762     0.5690     5.7240 </r>
       <r>     9.8470     0.5768     5.7646 </r>
       <r>     9.9179     0.5832     5.8057 </r>
       <r>     9.9887     0.5880     5.8472 </r>
       <r>    10.0595     0.5914     5.8889 </r>
       <r>    10.1304     0.5932     5.9309 </r>
       <r>    10.2012     0.5935     5.9730 </r>
       <r>    10.2721     0.5924     6.0150 </r>
       <r>    10.3429     0.5897     6.0569 </r>
       <r>    10.4138     0.5856     6.0985 </r>
       <r>    10.4846     0.5799     6.1398 </r>
       <r>    10.5555     0.5728     6.1806 </r>
       <r>    10.6263     0.5641     6.2209 </r>
       <r>    10.6972     0.5540     6.2605 </r>
       <r>    10.7680     0.5423     6.2994 </r>
       <r>    10.8389     0.5292     6.3373 </r>
       <r>    10.9097     0.5145     6.3743 </r>
       <r>    10.9805     0.4984     6.4102 </r>
       <r>    11.0514     0.4807     6.4449 </r>
       <r>    11.1222     0.4616     6.4783 </r>
       <r>    11.1931     0.8882     6.5242 </r>
       <r>    11.2639     0.3209     6.5713 </r>
       <r>    11.3348     0.3235     6.5941 </r>
       <r>    11.4056     0.3259     6.6171 </r>
       <r>    11.4765     0.3281     6.6403 </r>
       <r>    11.5473     0.3300     6.6636 </r>
       <r>    11.6182     0.3317     6.6870 </r>
       <r>    11.6890     0.3331     6.7106 </r>
       <r>    11.7599     5.6850     6.7622 </r>
       <r>    11.8307     0.8313     6.8350 </r>
       <r>    11.9015     0.7283     6.8902 </r>
       <r>    11.9724     0.6305     6.9383 </r>
       <r>    12.0432     0.5381     6.9797 </r>
       <r>    12.1141     0.4510     7.0147 </r>
       <r>    12.1849     0.3693     7.0437 </r>
       <r>    12.2558     0.2929     7.0671 </r>
       <r>    12.3266     2.6355     7.1540 </r>
       <r>    12.3975     2.0505     7.3028 </r>
       <r>    12.4683     1.7637     7.4392 </r>
       <r>    12.5392     1.3600     7.5493 </r>
       <r>    12.6100     1.1771     7.6366 </r>
       <r>    12.6809     1.0933     7.7172 </r>
       <r>    12.7517     0.9856     7.7910 </r>
       <r>    12.8225     0.8540     7.8563 </r>
       <r>    12.8934     0.6985     7.9114 </r>
       <r>    12.9642     0.5191     7.9547 </r>
       <r>    13.0351     0.3157     7.9844 </r>
       <r>    13.1059     0.0885     7.9989 </r>
       <r>    13.1768     0.0000     8.0000 </r>
       <r>    13.2476     0.0000     8.0000 </r>
       <r>    13.3185     0.0000     8.0000 </r>
       <r>    13.3893     0.0000     8.0000 </r>
       <r>    13.4602     0.0000     8.0000 </r>
       <r>    13.5310     0.0000     8.0000 </r>
       <r>    13.6019     0.0000     8.0000 </r>
       <r>    13.6727     0.0000     8.0000 </r>
       <r>    13.7435     0.0000     8.0000 </r>
       <r>    13.8144     0.0000     8.0000 </r>
       <r>    13.8852     0.0000     8.0000 </r>
       <r>    13.9561     0.0000     8.0000 </r>
       <r>    14.0269     0.0000     8.0000 </r>
       <r>    14.0978     0.0000     8.0000 </r>
      </set>
     </set>
    </array>
   </total>
   <partial>
    <array>
     <dimension dim="1">gridpoints</dimension>
     <dimension dim="2">spin</dimension>
     <dimension dim="3">ion</dimension>
     <field>energy</field>
     <field>    s</field>
     <field>   py</field>
     <field>   pz</field>
     <field>   px</field>
     <field>  dxy</field>
     <field>  dyz</field>
     <field>  dz2</field>
     <field>  dxz</field>
     <field>x2-y2</field>
     <set>
      <set comment="ion 1">
       <set comment="spin 1">
        <r>    -7.1561     0.0000     0.0000     0.0000     0.0000     0.0000     0.0000     0.0000     0.0000     0.0000 </r>
        <r>    -7.0852     0.0000     0.0000     0.0000     0.0000     0.0000     0.0000     0.0000     0.0000     0.0000 </r>
        <r>    -7.0144     0.0000     0.0000     0.0000     0.0000     0.0000     0.0000     0.0000     0.0000     0.0000 </r>
        <r>    -6.9435     0.0000     0.0000     0.0000     0.0000     0.0000     0.0000     0.0000     0.0000     0.0000 </r>
        <r>    -6.8727     0.0000     0.0000     0.0000     0.0000     0.0000     0.0000     0.0000     0.0000     0.0000 </r>
        <r>    -6.8018     0.0000     0.0000     0.0000     0.0000     0.0000     0.0000     0.0000     0.0000     0.0000 </r>
        <r>    -6.7310     0.0000     0.0000     0.0000     0.0000     0.0000     0.0000     0.0000     0.0000     0.0000 </r>
        <r>    -6.6601     0.0000     0.0000     0.0000     0.0000     0.0000     0.0000     0.0000     0.0000     0.0000 </r>
        <r>    -6.5893     0.0000     0.0000     0.0000     0.0000     0.0000     0.0000     0.0000     0.0000     0.0000 </r>
        <r>    -6.5184     0.0000     0.0000     0.0000     0.0000     0.0000     0.0000     0.0000     0.0000     0.0000 </r>
        <r>    -6.4476     0.0000     0.0000     0.0000     0.0000     0.0000     0.0000     0.0000     0.0000     0.0000 </r>
        <r>    -6.3768     0.0000     0.0000     0.0000     0.0000     0.0000     0.0000     0.0000     0.0000     0.0000 </r>
        <r>    -6.3059     0.0000     0.0000     0.0000     0.0000     0.0000     0.0000     0.0000     0.0000     0.0000 </r>
        <r>    -6.2351     0.0000     0.0000     0.0000     0.0000     0.0000     0.0000     0.0000     0.0000     0.0000 </r>
        <r>    -6.1642     0.0000     0.0000     0.0000     0.0000     0.0000     0.0000     0.0000     0.0000     0.0000 </r>
        <r>    -6.0934     0.0003     0.0000     0.0000     0.0000     0.0000     0.0000     0.0000     0.0000     0.0000 </r>
        <r>    -6.0225     0.0008     0.0000     0.0000     0.0000     0.0000     0.0000     0.0000     0.0000     0.0000 </r>
        <r>    -5.9517     0.0016     0.0000     0.0000     0.0000     0.0000     0.0000     0.0000     0.0000     0.0000 </r>
        <r>    -5.8808     0.0027     0.0000     0.0000     0.0000     0.0000     0.0000     0.0000     0.0000     0.0000 </r>
        <r>    -5.8100     0.0041     0.0001     0.0001     0.0001     0.0000     0.0000     0.0000     0.0000     0.0000 </r>
        <r>    -5.7391     0.0058     0.0001     0.0001     0.0001     0.0000     0.0000     0.0000     0.0000     0.0000 </r>
        <r>    -5.6683     0.0078     0.0001     0.0001     0.0001     0.0000     0.0000     0.0000     0.0000     0.0000 </r>
        <r>    -5.5974     0.0101     0.0002     0.0002     0.0002     0.0000     0.0000     0.0000     0.0000     0.0000 </r>
        <r>    -5.5266     0.0126     0.0002     0.0002     0.0002     0.0000     0.0000     0.0000     0.0000     0.0000 </r>
        <r>    -5.4558     0.0155     0.0003     0.0003     0.0003     0.0000     0.0000     0.0000     0.0000     0.0000 </r>
        <r>    -5.3849     0.0186     0.0003     0.0003     0.0003     0.0000     0.0000     0.0000     0.0000     0.0000 </r>
        <r>    -5.3141     0.0220     0.0004     0.0004     0.0004     0.0000     0.0000     0.0000     0.0000     0.0000 </r>
        <r>    -5.2432     0.0257     0.0004     0.0004     0.0004     0.0000     0.0000     0.0000     0.0000     0.0000 </r>
        <r>    -5.1724     0.0297     0.0005     0.0005     0.0005     0.0000     0.0000     0.0000     0.0000     0.0000 </r>
        <r>    -5.1015     0.0340     0.0006     0.0006     0.0006     0.0000     0.0000     0.0000     0.0000     0.0000 </r>
        <r>    -5.0307     0.0386     0.0007     0.0007     0.0007     0.0000     0.0000     0.0000     0.0000     0.0000 </r>
        <r>    -4.9598     0.0435     0.0007     0.0007     0.0007     0.0000     0.0000     0.0000     0.0000     0.0000 </r>
        <r>    -4.8890     0.0486     0.0008     0.0008     0.0008     0.0000     0.0000     0.0000     0.0000     0.0000 </r>
        <r>    -4.8181     0.0533     0.0011     0.0011     0.0011     0.0000     0.0000     0.0000     0.0000     0.0000 </r>
        <r>    -4.7473     0.0578     0.0013     0.0013     0.0013     0.0000     0.0000     0.0000     0.0000     0.0000 </r>
        <r>    -4.6764     0.0626     0.0016     0.0016     0.0016     0.0000     0.0000     0.0000     0.0000     0.0000 </r>
        <r>    -4.6056     0.0676     0.0018     0.0018     0.0018     0.0000     0.0000     0.0000     0.0000     0.0000 </r>
        <r>    -4.5348     0.0728     0.0020     0.0020     0.0021     0.0000     0.0000     0.0000     0.0000     0.0000 </r>
        <r>    -4.4639     0.0782     0.0023     0.0023     0.0023     0.0000     0.0000     0.0000     0.0000     0.0000 </r>
        <r>    -4.3931     0.0838     0.0025     0.0025     0.0025     0.0000     0.0000     0.0000     0.0000     0.0000 </r>
        <r>    -4.3222     0.0914     0.0028     0.0028     0.0028     0.0000     0.0000     0.0000     0.0000     0.0000 </r>
        <r>    -4.2514     0.0999     0.0031     0.0031     0.0031     0.0000     0.0000     0.0000     0.0000     0.0000 </r>
        <r>    -4.1805     0.1073     0.0033     0.0033     0.0034     0.0000     0.0000     0.0000     0.0000     0.0000 </r>
        <r>    -4.1097     0.1135     0.0036     0.0036     0.0036     0.0000     0.0000     0.0000     0.0000     0.0000 </r>
        <r>    -4.0388     0.1186     0.0038     0.0038     0.0038     0.0000     0.0000     0.0000     0.0000     0.0000 </r>
        <r>    -3.9680     0.1226     0.0039     0.0039     0.0040     0.0000     0.0000     0.0000     0.0000     0.0000 </r>
        <r>    -3.8971     0.1253     0.0041     0.0041     0.0041     0.0000     0.0000     0.0000     0.0000     0.0000 </r>
        <r>    -3.8263     0.1270     0.0042     0.0042     0.0042     0.0000     0.0000     0.0000     0.0000     0.0000 </r>
        <r>    -3.7554     0.1275     0.0042     0.0042     0.0043     0.0000     0.0000     0.0000     0.0000     0.0000 </r>
        <r>    -3.6846     0.1268     0.0042     0.0042     0.0043     0.0000     0.0000     0.0000     0.0000     0.0000 </r>
        <r>    -3.6138     0.1250     0.0042     0.0042     0.0042     0.0000     0.0000     0.0000     0.0000     0.0000 </r>
        <r>    -3.5429     0.1220     0.0041     0.0041     0.0042     0.0000     0.0000     0.0000     0.0000     0.0000 </r>
        <r>    -3.4721     0.1179     0.0041     0.0041     0.0041     0.0000     0.0000     0.0000     0.0000     0.0000 </r>
        <r>    -3.4012     0.1126     0.0039     0.0039     0.0040     0.0000     0.0000     0.0000     0.0000     0.0000 </r>
        <r>    -3.3304     0.1062     0.0037     0.0037     0.0038     0.0000     0.0000     0.0000     0.0000     0.0000 </r>
        <r>    -3.2595     0.0986     0.0035     0.0035     0.0036     0.0000     0.0000     0.0000     0.0000     0.0000 </r>
        <r>    -3.1887     0.0899     0.0033     0.0033     0.0033     0.0000     0.0000     0.0000     0.0000     0.0000 </r>
        <r>    -3.1178     0.0800     0.0030     0.0030     0.0030     0.0000     0.0000     0.0000     0.0000     0.0000 </r>
        <r>    -3.0470     0.1106     0.0045     0.0045     0.0046     0.0000     0.0000     0.0000     0.0000     0.0000 </r>
        <r>    -2.9761     0.0000     0.0000     0.0000     0.0000     0.0000     0.0000     0.0000     0.0000     0.0000 </r>
        <r>    -2.9053     0.0000     0.0000     0.0000     0.0000     0.0000     0.0000     0.0000     0.0000     0.0000 </r>
        <r>    -2.8344     0.0000     0.0000     0.0000     0.0000     0.0000     0.0000     0.0000     0.0000     0.0000 </r>
        <r>    -2.7636     0.0000     0.0000     0.0000     0.0000     0.0000     0.0000     0.0000     0.0000     0.0000 </r>
        <r>    -2.6928     0.0000     0.0000     0.0000     0.0000     0.0000     0.0000     0.0000     0.0000     0.0000 </r>
        <r>    -2.6219     0.0000     0.0000     0.0000     0.0000     0.0000     0.0000     0.0000     0.0000     0.0000 </r>
        <r>    -2.5511     0.0000     0.0000     0.0000     0.0000     0.0000     0.0000     0.0000     0.0000     0.0000 </r>
        <r>    -2.4802     0.0000     0.0000     0.0000     0.0000     0.0000     0.0000     0.0000     0.0000     0.0000 </r>
        <r>    -2.4094     0.0000     0.0000     0.0000     0.0000     0.0000     0.0000     0.0000     0.0000     0.0000 </r>
        <r>    -2.3385     0.0000     0.0000     0.0000     0.0000     0.0000     0.0000     0.0000     0.0000     0.0000 </r>
        <r>    -2.2677     0.0000     0.0000     0.0000     0.0000     0.0000     0.0000     0.0000     0.0000     0.0000 </r>
        <r>    -2.1968     0.0000     0.0000     0.0000     0.0000     0.0000     0.0000     0.0000     0.0000     0.0000 </r>
        <r>    -2.1260     0.0000     0.0000     0.0000     0.0000     0.0000     0.0000     0.0000     0.0000     0.0000 </r>
        <r>    -2.0551     0.0000     0.0000     0.0000     0.0000     0.0000     0.0000     0.0000     0.0000     0.0000 </r>
        <r>    -1.9843     0.0000     0.0000     0.0000     0.0000     0.0000     0.0000     0.0000     0.0000     0.0000 </r>
        <r>    -1.9134     0.0000     0.0000     0.0000     0.0000     0.0000     0.0000     0.0000     0.0000     0.0000 </r>
        <r>    -1.8426     0.0000     0.0000     0.0000     0.0000     0.0000     0.0000     0.0000     0.0000     0.0000 </r>
        <r>    -1.7718     0.0000     0.0000     0.0000     0.0000     0.0000     0.0000     0.0000     0.0000     0.0000 </r>
        <r>    -1.7009     0.0000     0.0000     0.0000     0.0000     0.0000     0.0000     0.0000     0.0000     0.0000 </r>
        <r>    -1.6301     0.0000     0.0000     0.0000     0.0000     0.0000     0.0000     0.0000     0.0000     0.0000 </r>
        <r>    -1.5592     0.0000     0.0000     0.0000     0.0000     0.0000     0.0000     0.0000     0.0000     0.0000 </r>
        <r>    -1.4884     0.0000     0.0000     0.0000     0.0000     0.0000     0.0000     0.0000     0.0000     0.0000 </r>
        <r>    -1.4175     0.0000     0.0000     0.0000     0.0000     0.0000     0.0000     0.0000     0.0000     0.0000 </r>
        <r>    -1.3467     0.0000     0.0000     0.0000     0.0000     0.0000     0.0000     0.0000     0.0000     0.0000 </r>
        <r>    -1.2758     0.0000     0.0000     0.0000     0.0000     0.0000     0.0000     0.0000     0.0000     0.0000 </r>
        <r>    -1.2050     0.0000     0.0000     0.0000     0.0000     0.0000     0.0000     0.0000     0.0000     0.0000 </r>
        <r>    -1.1341     0.1461     0.0169     0.0169     0.0171     0.0000     0.0000     0.0000     0.0000     0.0000 </r>
        <r>    -1.0633     0.0633     0.0083     0.0083     0.0085     0.0000     0.0000     0.0000     0.0000     0.0000 </r>
        <r>    -0.9924     0.0716     0.0098     0.0098     0.0099     0.0000     0.0000     0.0000     0.0000     0.0000 </r>
        <r>    -0.9216     0.0789     0.0111     0.0111     0.0112     0.0000     0.0000     0.0000     0.0000     0.0000 </r>
        <r>    -0.8508     0.0853     0.0122     0.0122     0.0124     0.0000     0.0000     0.0000     0.0000     0.0000 </r>
        <r>    -0.7799     0.0907     0.0132     0.0132     0.0134     0.0000     0.0000     0.0000     0.0000     0.0000 </r>
        <r>    -0.7091     0.0950     0.0141     0.0141     0.0142     0.0000     0.0000     0.0000     0.0000     0.0000 </r>
        <r>    -0.6382     0.0984     0.0148     0.0148     0.0149     0.0000     0.0000     0.0000     0.0000     0.0000 </r>
        <r>    -0.5674     0.1009     0.0153     0.0153     0.0154     0.0000     0.0000     0.0000     0.0000     0.0000 </r>
        <r>    -0.4965     0.1023     0.0157     0.0157     0.0158     0.0000     0.0000     0.0000     0.0000     0.0000 </r>
        <r>    -0.4257     0.1027     0.0159     0.0159     0.0160     0.0000     0.0000     0.0000     0.0000     0.0000 </r>
        <r>    -0.3548     0.1022     0.0159     0.0159     0.0160     0.0000     0.0000     0.0000     0.0000     0.0000 </r>
        <r>    -0.2840     0.1006     0.0158     0.0158     0.0159     0.0000     0.0000     0.0000     0.0000     0.0000 </r>
        <r>    -0.2131     0.0981     0.0156     0.0156     0.0156     0.0000     0.0000     0.0000     0.0000     0.0000 </r>
        <r>    -0.1423     0.0946     0.0152     0.0152     0.0152     0.0000     0.0000     0.0000     0.0000     0.0000 </r>
        <r>    -0.0714     0.0901     0.0146     0.0146     0.0146     0.0000     0.0000     0.0000     0.0000     0.0000 </r>
        <r>    -0.0006     0.0846     0.0139     0.0139     0.0139     0.0000     0.0000     0.0000     0.0000     0.0000 </r>
        <r>     0.0702     0.0781     0.0130     0.0130     0.0130     0.0000     0.0000     0.0000     0.0000     0.0000 </r>
        <r>     0.1411     0.0706     0.0119     0.0119     0.0119     0.0000     0.0000     0.0000     0.0000     0.0000 </r>
        <r>     0.2119     0.0622     0.0107     0.0107     0.0107     0.0000     0.0000     0.0000     0.0000     0.0000 </r>
        <r>     0.2828     0.0478     0.0085     0.0085     0.0092     0.0000     0.0000     0.0000     0.0000     0.0000 </r>
        <r>     0.3536     0.0275     0.0051     0.0051     0.0077     0.0000     0.0000     0.0000     0.0000     0.0000 </r>
        <r>     0.4245     0.0143     0.0029     0.0029     0.0067     0.0000     0.0000     0.0000     0.0000     0.0000 </r>
        <r>     0.4953     0.0084     0.0019     0.0019     0.0062     0.0000     0.0000     0.0000     0.0000     0.0000 </r>
        <r>     0.5662     0.0078     0.0018     0.0018     0.0060     0.0000     0.0000     0.0000     0.0000     0.0000 </r>
        <r>     0.6370     0.0075     0.0017     0.0017     0.0058     0.0000     0.0000     0.0000     0.0000     0.0000 </r>
        <r>     0.7079     0.0073     0.0017     0.0017     0.0056     0.0000     0.0000     0.0000     0.0000     0.0000 </r>
        <r>     0.7787     0.0071     0.0016     0.0016     0.0055     0.0000     0.0000     0.0000     0.0000     0.0000 </r>
        <r>     0.8496     0.0069     0.0016     0.0016     0.0053     0.0000     0.0000     0.0000     0.0000     0.0000 </r>
        <r>     0.9204     0.0067     0.0015     0.0015     0.0051     0.0000     0.0000     0.0000     0.0000     0.0000 </r>
        <r>     0.9912     0.0065     0.0015     0.0015     0.0050     0.0000     0.0000     0.0000     0.0000     0.0000 </r>
        <r>     1.0621     0.0063     0.0014     0.0014     0.0048     0.0000     0.0000     0.0000     0.0000     0.0000 </r>
        <r>     1.1329     0.0061     0.0014     0.0014     0.0047     0.0000     0.0000     0.0000     0.0000     0.0000 </r>
        <r>     1.2038     0.0059     0.0013     0.0013     0.0045     0.0000     0.0000     0.0000     0.0000     0.0000 </r>
        <r>     1.2746     0.0080     0.0396     0.0396     0.0438     0.0000     0.0000     0.0000     0.0000     0.0000 </r>
        <r>     1.3455     0.0061     0.0144     0.0144     0.0196     0.0000     0.0000     0.0000     0.0000     0.0000 </r>
        <r>     1.4163     0.0059     0.0151     0.0151     0.0210     0.0000     0.0000     0.0000     0.0000     0.0000 </r>
        <r>     1.4872     0.0057     0.0157     0.0157     0.0224     0.0000     0.0000     0.0000     0.0000     0.0000 </r>
        <r>     1.5580     0.0056     0.0162     0.0162     0.0236     0.0000     0.0000     0.0000     0.0000     0.0000 </r>
        <r>     1.6289     0.0054     0.0166     0.0166     0.0247     0.0000     0.0000     0.0000     0.0000     0.0000 </r>
        <r>     1.6997     0.0052     0.0171     0.0171     0.0257     0.0000     0.0000     0.0000     0.0000     0.0000 </r>
        <r>     1.7706     0.0051     0.0174     0.0174     0.0266     0.0000     0.0000     0.0000     0.0000     0.0000 </r>
        <r>     1.8414     0.0049     0.0177     0.0177     0.0274     0.0000     0.0000     0.0000     0.0000     0.0000 </r>
        <r>     1.9122     0.0047     0.0179     0.0179     0.0282     0.0000     0.0000     0.0000     0.0000     0.0000 </r>
        <r>     1.9831     0.0046     0.0181     0.0181     0.0288     0.0000     0.0000     0.0000     0.0000     0.0000 </r>
        <r>     2.0539     0.0044     0.0182     0.0182     0.0293     0.0000     0.0000     0.0000     0.0000     0.0000 </r>
        <r>     2.1248     0.0042     0.0182     0.0182     0.0297     0.0000     0.0000     0.0000     0.0000     0.0000 </r>
        <r>     2.1956     0.0041     0.0182     0.0182     0.0300     0.0000     0.0000     0.0000     0.0000     0.0000 </r>
        <r>     2.2665     0.0039     0.0181     0.0181     0.0302     0.0000     0.0000     0.0000     0.0000     0.0000 </r>
        <r>     2.3373     0.0038     0.0180     0.0180     0.0304     0.0000     0.0000     0.0000     0.0000     0.0000 </r>
        <r>     2.4082     0.0036     0.0178     0.0178     0.0304     0.0000     0.0000     0.0000     0.0000     0.0000 </r>
        <r>     2.4790     0.0035     0.0176     0.0176     0.0303     0.0000     0.0000     0.0000     0.0000     0.0000 </r>
        <r>     2.5499     0.0033     0.0172     0.0172     0.0301     0.0000     0.0000     0.0000     0.0000     0.0000 </r>
        <r>     2.6207     0.0032     0.0169     0.0169     0.0298     0.0000     0.0000     0.0000     0.0000     0.0000 </r>
        <r>     2.6916     0.0030     0.0164     0.0164     0.0294     0.0000     0.0000     0.0000     0.0000     0.0000 </r>
        <r>     2.7624     0.0029     0.0159     0.0159     0.0289     0.0000     0.0000     0.0000     0.0000     0.0000 </r>
        <r>     2.8332     0.0027     0.0154     0.0154     0.0284     0.0000     0.0000     0.0000     0.0000     0.0000 </r>
        <r>     2.9041     0.0026     0.0148     0.0148     0.0277     0.0000     0.0000     0.0000     0.0000     0.0000 </r>
        <r>     2.9749     0.0024     0.0141     0.0141     0.0269     0.0000     0.0000     0.0000     0.0000     0.0000 </r>
        <r>     3.0458     0.0023     0.0134     0.0134     0.0260     0.0000     0.0000     0.0000     0.0000     0.0000 </r>
        <r>     3.1166     0.0022     0.0126     0.0126     0.0250     0.0000     0.0000     0.0000     0.0000     0.0000 </r>
        <r>     3.1875     0.0020     0.0265     0.0265     0.0410     0.0000     0.0000     0.0000     0.0000     0.0000 </r>
        <r>     3.2583     0.0019     0.0586     0.0586     0.0670     0.0000     0.0000     0.0000     0.0000     0.0000 </r>
        <r>     3.3292     0.0018     0.0978     0.0978     0.0969     0.0000     0.0000     0.0000     0.0000     0.0000 </r>
        <r>     3.4000     0.0017     0.1438     0.1438     0.1309     0.0000     0.0000     0.0000     0.0000     0.0000 </r>
        <r>     3.4709     0.0016     0.1019     0.1019     0.0877     0.0000     0.0000     0.0000     0.0000     0.0000 </r>
        <r>     3.5417     0.0015     0.0682     0.0682     0.0518     0.0000     0.0000     0.0000     0.0000     0.0000 </r>
        <r>     3.6126     0.0013     0.0684     0.0684     0.0501     0.0000     0.0000     0.0000     0.0000     0.0000 </r>
        <r>     3.6834     0.0012     0.0682     0.0682     0.0482     0.0000     0.0000     0.0000     0.0000     0.0000 </r>
        <r>     3.7542     0.0011     0.0674     0.0674     0.0463     0.0000     0.0000     0.0000     0.0000     0.0000 </r>
        <r>     3.8251     0.0011     0.0662     0.0662     0.0443     0.0000     0.0000     0.0000     0.0000     0.0000 </r>
        <r>     3.8959     0.0010     0.0646     0.0646     0.0422     0.0000     0.0000     0.0000     0.0000     0.0000 </r>
[...]
       </set>
       <set comment="band 5">
        <r>  0.1720  0.0118  0.0118  0.0104  0.0000  0.0000  0.0000  0.0000  0.0000 </r>
        <r>  0.1720  0.0118  0.0118  0.0104  0.0000  0.0000  0.0000  0.0000  0.0000 </r>
       </set>
       <set comment="band 6">
        <r>  0.0001  0.0186  0.0186  0.0773  0.0000  0.0000  0.0000  0.0000  0.0000 </r>
        <r>  0.0001  0.0186  0.0186  0.0773  0.0000  0.0000  0.0000  0.0000  0.0000 </r>
       </set>
       <set comment="band 7">
        <r>  0.0000  0.0581  0.0581  0.0000  0.0000  0.0000  0.0000  0.0000  0.0000 </r>
        <r>  0.0000  0.0581  0.0581  0.0000  0.0000  0.0000  0.0000  0.0000  0.0000 </r>
       </set>
       <set comment="band 8">
        <r>  0.0255  0.0469  0.0470  0.0477  0.0000  0.0000  0.0000  0.0000  0.0000 </r>
        <r>  0.0255  0.0470  0.0469  0.0477  0.0000  0.0000  0.0000  0.0000  0.0000 </r>
       </set>
      </set>
      <set comment="kpoint 3">
       <set comment="band 1">
        <r>  0.2016  0.0000  0.0193  0.0000  0.0000  0.0000  0.0000  0.0000  0.0000 </r>
        <r>  0.2016  0.0000  0.0193  0.0000  0.0000  0.0000  0.0000  0.0000  0.0000 </r>
       </set>
       <set comment="band 2">
        <r>  0.1760  0.0000  0.0731  0.0000  0.0000  0.0000  0.0000  0.0000  0.0000 </r>
        <r>  0.1760  0.0000  0.0731  0.0000  0.0000  0.0000  0.0000  0.0000  0.0000 </r>
       </set>
       <set comment="band 3">
        <r>  0.0000  0.0784  0.0000  0.1133  0.0000  0.0000  0.0000  0.0000  0.0000 </r>
        <r>  0.0000  0.0784  0.0000  0.1133  0.0000  0.0000  0.0000  0.0000  0.0000 </r>
       </set>
       <set comment="band 4">
        <r>  0.0000  0.1133  0.0000  0.0781  0.0000  0.0000  0.0000  0.0000  0.0000 </r>
        <r>  0.0000  0.1133  0.0000  0.0781  0.0000  0.0000  0.0000  0.0000  0.0000 </r>
       </set>
       <set comment="band 5">
        <r>  0.0489  0.0000  0.0591  0.0000  0.0000  0.0000  0.0000  0.0000  0.0000 </r>
        <r>  0.0489  0.0000  0.0591  0.0000  0.0000  0.0000  0.0000  0.0000  0.0000 </r>
       </set>
       <set comment="band 6">
        <r>  0.0450  0.0000  0.0348  0.0000  0.0000  0.0000  0.0000  0.0000  0.0000 </r>
        <r>  0.0450  0.0000  0.0348  0.0000  0.0000  0.0000  0.0000  0.0000  0.0000 </r>
       </set>
       <set comment="band 7">
        <r>  0.0000  0.0653  0.0000  0.1015  0.0000  0.0000  0.0000  0.0000  0.0000 </r>
        <r>  0.0000  0.0653  0.0000  0.1015  0.0000  0.0000  0.0000  0.0000  0.0000 </r>
       </set>
       <set comment="band 8">
        <r>  0.0000  0.1013  0.0000  0.0655  0.0000  0.0000  0.0000  0.0000  0.0000 </r>
        <r>  0.0000  0.1013  0.0000  0.0655  0.0000  0.0000  0.0000  0.0000  0.0000 </r>
       </set>
      </set>
      <set comment="kpoint 4">
       <set comment="band 1">
        <r>  0.2115  0.0073  0.0113  0.0073  0.0000  0.0000  0.0000  0.0000  0.0000 </r>
        <r>  0.2115  0.0073  0.0113  0.0073  0.0000  0.0000  0.0000  0.0000  0.0000 </r>
       </set>
       <set comment="band 2">
        <r>  0.1765  0.0093  0.0397  0.0095  0.0000  0.0000  0.0000  0.0000  0.0000 </r>
        <r>  0.1765  0.0093  0.0397  0.0095  0.0000  0.0000  0.0000  0.0000  0.0000 </r>
       </set>
       <set comment="band 3">
        <r>  0.0034  0.0454  0.0575  0.0453  0.0000  0.0000  0.0000  0.0000  0.0000 </r>
        <r>  0.0034  0.0454  0.0575  0.0453  0.0000  0.0000  0.0000  0.0000  0.0000 </r>
       </set>
       <set comment="band 4">
        <r>  0.0000  0.0985  0.0000  0.0984  0.0000  0.0000  0.0000  0.0000  0.0000 </r>
        <r>  0.0000  0.0985  0.0000  0.0984  0.0000  0.0000  0.0000  0.0000  0.0000 </r>
       </set>
       <set comment="band 5">
        <r>  0.0541  0.0011  0.0462  0.0009  0.0000  0.0000  0.0000  0.0000  0.0000 </r>
        <r>  0.0541  0.0011  0.0462  0.0009  0.0000  0.0000  0.0000  0.0000  0.0000 </r>
       </set>
       <set comment="band 6">
        <r>  0.0090  0.0358  0.0032  0.0411  0.0000  0.0000  0.0000  0.0000  0.0000 </r>
        <r>  0.0090  0.0358  0.0032  0.0411  0.0000  0.0000  0.0000  0.0000  0.0000 </r>
       </set>
       <set comment="band 7">
        <r>  0.0004  0.0808  0.0007  0.0711  0.0000  0.0000  0.0000  0.0000  0.0000 </r>
        <r>  0.0004  0.0808  0.0007  0.0711  0.0000  0.0000  0.0000  0.0000  0.0000 </r>
       </set>
       <set comment="band 8">
        <r>  0.0420  0.0010  0.1218  0.0053  0.0000  0.0000  0.0000  0.0000  0.0000 </r>
        <r>  0.0419  0.0010  0.1218  0.0053  0.0000  0.0000  0.0000  0.0000  0.0000 </r>
       </set>
      </set>
      <set comment="kpoint 5">
       <set comment="band 1">
        <r>  0.2013  0.0000  0.0000  0.0193  0.0000  0.0000  0.0000  0.0000  0.0000 </r>
        <r>  0.2013  0.0000  0.0000  0.0193  0.0000  0.0000  0.0000  0.0000  0.0000 </r>
       </set>
       <set comment="band 2">
        <r>  0.1751  0.0000  0.0000  0.0734  0.0000  0.0000  0.0000  0.0000  0.0000 </r>
        <r>  0.1751  0.0000  0.0000  0.0734  0.0000  0.0000  0.0000  0.0000  0.0000 </r>
       </set>
       <set comment="band 3">
        <r>  0.0000  0.0959  0.0959  0.0000  0.0000  0.0000  0.0000  0.0000  0.0000 </r>
        <r>  0.0000  0.0959  0.0959  0.0000  0.0000  0.0000  0.0000  0.0000  0.0000 </r>
       </set>
       <set comment="band 4">
        <r>  0.0000  0.0959  0.0959  0.0000  0.0000  0.0000  0.0000  0.0000  0.0000 </r>
        <r>  0.0000  0.0959  0.0959  0.0000  0.0000  0.0000  0.0000  0.0000  0.0000 </r>
       </set>
       <set comment="band 5">
        <r>  0.0488  0.0000  0.0000  0.0587  0.0000  0.0000  0.0000  0.0000  0.0000 </r>
        <r>  0.0488  0.0000  0.0000  0.0587  0.0000  0.0000  0.0000  0.0000  0.0000 </r>
       </set>
       <set comment="band 6">
        <r>  0.0455  0.0000  0.0000  0.0337  0.0000  0.0000  0.0000  0.0000  0.0000 </r>
        <r>  0.0455  0.0000  0.0000  0.0337  0.0000  0.0000  0.0000  0.0000  0.0000 </r>
       </set>
       <set comment="band 7">
        <r>  0.0000  0.0835  0.0835  0.0000  0.0000  0.0000  0.0000  0.0000  0.0000 </r>
        <r>  0.0000  0.0835  0.0835  0.0000  0.0000  0.0000  0.0000  0.0000  0.0000 </r>
       </set>
       <set comment="band 8">
        <r>  0.0000  0.0835  0.0835  0.0000  0.0000  0.0000  0.0000  0.0000  0.0000 </r>
        <r>  0.0000  0.0835  0.0835  0.0000  0.0000  0.0000  0.0000  0.0000  0.0000 </r>
       </set>
      </set>
      <set comment="kpoint 6">
       <set comment="band 1">
        <r>  0.2118  0.0071  0.0071  0.0116  0.0000  0.0000  0.0000  0.0000  0.0000 </r>
        <r>  0.2118  0.0071  0.0071  0.0116  0.0000  0.0000  0.0000  0.0000  0.0000 </r>
       </set>
       <set comment="band 2">
        <r>  0.1760  0.0094  0.0094  0.0397  0.0000  0.0000  0.0000  0.0000  0.0000 </r>
        <r>  0.1760  0.0094  0.0094  0.0397  0.0000  0.0000  0.0000  0.0000  0.0000 </r>
       </set>
       <set comment="band 3">
        <r>  0.0031  0.0456  0.0456  0.0570  0.0000  0.0000  0.0000  0.0000  0.0000 </r>
        <r>  0.0031  0.0456  0.0456  0.0570  0.0000  0.0000  0.0000  0.0000  0.0000 </r>
       </set>
       <set comment="band 4">
        <r>  0.0000  0.0987  0.0987  0.0000  0.0000  0.0000  0.0000  0.0000  0.0000 </r>
        <r>  0.0000  0.0987  0.0987  0.0000  0.0000  0.0000  0.0000  0.0000  0.0000 </r>
       </set>
       <set comment="band 5">
        <r>  0.0544  0.0010  0.0010  0.0456  0.0000  0.0000  0.0000  0.0000  0.0000 </r>
        <r>  0.0544  0.0010  0.0010  0.0456  0.0000  0.0000  0.0000  0.0000  0.0000 </r>
       </set>
       <set comment="band 6">
        <r>  0.0081  0.0380  0.0380  0.0024  0.0000  0.0000  0.0000  0.0000  0.0000 </r>
        <r>  0.0081  0.0380  0.0380  0.0024  0.0000  0.0000  0.0000  0.0000  0.0000 </r>
       </set>
       <set comment="band 7">
        <r>  0.0000  0.0767  0.0767  0.0000  0.0000  0.0000  0.0000  0.0000  0.0000 </r>
        <r>  0.0000  0.0767  0.0767  0.0000  0.0000  0.0000  0.0000  0.0000  0.0000 </r>
       </set>
       <set comment="band 8">
        <r>  0.0424  0.0033  0.0033  0.1240  0.0000  0.0000  0.0000  0.0000  0.0000 </r>
        <r>  0.0425  0.0033  0.0033  0.1239  0.0000  0.0000  0.0000  0.0000  0.0000 </r>
       </set>
      </set>
     </set>
     <set comment="spin2">
      <set comment="kpoint 1">
       <set comment="band 1">
        <r>  0.2095  0.0000  0.0000  0.0000  0.0000  0.0000  0.0000  0.0000  0.0000 </r>
        <r>  0.2095  0.0000  0.0000  0.0000  0.0000  0.0000  0.0000  0.0000  0.0000 </r>
       </set>
       <set comment="band 2">
        <r>  0.0000  0.0000  0.0000  0.2109  0.0000  0.0000  0.0000  0.0000  0.0000 </r>
        <r>  0.0000  0.0000  0.0000  0.2109  0.0000  0.0000  0.0000  0.0000  0.0000 </r>
       </set>
       <set comment="band 3">
        <r>  0.0000  0.1052  0.1052  0.0000  0.0000  0.0000  0.0000  0.0000  0.0000 </r>
        <r>  0.0000  0.1052  0.1052  0.0000  0.0000  0.0000  0.0000  0.0000  0.0000 </r>
       </set>
       <set comment="band 4">
        <r>  0.0000  0.1052  0.1052  0.0000  0.0000  0.0000  0.0000  0.0000  0.0000 </r>
        <r>  0.0000  0.1052  0.1052  0.0000  0.0000  0.0000  0.0000  0.0000  0.0000 </r>
       </set>
       <set comment="band 5">
        <r>  0.0000  0.0747  0.0747  0.0000  0.0000  0.0000  0.0000  0.0000  0.0000 </r>
        <r>  0.0000  0.0747  0.0747  0.0000  0.0000  0.0000  0.0000  0.0000  0.0000 </r>
       </set>
       <set comment="band 6">
        <r>  0.0000  0.0747  0.0747  0.0000  0.0000  0.0000  0.0000  0.0000  0.0000 </r>
        <r>  0.0000  0.0747  0.0747  0.0000  0.0000  0.0000  0.0000  0.0000  0.0000 </r>
       </set>
       <set comment="band 7">
        <r>  0.0000  0.0000  0.0000  0.1485  0.0000  0.0000  0.0000  0.0000  0.0000 </r>
        <r>  0.0000  0.0000  0.0000  0.1485  0.0000  0.0000  0.0000  0.0000  0.0000 </r>
       </set>
       <set comment="band 8">
        <r>  0.3576  0.0000  0.0000  0.0000  0.0000  0.0000  0.0000  0.0000  0.0000 </r>
        <r>  0.3576  0.0000  0.0000  0.0000  0.0000  0.0000  0.0000  0.0000  0.0000 </r>
       </set>
      </set>
      <set comment="kpoint 2">
       <set comment="band 1">
        <r>  0.2079  0.0039  0.0039  0.0039  0.0000  0.0000  0.0000  0.0000  0.0000 </r>
        <r>  0.2079  0.0039  0.0039  0.0039  0.0000  0.0000  0.0000  0.0000  0.0000 </r>
       </set>
       <set comment="band 2">
        <r>  0.1077  0.0327  0.0327  0.0328  0.0000  0.0000  0.0000  0.0000  0.0000 </r>
        <r>  0.1077  0.0327  0.0327  0.0328  0.0000  0.0000  0.0000  0.0000  0.0000 </r>
       </set>
       <set comment="band 3">
        <r>  0.0000  0.0348  0.0348  0.1395  0.0000  0.0000  0.0000  0.0000  0.0000 </r>
        <r>  0.0000  0.0348  0.0348  0.1395  0.0000  0.0000  0.0000  0.0000  0.0000 </r>
       </set>
       <set comment="band 4">
        <r>  0.0000  0.1047  0.1047  0.0000  0.0000  0.0000  0.0000  0.0000  0.0000 </r>
        <r>  0.0000  0.1047  0.1047  0.0000  0.0000  0.0000  0.0000  0.0000  0.0000 </r>
       </set>
       <set comment="band 5">
        <r>  0.1720  0.0118  0.0118  0.0104  0.0000  0.0000  0.0000  0.0000  0.0000 </r>
        <r>  0.1720  0.0118  0.0118  0.0104  0.0000  0.0000  0.0000  0.0000  0.0000 </r>
       </set>
       <set comment="band 6">
        <r>  0.0001  0.0186  0.0186  0.0773  0.0000  0.0000  0.0000  0.0000  0.0000 </r>
        <r>  0.0001  0.0186  0.0186  0.0773  0.0000  0.0000  0.0000  0.0000  0.0000 </r>
       </set>
       <set comment="band 7">
        <r>  0.0000  0.0581  0.0581  0.0000  0.0000  0.0000  0.0000  0.0000  0.0000 </r>
        <r>  0.0000  0.0581  0.0581  0.0000  0.0000  0.0000  0.0000  0.0000  0.0000 </r>
       </set>
       <set comment="band 8">
        <r>  0.0255  0.0469  0.0470  0.0477  0.0000  0.0000  0.0000  0.0000  0.0000 </r>
        <r>  0.0255  0.0470  0.0469  0.0477  0.0000  0.0000  0.0000  0.0000  0.0000 </r>
       </set>
      </set>
      <set comment="kpoint 3">
       <set comment="band 1">
        <r>  0.2016  0.0000  0.0193  0.0000  0.0000  0.0000  0.0000  0.0000  0.0000 </r>
        <r>  0.2016  0.0000  0.0193  0.0000  0.0000  0.0000  0.0000  0.0000  0.0000 </r>
       </set>
       <set comment="band 2">
        <r>  0.1760  0.0000  0.0731  0.0000  0.0000  0.0000  0.0000  0.0000  0.0000 </r>
        <r>  0.1760  0.0000  0.0731  0.0000  0.0000  0.0000  0.0000  0.0000  0.0000 </r>
       </set>
       <set comment="band 3">
        <r>  0.0000  0.0784  0.0000  0.1133  0.0000  0.0000  0.0000  0.0000  0.0000 </r>
        <r>  0.0000  0.0784  0.0000  0.1133  0.0000  0.0000  0.0000  0.0000  0.0000 </r>
       </set>
       <set comment="band 4">
        <r>  0.0000  0.1133  0.0000  0.0781  0.0000  0.0000  0.0000  0.0000  0.0000 </r>
        <r>  0.0000  0.1133  0.0000  0.0781  0.0000  0.0000  0.0000  0.0000  0.0000 </r>
       </set>
       <set comment="band 5">
        <r>  0.0489  0.0000  0.0591  0.0000  0.0000  0.0000  0.0000  0.0000  0.0000 </r>
        <r>  0.0489  0.0000  0.0591  0.0000  0.0000  0.0000  0.0000  0.0000  0.0000 </r>
       </set>
       <set comment="band 6">
        <r>  0.0450  0.0000  0.0348  0.0000  0.0000  0.0000  0.0000  0.0000  0.0000 </r>
        <r>  0.0450  0.0000  0.0348  0.0000  0.0000  0.0000  0.0000  0.0000  0.0000 </r>
       </set>
       <set comment="band 7">
        <r>  0.0000  0.0653  0.0000  0.1015  0.0000  0.0000  0.0000  0.0000  0.0000 </r>
        <r>  0.0000  0.0653  0.0000  0.1015  0.0000  0.0000  0.0000  0.0000  0.0000 </r>
       </set>
       <set comment="band 8">
        <r>  0.0000  0.1013  0.0000  0.0655  0.0000  0.0000  0.0000  0.0000  0.0000 </r>
        <r>  0.0000  0.1013  0.0000  0.0655  0.0000  0.0000  0.0000  0.0000  0.0000 </r>
       </set>
      </set>
      <set comment="kpoint 4">
       <set comment="band 1">
        <r>  0.2115  0.0073  0.0113  0.0073  0.0000  0.0000  0.0000  0.0000  0.0000 </r>
        <r>  0.2115  0.0073  0.0113  0.0073  0.0000  0.0000  0.0000  0.0000  0.0000 </r>
       </set>
       <set comment="band 2">
        <r>  0.1765  0.0093  0.0397  0.0095  0.0000  0.0000  0.0000  0.0000  0.0000 </r>
        <r>  0.1765  0.0093  0.0397  0.0095  0.0000  0.0000  0.0000  0.0000  0.0000 </r>
       </set>
       <set comment="band 3">
        <r>  0.0034  0.0454  0.0575  0.0453  0.0000  0.0000  0.0000  0.0000  0.0000 </r>
        <r>  0.0034  0.0454  0.0575  0.0453  0.0000  0.0000  0.0000  0.0000  0.0000 </r>
       </set>
       <set comment="band 4">
        <r>  0.0000  0.0985  0.0000  0.0984  0.0000  0.0000  0.0000  0.0000  0.0000 </r>
        <r>  0.0000  0.0985  0.0000  0.0984  0.0000  0.0000  0.0000  0.0000  0.0000 </r>
       </set>
       <set comment="band 5">
        <r>  0.0541  0.0011  0.0462  0.0009  0.0000  0.0000  0.0000  0.0000  0.0000 </r>
        <r>  0.0541  0.0011  0.0462  0.0009  0.0000  0.0000  0.0000  0.0000  0.0000 </r>
       </set>
       <set comment="band 6">
        <r>  0.0090  0.0358  0.0032  0.0411  0.0000  0.0000  0.0000  0.0000  0.0000 </r>
        <r>  0.0090  0.0358  0.0032  0.0411  0.0000  0.0000  0.0000  0.0000  0.0000 </r>
       </set>
       <set comment="band 7">
        <r>  0.0004  0.0808  0.0007  0.0711  0.0000  0.0000  0.0000  0.0000  0.0000 </r>
        <r>  0.0004  0.0808  0.0007  0.0711  0.0000  0.0000  0.0000  0.0000  0.0000 </r>
       </set>
       <set comment="band 8">
        <r>  0.0419  0.0010  0.1218  0.0053  0.0000  0.0000  0.0000  0.0000  0.0000 </r>
        <r>  0.0420  0.0010  0.1218  0.0053  0.0000  0.0000  0.0000  0.0000  0.0000 </r>
       </set>
      </set>
      <set comment="kpoint 5">
       <set comment="band 1">
        <r>  0.2013  0.0000  0.0000  0.0193  0.0000  0.0000  0.0000  0.0000  0.0000 </r>
        <r>  0.2013  0.0000  0.0000  0.0193  0.0000  0.0000  0.0000  0.0000  0.0000 </r>
       </set>
       <set comment="band 2">
        <r>  0.1751  0.0000  0.0000  0.0734  0.0000  0.0000  0.0000  0.0000  0.0000 </r>
        <r>  0.1751  0.0000  0.0000  0.0734  0.0000  0.0000  0.0000  0.0000  0.0000 </r>
       </set>
       <set comment="band 3">
        <r>  0.0000  0.0959  0.0959  0.0000  0.0000  0.0000  0.0000  0.0000  0.0000 </r>
        <r>  0.0000  0.0959  0.0959  0.0000  0.0000  0.0000  0.0000  0.0000  0.0000 </r>
       </set>
       <set comment="band 4">
        <r>  0.0000  0.0959  0.0959  0.0000  0.0000  0.0000  0.0000  0.0000  0.0000 </r>
        <r>  0.0000  0.0959  0.0959  0.0000  0.0000  0.0000  0.0000  0.0000  0.0000 </r>
       </set>
       <set comment="band 5">
        <r>  0.0488  0.0000  0.0000  0.0587  0.0000  0.0000  0.0000  0.0000  0.0000 </r>
        <r>  0.0488  0.0000  0.0000  0.0587  0.0000  0.0000  0.0000  0.0000  0.0000 </r>
       </set>
       <set comment="band 6">
        <r>  0.0455  0.0000  0.0000  0.0337  0.0000  0.0000  0.0000  0.0000  0.0000 </r>
        <r>  0.0455  0.0000  0.0000  0.0337  0.0000  0.0000  0.0000  0.0000  0.0000 </r>
       </set>
       <set comment="band 7">
        <r>  0.0000  0.1005  0.0665  0.0000  0.0000  0.0000  0.0000  0.0000  0.0000 </r>
        <r>  0.0000  0.0715  0.0955  0.0000  0.0000  0.0000  0.0000  0.0000  0.0000 </r>
       </set>
       <set comment="band 8">
        <r>  0.0000  0.0665  0.1005  0.0000  0.0000  0.0000  0.0000  0.0000  0.0000 </r>
        <r>  0.0000  0.0955  0.0715  0.0000  0.0000  0.0000  0.0000  0.0000  0.0000 </r>
       </set>
      </set>
      <set comment="kpoint 6">
       <set comment="band 1">
        <r>  0.2118  0.0071  0.0071  0.0116  0.0000  0.0000  0.0000  0.0000  0.0000 </r>
        <r>  0.2118  0.0071  0.0071  0.0116  0.0000  0.0000  0.0000  0.0000  0.0000 </r>
       </set>
       <set comment="band 2">
        <r>  0.1760  0.0094  0.0094  0.0397  0.0000  0.0000  0.0000  0.0000  0.0000 </r>
        <r>  0.1760  0.0094  0.0094  0.0397  0.0000  0.0000  0.0000  0.0000  0.0000 </r>
       </set>
       <set comment="band 3">
        <r>  0.0031  0.0456  0.0456  0.0570  0.0000  0.0000  0.0000  0.0000  0.0000 </r>
        <r>  0.0031  0.0456  0.0456  0.0570  0.0000  0.0000  0.0000  0.0000  0.0000 </r>
       </set>
       <set comment="band 4">
        <r>  0.0000  0.0987  0.0987  0.0000  0.0000  0.0000  0.0000  0.0000  0.0000 </r>
        <r>  0.0000  0.0987  0.0987  0.0000  0.0000  0.0000  0.0000  0.0000  0.0000 </r>
       </set>
       <set comment="band 5">
        <r>  0.0544  0.0010  0.0010  0.0456  0.0000  0.0000  0.0000  0.0000  0.0000 </r>
        <r>  0.0544  0.0010  0.0010  0.0456  0.0000  0.0000  0.0000  0.0000  0.0000 </r>
       </set>
       <set comment="band 6">
        <r>  0.0081  0.0380  0.0380  0.0024  0.0000  0.0000  0.0000  0.0000  0.0000 </r>
        <r>  0.0081  0.0380  0.0380  0.0024  0.0000  0.0000  0.0000  0.0000  0.0000 </r>
       </set>
       <set comment="band 7">
        <r>  0.0000  0.0767  0.0767  0.0000  0.0000  0.0000  0.0000  0.0000  0.0000 </r>
        <r>  0.0000  0.0767  0.0767  0.0000  0.0000  0.0000  0.0000  0.0000  0.0000 </r>
       </set>
       <set comment="band 8">
        <r>  0.0425  0.0033  0.0033  0.1240  0.0000  0.0000  0.0000  0.0000  0.0000 </r>
        <r>  0.0425  0.0033  0.0033  0.1240  0.0000  0.0000  0.0000  0.0000  0.0000 </r>
       </set>
      </set>
     </set>
    </set>
   </array>
  </projected>
 </calculation>
 <structure name="finalpos" >
  <crystal>
   <varray name="basis" >
    <v>       0.00000000       2.75277700       2.75277700 </v>
    <v>       2.76650700       0.00000000       2.75277700 </v>
    <v>       2.76650700       2.75277700       0.00000000 </v>
   </varray>
   <i name="volume">     41.92796953 </i>
   <varray name="rec_basis" >
    <v>      -0.18073332       0.18163476       0.18163476 </v>
    <v>       0.18073332      -0.18163476       0.18163476 </v>
    <v>       0.18073332       0.18163476      -0.18163476 </v>
   </varray>
  </crystal>
  <varray name="positions" >
   <v>       0.75000000       0.75000000       0.75000000 </v>
   <v>       0.50000000       0.50000000       0.50000000 </v>
  </varray>
 </structure>
</modeling>
