------------------------------------------------------------
          Invoking FHI-aims ...

          When using FHI-aims, please cite the following reference:

            Volker Blum, Ralf Gehrke, Felix Hanke, Paula Havu,
            Ville Havu, Xinguo Ren, Karsten Reuter, and Matthias Scheffler,
            'Ab Initio Molecular Simulations with Numeric Atom-Centered Orbitals',
            Computer Physics Communications 180, 2175-2196 (2009)

          In addition, many other developments in FHI-aims are likely important for
          your particular application. If so, please cite them. A partial list of references
          is written at the end of this file. Thank you for giving credit to the authors
          of these developments.

          For general information about FHI-aims please find us at

            https://fhi-aims.org

          Online tutorials can be found at

            https://fhi-aims-club.gitlab.io/tutorials/tutorials-overview/

          For any questions about FHI-aims, please visit our slack channel at

            https://fhi-aims.slack.com

          and our main development and support site at

            https://aims-git.rz-berlin.mpg.de .

          The latter site, in particular, has a wiki to collect information, as well
          as an issue tracker to log discussions, suggest improvements, and report issues
          or bugs. https://aims-git.rz-berlin.mpg.de is also the main development site
          of the project and all new and updated code versions can be obtained there.
          Please send an email to aims-coordinators@fhi-berlin.mpg.de and we will add
          you to these sites. They are for you and everyone is welcome there.

------------------------------------------------------------



  Date     :  20231005, Time     :  161728.763
  Time zero on CPU 1             :   0.263365000000000E+00  s.
  Internal wall clock time zero  :           465754648.763  s.

  FHI-aims created a unique identifier for this run for later identification
  aims_uuid : A80B75EA-A628-45C5-ADDE-8656594C396C

  Build configuration of the current instance of FHI-aims
  -------------------------------------------------------
  FHI-aims version      : 230813
  Commit number         : 7484aa5be
  CMake host system     : Linux-5.15.0-78-generic
  CMake version         : 3.22.1
  Fortran compiler      : /opt/intel/oneapi/mpi/2021.10.0/bin/mpiifort (Intel) version 2021.10.0.20230609
  Fortran compiler flags: -O3 -ip -fp-model precise
  C compiler            : /opt/intel/oneapi/compiler/2023.2.1/linux/bin/intel64/icc (Intel) version 2021.10.0.20230609
  C compiler flags      : -O3 -ip -fp-model precise -std=gnu99 -diag-disable=10441
  C++ compiler          : /usr/bin/c++ (GNU) version 11.4.0
  C++ compiler flags    :
  HIP compiler          :
  HIP compiler flags    :
  HIP GPU arch          :
  Using MPI
  Using ScaLAPACK
  Using LibXC
  Using i-PI
  Using RLSY
  Linking against: /opt/intel/oneapi/mkl/latest/lib/intel64/libmkl_intel_lp64.so
                   /opt/intel/oneapi/mkl/latest/lib/intel64/libmkl_sequential.so
                   /opt/intel/oneapi/mkl/latest/lib/intel64/libmkl_core.so
                   /opt/intel/oneapi/mkl/latest/lib/intel64/libmkl_blacs_intelmpi_lp64.so
                   /opt/intel/oneapi/mkl/latest/lib/intel64/libmkl_scalapack_lp64.so

  Using        4 parallel tasks.
  Task        0 on host andrey-Latitude-5411 reporting.
  Task        1 on host andrey-Latitude-5411 reporting.
  Task        2 on host andrey-Latitude-5411 reporting.
  Task        3 on host andrey-Latitude-5411 reporting.

  Obtaining array dimensions for all initial allocations:
  
  -----------------------------------------------------------------------
  Parsing control.in (first pass over file, find array dimensions only).
  The contents of control.in will be repeated verbatim below
  unless switched off by setting 'verbatim_writeout .false.' .
  in the first line of control.in .
  -----------------------------------------------------------------------
  
  #===============================================================================
  # Created using the Atomic Simulation Environment (ASE)
  
  # Thu Oct  5 16:17:27 2023
  
  #===============================================================================
  xc                                 pbe
  relativistic                       atomic_zora scalar
  relax_geometry                     trm 1.000000e-03
  relax_unit_cell                    full
  k_grid                             2 2 2
  compute_forces                     .true.
  compute_analytical_stress          .true.
  #===============================================================================
  
  ################################################################################
  #
  #  FHI-aims code project
  #  Volker Blum, Fritz Haber Institute Berlin, 2009
  #
  #  Suggested "tight" defaults for Si atom (to be pasted into control.in file)
  #
  #  Revised Jan 04, 2011, following tests (SiC) done by Lydia Nemec:
  #     d and g functions of tier 2 now enabled by default.
  #
  ################################################################################
    species        Si
  #     global species definitions
      nucleus             14
      mass                28.0855
  #
      l_hartree           6
  #
      cut_pot             4.0          2.0  1.0
      basis_dep_cutoff    1e-4
  #
      radial_base         42 7.0
      radial_multiplier   2
      angular_grids       specified
        division   0.4121   50
        division   0.7665  110
        division   1.0603  194
        division   1.2846  302
        division   1.4125  434
  #      division   1.4810  590
  #      division   1.5529  770
  #      division   1.6284  974
  #      division   2.6016 1202
  #      outer_grid   974
        outer_grid  434
  ################################################################################
  #
  #  Definition of "minimal" basis
  #
  ################################################################################
  #     valence basis states
      valence      3  s   2.
      valence      3  p   2.
  #     ion occupancy
      ion_occ      3  s   1.
      ion_occ      3  p   1.
  ################################################################################
  #
  #  Suggested additional basis functions. For production calculations,
  #  uncomment them one after another (the most important basis functions are
  #  listed first).
  #
  #  Constructed for dimers: 1.75 A, 2.0 A, 2.25 A, 2.75 A, 3.75 A
  #
  ################################################################################
  #  "First tier" - improvements: -571.96 meV to -37.03 meV
       hydro 3 d 4.2
       hydro 2 p 1.4
       hydro 4 f 6.2
       ionic 3 s auto
  #  "Second tier" - improvements: -16.76 meV to -3.03 meV
       hydro 3 d 9
       hydro 5 g 9.4
  #     hydro 4 p 4
  #     hydro 1 s 0.65
  #  "Third tier" - improvements: -3.89 meV to -0.60 meV
  #     ionic 3 d auto
  #     hydro 3 s 2.6
  #     hydro 4 f 8.4
  #     hydro 3 d 3.4
  #     hydro 3 p 7.8
  #  "Fourth tier" - improvements: -0.33 meV to -0.11 meV
  #     hydro 2 p 1.6
  #     hydro 5 g 10.8
  #     hydro 5 f 11.2
  #     hydro 3 d 1
  #     hydro 4 s 4.5
  #  Further basis functions that fell out of the optimization - noise
  #  level... < -0.08 meV
  #     hydro 4 d 6.6
  #     hydro 5 g 16.4
  #     hydro 4 d 9
  ################################################################################
  #
  # For methods that use the localized form of the "resolution of identity" for
  # the two-electron Coulomb operator (RI_method LVL), particularly Hartree-Fock and
  # hybrid density functional calculations, the highest accuracy can be obtained by
  # uncommenting the line beginning with "for_aux"  below, thus adding an extra g radial
  # function to the construction of the product basis set for the expansion.
  # See Ref. New J. Phys. 17, 093020 (2015) for more information, particularly Figs. 1 and 6.
  #
  ################################################################################
  #
  # for_aux hydro 5 g 6.0
  
  -----------------------------------------------------------------------
  Completed first pass over input file control.in .
  -----------------------------------------------------------------------
  
  
  -----------------------------------------------------------------------
  Parsing geometry.in (first pass over file, find array dimensions only).
  The contents of geometry.in will be repeated verbatim below
  unless switched off by setting 'verbatim_writeout .false.' .
  in the first line of geometry.in .
  -----------------------------------------------------------------------
  
  #===============================================================================
  # Created using the Atomic Simulation Environment (ASE)
  
  # Thu Oct  5 16:17:27 2023
  
  #=======================================================
  lattice_vector 0.0000000800000000 2.8151761899999999 2.8151761899999999
  lattice_vector 2.8151760900000000 -0.0000000400000000 2.8151761400000002
  lattice_vector 2.8151760900000000 2.8151761400000002 -0.0000000400000000
  atom_frac -0.0000000071043512 0.0000000035521758 0.0000000035521758 Si
  atom_frac 0.2500000053282634 0.2499999973358682 0.2499999973358681 Si
  
  -----------------------------------------------------------------------
  Completed first pass over input file geometry.in .
  -----------------------------------------------------------------------
  

  Basic array size parameters:
  | Number of species                 :        1
  | Number of atoms                   :        2
  | Number of lattice vectors         :        3
  | Max. basis fn. angular momentum   :        4
  | Max. atomic/ionic basis occupied n:        3
  | Max. number of basis fn. types    :        3
  | Max. radial fns per species/type  :        5
  | Max. logarithmic grid size        :     1346
  | Max. radial integration grid size :       85
  | Max. angular integration grid size:      434
  | Max. angular grid division number :        8
  | Radial grid for Hartree potential :     1346
  | Number of spin channels           :        1

------------------------------------------------------------
          Reading file control.in.
------------------------------------------------------------
  XC: Using PBE gradient-corrected functionals.
  Scalar relativistic treatment of kinetic energy: on-site free-atom approximation to ZORA.
  Geometry relaxation: Modified BFGS - TRM (trust radius method) for lattice optimization.
  Convergence accuracy for geometry relaxation: Maximum force <   0.100000E-02 eV/A.
  Found k-point grid:         2         2         2
  Forces will be computed.
 
  Reading configuration options for species Si                  .
  | Found nuclear charge :  14.0000
  | Found atomic mass :    28.0855000000000      amu
  | Found l_max for Hartree potential  :   6
  | Found cutoff potl. onset [A], width [A], scale factor :    4.00000    2.00000    1.00000
  | Threshold for basis-dependent cutoff potential is   0.100000E-03
  | Found data for basic radial integration grid :    42 points, outermost radius =    7.000 A
  | Found multiplier for basic radial grid :   2
  | Found angular grid specification: user-specified.
  | Specified grid contains     6 separate shells.
  | Check grid settings after all constraints further below.
  | Found free-atom valence shell :  3 s   2.000
  | Found free-atom valence shell :  3 p   2.000
  | Found free-ion valence shell :  3 s   1.000
  | Found free-ion valence shell :  3 p   1.000
  | Found hydrogenic basis function :  3 d   4.200
  | Found hydrogenic basis function :  2 p   1.400
  | Found hydrogenic basis function :  4 f   6.200
  | Found ionic basis function :  3 s , default cutoff radius.
  | Found hydrogenic basis function :  3 d   9.000
  | Found hydrogenic basis function :  5 g   9.400
  Species Si                  : Missing cutoff potential type.
  Defaulting to exp(1/x)/(1-x)^2 type cutoff potential.
  Species Si: No 'logarithmic' tag. Using default grid for free atom:
  | Default logarithmic grid data [bohr] : 0.1000E-03 0.1000E+03 0.1012E+01
  | Will include ionic basis functions of  2.0-fold positive Si                   ion.
  Species Si: On-site basis accuracy parameter (for Gram-Schmidt orthonormalisation) not specified.
  Using default value basis_acc =  0.1000000E-03.
  Species Si                  : Using default innermost maximum threshold i_radial=  2 for radial functions.
  Species Si                  : Default cutoff onset for free atom density etc. : 0.40000000E+01 AA.
  Species Si                  : Basic radial grid will be enhanced according to radial_multiplier =   2, to contain    85 grid points.
 
  Finished reading input file 'control.in'.
 
------------------------------------------------------------


------------------------------------------------------------
          Reading geometry description geometry.in.
------------------------------------------------------------
  | The smallest distance between any two atoms is         2.43801402 AA.
  | The first atom of this pair is atom number                      1 .
  | The second atom of this pair is atom number                     2 .
  | Wigner-Seitz cell of the first atom image           1     0     0 .
  | (The Wigner-Seitz cell of the second atom is 0 0 0  by definition.)

  Symmetry information by spglib:
  | Precision set to  0.1E-04
  | Number of Operations  : 48
  | Space group           : 227
  | International         : Fd-3m
  | Schoenflies           : Oh^7
  Input structure read successfully.
  The structure contains        2 atoms,  and a total of         28.000 electrons.

  Input geometry:
  | Unit cell:
  |        0.00000008        2.81517619        2.81517619
  |        2.81517609       -0.00000004        2.81517614
  |        2.81517609        2.81517614       -0.00000004
  | Atomic structure:
  |       Atom                x [A]            y [A]            z [A]
  |    1: Species Si            0.00000002       -0.00000001       -0.00000001
  |    2: Species Si            1.40758805        1.40758808        1.40758808

  Lattice parameters for 3D lattice (in Angstroms) :     3.981260    3.981260    3.981260
  Angle(s) between unit vectors (in degrees)       :    60.000002   59.999999   59.999999


  Quantities derived from the lattice vectors (in Angstrom^-1):
  | Reciprocal lattice vector 1: -1.115949  1.115949  1.115949
  | Reciprocal lattice vector 2:  1.115949 -1.115949  1.115949
  | Reciprocal lattice vector 3:  1.115949  1.115949 -1.115949
  | Unit cell volume                               :   0.446218E+02  Angstrom^3

  Fractional coordinates:
                         L1                L2                L3
       atom_frac        -0.00000001        0.00000000        0.00000000  Si
       atom_frac         0.25000001        0.25000000        0.25000000  Si

 
  Finished reading input file 'geometry.in'.
 

 
  Consistency checks for stacksize environment parameter are next.
 
  | Maximum stacksize for task 0: unlimited
  | Maximum stacksize for task 1: unlimited
  | Maximum stacksize for task 2: unlimited
  | Maximum stacksize for task 3: unlimited
  | Current stacksize for task 0: unlimited
  | Current stacksize for task 1: unlimited
  | Current stacksize for task 2: unlimited
  | Current stacksize for task 3: unlimited
 
  Consistency checks for the contents of control.in are next.
 
  MPI_IN_PLACE appears to work with this MPI implementation.
  | Keeping use_mpi_in_place .true. (see manual).
  Target number of points in a grid batch is not set. Defaulting to  100
  Method for grid partitioning is not set. Defaulting to parallel hash+maxmin partitioning.
  Batch size limit is not set. Defaulting to    200
  By default, will store active basis functions for each batch.
  If in need of memory, prune_basis_once .false. can be used to disable this option.
  communication_type for Hartree potential was not specified.
  Defaulting to calc_hartree .
  Defaulting to Pulay charge density mixer.
  Pulay mixer: Number of relevant iterations not set.
  Defaulting to    8 iterations.
  Pulay mixer: Number of initial linear mixing iterations not set.
  Defaulting to    0 iterations.
  Work space size for distributed Hartree potential not set.
  Defaulting to   0.200000E+03 MB.
  Mixing parameter for charge density mixing has not been set.
  Using default: charge_mix_param =     0.0500.
  The mixing parameter will be adjusted in iteration number     2 of the first full s.c.f. cycle only.
  Algorithm-dependent basis array size parameters:
  | n_max_pulay                         :        8
  Maximum number of self-consistency iterations not provided.
  Presetting  1000 iterations.
  Presetting      1001 iterations before the initial mixing cycle
  is restarted anyway using the sc_init_iter criterion / keyword.
  Presetting a factor      1.000 between actual scf density residual
  and density convergence criterion sc_accuracy_rho below which sc_init_iter
  takes no effect.
 * No s.c.f. convergence criteria (sc_accuracy_*) were provided in control.in.
 * The run will proceed with a reasonable default guess, but please check whether.
 * the s.c.f. cycles seem to take too much or too little time.
  No maximum number of relaxation steps, defaulting to     1000
  Default initial Hessian is Lindh matrix (thres = 15.00) plus  0.200000E+01 eV/A^2 times unity.
  No maximum energy tolerance for TRM/BFGS moves, defaulting to   0.150000E-02
  Maximum energy tolerance by which TRM/BFGS trajectory may increase over multiple steps:   0.300000E-02
  No harmonic length scale. Defaulting to   0.250000E-01 A.
  No trust radius initializer. Defaulting to   0.200000E+00 A.
  Unit cell relaxation: Unit cell will be relaxed fully.
  Unit cell relaxation: Analytical stress will be used.
  Analytical stress will be computed.
  Analytical stress calculation: Only the upper triangle is calculated.
                                 Final output is symmetrized.
  Analytical stress calculation: scf convergence accuracy of stress not set.
                                 Analytical stress self-consistency will not be checked explicitly.
                                 Be sure to set other criteria like sc_accuracy_rho tight enough.
  Forces evaluation will include force correction term due to incomplete self-consistency (default).
 * Notice: The s.c.f. convergence criterion sc_accuracy_rho was not provided.
 * We used to stop in this case, and ask the user to provide reasonable
 * scf convergence criteria. However, this led some users to employ criteria
 * that led to extremely long run times, e.g., for simple relaxation.
 * We now preset a default value for sc_accuracy_rho if it is not set.
 * You may still wish to check if this setting is too tight or too loose for your needs.
 * Based on n_atoms and forces and force-correction status, FHI-aims chose sc_accuracy_rho =  0.100000E-05 .
  Force calculation: scf convergence accuracy of forces not set.
  Defaulting to 'sc_accuracy_forces not_checked'.
  Handling of forces: Unphysical translation and rotation will be removed from forces.
  No accuracy limit for integral partition fn. given. Defaulting to  0.1000E-14.
  No threshold value for u(r) in integrations given. Defaulting to  0.1000E-05.
  No occupation type (smearing scheme) given. Defaulting to Gaussian broadening, width =  0.1000E-01 eV.
  The width will be adjusted in iteration number     2 of the first full s.c.f. cycle only.
  S.C.F. convergence parameters will be adjusted in iteration number     2 of the first full s.c.f. cycle only.
  No accuracy for occupation numbers given. Defaulting to  0.1000E-12.
  No threshold value for occupation numbers given. Defaulting to  0.0000E+00.
  No accuracy for fermi level given. Defaulting to  0.1000E-19.
  Maximum # of iterations to find E_F not set. Defaulting to  200.
  Preferred method for the eigenvalue solver ('KS_method') not specified in 'control.in'.
  Defaulting to serial version, LAPACK (via ELSI), since more k-points than CPUs available.
  Will not use alltoall communication since running on < 1024 CPUs.
  Threshold for basis singularities not set.
  Default threshold for basis singularities:  0.1000E-04
  partition_type (choice of integration weights) for integrals was not specified.
  | Using a version of the partition function of Stratmann and coworkers ('stratmann_sparse').
  | At each grid point, the set of atoms used to build the partition table is smoothly restricted to
  | only those atoms whose free-atom density would be non-zero at that grid point.
  Partitioning for Hartree potential was not defined. Using partition_type for integrals.
  | Adjusted default value of keyword multip_moments_threshold to:       0.10000000E-11
  | This value may affect high angular momentum components of the Hartree potential in periodic systems.
  Spin handling was not defined in control.in. Defaulting to unpolarized case.
  Angular momentum expansion for Kerker preconditioner not set explicitly.
  | Using default value of   0
  No explicit requirement for turning off preconditioner.
  | By default, it will be turned off when the charge convergence reaches
  | sc_accuracy_rho  =   0.100000E-05
  No special mixing parameter while Kerker preconditioner is on.
  Using default: charge_mix_param =     0.0500.
  No q(lm)/r^(l+1) cutoff set for long-range Hartree potential.
  | Using default value of  0.100000E-09 .
  | Verify using the multipole_threshold keyword.
  Defaulting to new monopole extrapolation.
  Density update method: automatic selection selected.
  Using density matrix based charge density update.
  Using density matrix based charge density update.
  Using packed matrix style: index .
  Geometry relaxation: A file "geometry.in.next_step" is written out by default after each step.
  | This file contains the geometry of the current relaxation step as well as
  | the current Hessian matrix needed to restart the relaxation algorithm.
  | If you do not want part or all of this information, use the keywords
  | "write_restart_geometry" or "hessian_to_restart_geometry" to switch the output off.
  Defaulting to use time-reversal symmetry for k-point grid.
  Charge integration errors on the 3D integration grid will be compensated
  by explicit normalization and distribution of residual charges.
  Use the "compensate_multipole_errors" flag to change this behaviour.
  Set 'collect_eigenvectors' to be '.true.' for all serial calculations. This is mandatory.
  Set 'collect_eigenvectors' to be '.true.' for KS_method lapack_fast and serial.
 
  Consistency checks for the contents of geometry.in are next.
 

  Range separation radius for Ewald summation (hartree_convergence_parameter):      4.04577347 bohr.
  Number of empty states per atom not set in control.in - providing a guess from actual geometry.
  | Total number of empty states used during s.c.f. cycle:        6
  If you use a very high smearing, use empty_states (per atom!) in control.in to increase this value.

  Structure-dependent array size parameters: 
  | Maximum number of distinct radial functions  :       11
  | Maximum number of basis functions            :       78
  | Number of Kohn-Sham states (occupied + empty):       20
------------------------------------------------------------
  After read_input_data [GB]:     23.40

  Performing system and environment tests:
  | Environment variable OMP_NUM_THREADS correctly set to 1.
  | Checking for ScaLAPACK...
  | Testing pdtran()...
  | All pdtran() tests passed.
  After prepare_system [GB]:     23.37

------------------------------------------------------------
          Preparing all fixed parts of the calculation.
------------------------------------------------------------
  Determining machine precision:
    2.225073858507201E-308
  Setting up grids for atomic and cluster calculations.

  Creating wave function, potential, and density for free atoms.
  Runtime choices for atomic solver:
  | atomic solver xc        : PBE
  | compute density gradient: 1
  | compute kinetic density : F

  Species: Si

  List of occupied orbitals and eigenvalues:
    n    l              occ      energy [Ha]    energy [eV]
    1    0           2.0000       -65.775969     -1789.8552
    2    0           2.0000        -5.123557      -139.4191
    3    0           2.0000        -0.394463       -10.7339
    2    1           6.0000        -3.508175       -95.4623
    3    1           2.0000        -0.147003        -4.0002


  Adding cutoff potential to free-atom effective potential.
  Creating fixed part of basis set: Ionic, confined, hydrogenic.
 
  Si                   ion:

  List of free ionic orbitals and eigenvalues:
    n    l      energy [Ha]    energy [eV]
    1    0       -66.641157     -1813.3982
    2    0        -5.964274      -162.2962
    3    0        -1.073878       -29.2217
    2    1        -4.350005      -118.3697
    3    1        -0.776571       -21.1316


  List of ionic basis orbitals and eigenvalues:
    n    l      energy [Ha]    energy [eV]    outer radius [A]
    3    0        -1.073870       -29.2215       4.534782

 
  Si                   hydrogenic:
 
  List of hydrogenic basis orbitals: 
    n    l      effective z      eigenvalue [eV]  inner max. [A]     outer max. [A]     outer radius [A]   
    3    2         4.200000       -26.6668           1.139231           1.139231           5.315897
    2    1         1.400000        -6.6027           1.490786           1.490786           5.447472
    4    3         6.200000       -32.6870           1.368518           1.368518           5.381283
    3    2         9.000000      -122.4512           0.527387           0.527387           3.181181
    5    4         9.400000       -48.0877           1.402391           1.402391           5.251306
 
  Creating atomic-like basis functions for current effective potential.

  Species Si                  :

  List of atomic basis orbitals and eigenvalues:
    n    l      energy [Ha]    energy [eV]    outer radius [A]
    1    0       -65.775969     -1789.8552       0.789468
    2    0        -5.123557      -139.4191       2.815114
    3    0        -0.394463       -10.7339       5.315897
    2    1        -3.508175       -95.4623       3.259919
    3    1        -0.147003        -4.0002       5.447472

  Assembling full basis from fixed parts.
  | Species Si :   atomic orbital   1 s accepted.
  | Species Si :   atomic orbital   2 s accepted.
  | Species Si :    ionic orbital   3 s accepted.
  | Species Si :   atomic orbital   3 s accepted.
  | Species Si :   atomic orbital   2 p accepted.
  | Species Si :   atomic orbital   3 p accepted.
  | Species Si :    hydro orbital   2 p accepted.
  | Species Si :    hydro orbital   3 d accepted.
  | Species Si :    hydro orbital   3 d accepted.
  | Species Si :    hydro orbital   4 f accepted.
  | Species Si :    hydro orbital   5 g accepted.
 
  Basis size parameters after reduction:
  | Total number of radial functions:       11
  | Total number of basis functions :       78
 
  Per-task memory consumption for arrays in subroutine allocate_ext:
  |           3.792652MB.
  Testing on-site integration grid accuracy.
  |  Species  Function  <phi|h_atom|phi> (log., in eV)  <phi|h_atom|phi> (rad., in eV)
           1        1              -1789.8551969286              -1789.8551654044
           1        2               -139.4190834032               -139.4190829157
           1        3                -10.3851269365                -10.3851269662
           1        4                  5.2748560831                  5.2746879749
           1        5                -95.4622899789                -95.4622898460
           1        6                 -4.0035070090                 -4.0036255172
           1        7                  4.8352944695                  4.8334925957
           1        8                 36.0281341134                 36.0281341202
           1        9                 21.0467703617                 21.0467633086
           1       10                 19.1745287805                 19.1745199964
           1       11                 35.6867439284                 35.6867482281

  Preparing densities etc. for the partition functions (integrals / Hartree potential).

  Preparations completed.
  max(cpu_time)          :      0.167 s.
  Wall clock time (cpu1) :      0.167 s.
------------------------------------------------------------
  After prepare_scf [GB]:     23.33

  Initializing index lists of integration centers etc. from given atomic structure:
  Mapping all atomic coordinates to central unit cell.

  Initializing the k-points
  Using symmetry for reducing the k-points
  | k-points reduced from:        8 to        8
  | Number of k-points                             :         8
  The eigenvectors in the calculations are REAL.
  | K-points in task   0:         2
  | K-points in task   1:         2
  | K-points in task   2:         2
  | K-points in task   3:         2
  | Number of basis functions in the Hamiltonian integrals :      3396
  | Number of basis functions in a single unit cell        :        78
  | Number of centers in hartree potential         :       810
  | Number of centers in hartree multipole         :       432
  | Number of centers in electron density summation:       324
  | Number of centers in basis integrals           :       336
  | Number of centers in integrals                 :       146
  | Number of centers in hamiltonian               :       324
  | Consuming         23 KiB for k_phase.
  | Number of super-cells (origin) [n_cells]                     :        2197
  | Number of super-cells (after PM_index) [n_cells]             :         184
  | Number of super-cells in hamiltonian [n_cells_in_hamiltonian]:         184
  | Size of matrix packed + index [n_hamiltonian_matrix_size] :      309993
  After initialize_bc_dependent_lists [GB]:     23.31

------------------------------------------------------------
          Begin self-consistency loop: Initialization.

          Date     :  20231005, Time     :  161729.009
------------------------------------------------------------

  Initializing relaxation algorithms.
  Finished initialization of distributed Hessian storage.
  | Global dimension:        15
  | BLACS block size:         4
  | Number of workers:        4

  Available memory per node after initialize_hartree_non_periodic_ewald [GB]:     23.31
  | Estimated reciprocal-space cutoff momentum G_max:         2.39816118 bohr^-1 .
  | Reciprocal lattice points for long-range Hartree potential:      64
  Available memory per node after initialize_recip_hartree_potential [GB]:     23.31
  Available memory per node after initialize_scalapack [GB]:     23.31
  Available memory per node after aims_elsi_init_scf [GB]:     23.31
  Available memory per node after initialize_fixed_grids [GB]:     23.31
  Partitioning the integration grid into batches with parallel hashing+maxmin method.
  | Number of batches:      384
  | Maximal batch size:     106
  | Minimal batch size:      85
  | Average batch size:      93.323
  | Standard deviation of batch sizes:       7.554

  Integration load balanced across     4 MPI tasks.
  Work distribution over tasks is as follows:
  Task     0 has       9012 integration points.
  Task     1 has       8959 integration points.
  Task     2 has       8959 integration points.
  Task     3 has       8906 integration points.
  Available memory per node after partition_grid [GB]:     23.32
  Initializing partition tables, free-atom densities, potentials, etc. across the integration grid (initialize_grid_storage).
  | initialize_grid_storage: Actual outermost partition radius vs. multipole_radius_free
  | (-- VB: in principle, multipole_radius_free should be larger, hence this output)
  | Species        1: Confinement radius =              6.000000000000000 AA, multipole_radius_free =              6.007157080273940 AA.
  | Species        1: outer_partition_radius set to              6.007157080273940 AA .
  | The sparse table of interatomic distances needs       1114.83 kbyte instead of       903.17 kbyte of memory.
  | Using the partition_type stratmann_smoother will reduce your memory usage.
  | Net number of integration points:    35836
  | of which are non-zero points    :    27744
  | Numerical average free-atom electrostatic potential    :    -12.13121769 eV
  Available memory per node after initialize_grid_storage_p1 [GB]:     23.31
  Renormalizing the initial density to the exact electron count on the 3D integration grid.
  | Initial density: Formal number of electrons (from input files) :      28.0000000000
  | Integrated number of electrons on 3D grid     :      28.0020802322
  | Charge integration error                      :       0.0020802322
  | Normalization factor for density and gradient :       0.9999257115
  Renormalizing the free-atom superposition density to the exact electron count on the 3D integration grid.
  | Formal number of electrons (from input files) :      28.0000000000
  | Integrated number of electrons on 3D grid     :      28.0020802322
  | Charge integration error                      :       0.0020802322
  | Normalization factor for density and gradient :       0.9999257115
  Obtaining max. number of non-zero basis functions in each batch (get_n_compute_maxes).
  | Maximal number of non-zero basis functions:     1286 in task     0
  | Maximal number of non-zero basis functions:     1318 in task     1
  | Maximal number of non-zero basis functions:     1309 in task     2
  | Maximal number of non-zero basis functions:     1307 in task     3
  Available memory per node after get_n_compute_maxes_p1 [GB]:     23.30
  Allocating        0.024 MB for KS_eigenvector
  Available memory per node after allocate_matrices [GB]:     23.30
  Available memory per node after init_comm_sparse_local_matrix_scalapack [GB]:     23.30
  Integrating Hamiltonian matrix: batch-based integration.
  Time summed over all CPUs for integration: real work        9.894 s, elapsed       10.328 s
  Available memory per node after integrate hamiltonian matrix [GB]:     23.21
  Integrating overlap matrix.
  Time summed over all CPUs for integration: real work        9.550 s, elapsed        9.824 s
  Available memory per node after integrate ovlp matrix [GB]:     23.19
  Available memory per node after ASI_callbacks invoke [GB]:     23.19
  Decreasing sparse matrix size:
  | Tolerance:  0.1000E-12
  Hamiltonian matrix
  | Array has   265970 nonzero elements out of   309993 elements
  | Sparsity factor is 0.142
  Overlap matrix
  | Array has   232304 nonzero elements out of   309993 elements
  | Sparsity factor is 0.251
  New size of hamiltonian matrix:      266031
  Available memory per node after save_overlap_scalapack [GB]:     23.18

  Updating Kohn-Sham eigenvalues and eigenvectors using ELSI and the (modified) LAPACK eigensolver.
  Singularity check in k-point 4, task 0 (analysis for other k-points/tasks may follow below):
  Overlap matrix is not singular
  | Lowest and highest eigenvalues :  0.3471E-03,  0.4124E+01
  Finished singularity check of overlap matrix
  | Time :     0.002 s
  Starting LAPACK eigensolver
  Finished Cholesky decomposition
  | Time :     0.000 s
  Finished transformation to standard eigenproblem
  | Time :     0.000 s
  Finished solving standard eigenproblem
  | Time :     0.002 s
  Finished back-transformation of eigenvectors
  | Time :     0.000 s

  Obtaining occupation numbers and electronic chemical potential using ELSI.
  | Note that, for insulating systems, the printed 'chemical potential' value is not uniquely defined.
  | It can be anywhere in the energy gap, as long as it correctly separates occupied and unoccupied states.
  | In systems with a gap, the physically relevant chemical potential is the VBM or HOMO.

  | Chemical potential (Fermi level):    -6.01490590 eV
  Available memory per node after advance_KS_solution [GB]:     23.18
  Writing Kohn-Sham eigenvalues.
  K-point:       1 at    0.000000    0.000000    0.000000 (in units of recip. lattice)

  State    Occupation    Eigenvalue [Ha]    Eigenvalue [eV]
      1       2.00000         -65.798095        -1790.45728
      2       2.00000         -65.798095        -1790.45728
      3       2.00000          -5.149317         -140.12005
      4       2.00000          -5.149151         -140.11554
      5       2.00000          -3.533923          -96.16293
      6       2.00000          -3.533923          -96.16293
      7       2.00000          -3.533923          -96.16293
      8       2.00000          -3.533522          -96.15203
      9       2.00000          -3.533522          -96.15203
     10       2.00000          -3.533522          -96.15203
     11       2.00000          -0.642795          -17.49135
     12       2.00000          -0.232349           -6.32255
     13       2.00000          -0.232349           -6.32255
     14       2.00000          -0.232349           -6.32255
     15       0.00000          -0.153008           -4.16357
     16       0.00000          -0.133669           -3.63733
     17       0.00000          -0.133669           -3.63733
     18       0.00000          -0.133669           -3.63733
     19       0.00000           0.063675            1.73267
     20       0.00000           0.063675            1.73267

  What follows are estimated values for band gap, HOMO, LUMO, etc.
  | They are estimated on a discrete k-point grid and not necessarily exact.
  | For converged numbers, create a DOS and/or band structure plot on a denser k-grid.

  Highest occupied state (VBM) at     -6.32254935 eV (relative to internal zero)
  | Occupation number:      2.00000000
  | K-point:       1 at    0.000000    0.000000    0.000000 (in units of recip. lattice)

  Lowest unoccupied state (CBM) at    -5.17018443 eV (relative to internal zero)
  | Occupation number:      0.00000000
  | K-point:       4 at    0.000000    0.500000    0.500000 (in units of recip. lattice)

  ESTIMATED overall HOMO-LUMO gap:      1.15236492 eV between HOMO at k-point 1 and LUMO at k-point 4
  | This appears to be an indirect band gap.
  | Smallest direct gap :      2.15897743 eV for k_point 1 at    0.000000    0.000000    0.000000 (in units of recip. lattice)
  The gap value is above 0.2 eV. Unless you are using a very sparse k-point grid,
  this system is most likely an insulator or a semiconductor.
  Calculating total energy contributions from superposition of free atom densities.

  Total energy components:
  | Sum of eigenvalues            :        -329.35248280 Ha       -8962.13704554 eV
  | XC energy correction          :         -41.67201462 Ha       -1133.95321284 eV
  | XC potential correction       :          53.81479351 Ha        1464.37503810 eV
  | Free-atom electrostatic energy:        -263.44809454 Ha       -7168.78739619 eV
  | Hartree energy correction     :           0.00000000 Ha           0.00000000 eV
  | Entropy correction            :           0.00000000 Ha           0.00000000 eV
  | ---------------------------
  | Total energy                  :        -580.65779845 Ha      -15800.50261647 eV
  | Total energy, T -> 0          :        -580.65779845 Ha      -15800.50261647 eV  <-- do not rely on this value for anything but (periodic) metals
  | Electronic free energy        :        -580.65779845 Ha      -15800.50261647 eV

  Derived energy quantities:
  | Kinetic energy                :         582.24473612 Ha       15843.68538758 eV
  | Electrostatic energy          :       -1121.23051994 Ha      -30510.23479121 eV
  | Energy correction for multipole
  | error in Hartree potential    :           0.00000000 Ha           0.00000000 eV
  | Sum of eigenvalues per atom                           :       -4481.06852277 eV
  | Total energy (T->0) per atom                          :       -7900.25130824 eV  <-- do not rely on this value for anything but (periodic) metals
  | Electronic free energy per atom                       :       -7900.25130824 eV
  Initialize hartree_potential_storage
  Max. number of atoms included in rho_multipole:            2

  End scf initialization - timings             :  max(cpu_time)    wall_clock(cpu1)
  | Time for scf. initialization                :        6.007 s           6.007 s
  | Boundary condition initialization           :        0.046 s           0.046 s
  | Relaxation initialization                   :        0.001 s           0.001 s
  | Integration                                 :        5.059 s           5.060 s
  | Solution of K.-S. eqns.                     :        0.018 s           0.018 s
  | Grid partitioning                           :        0.086 s           0.086 s
  | Preloading free-atom quantities on grid     :        0.719 s           0.719 s
  | Free-atom superposition energy              :        0.110 s           0.110 s
  | Total energy evaluation                     :        0.000 s           0.000 s

  Partial memory accounting:
  | Current value for overall tracked memory usage:
  |   Minimum:        5.137 MB (on task 3)
  |   Maximum:        5.137 MB (on task 0)
  |   Average:        5.137 MB
  | Peak value for overall tracked memory usage:
  |   Minimum:       21.742 MB (on task 0 after allocating wave)
  |   Maximum:       22.456 MB (on task 1 after allocating wave)
  |   Average:       22.165 MB
  | Largest tracked array allocation so far:
  |   Minimum:       12.617 MB (hamiltonian_shell on task 0)
  |   Maximum:       13.253 MB (hamiltonian_shell on task 1)
  |   Average:       12.994 MB
  Note:  These values currently only include a subset of arrays which are explicitly tracked.
  The "true" memory usage will be greater.
------------------------------------------------------------
  Available memory after initialize_scf [GB]:     23.19
  Available memory after allocating mixing [GB]:     23.19
  Evaluating new KS density using the density matrix
  Evaluating density matrix
  Time summed over all CPUs for getting density from density matrix: real work       21.782 s, elapsed       22.494 s
  Integration grid: deviation in total charge (<rho> - N_e) =   2.131628E-14

  Time for density update prior                :  max(cpu_time)    wall_clock(cpu1)
  | self-consistency iterative process          :        5.630 s           5.630 s
  Available memory before start of SCF loop [GB]:     23.13

------------------------------------------------------------
          Begin self-consistency iteration #    1

  Date     :  20231005, Time     :  161740.648
------------------------------------------------------------
  Pulay mixing of updated and previous charge densities.
  Available memory per node after mixing [GB]:     23.13
  Renormalizing the density to the exact electron count on the 3D integration grid.
  | Formal number of electrons (from input files) :      28.0000000000
  | Integrated number of electrons on 3D grid     :      27.9997710913
  | Charge integration error                      :      -0.0002289087
  | Normalization factor for density and gradient :       1.0000081754

  Evaluating partitioned Hartree potential by multipole expansion.
  | Original multipole sum: apparent total charge =   0.320926E-14
  | Sum of charges compensated after spline to logarithmic grids =   0.269999E-07
  | Analytical far-field extrapolation by fixed multipoles:
  | Hartree multipole sum: apparent total charge =   0.000000E+00
  Summing up the Hartree potential.
  Time summed over all CPUs for potential: real work        0.199 s, elapsed        0.211 s
  | RMS charge density error from multipole expansion :   0.322802E-03
  | Average real-space part of the electrostatic potential :      0.02512228 eV

  Integrating Hamiltonian matrix: batch-based integration.
  Time summed over all CPUs for integration: real work        7.880 s, elapsed        8.193 s

  Updating Kohn-Sham eigenvalues and eigenvectors using ELSI and the (modified) LAPACK eigensolver.
  Starting LAPACK eigensolver
  Finished Cholesky decomposition
  | Time :     0.000 s
  Finished transformation to standard eigenproblem
  | Time :     0.000 s
  Finished solving standard eigenproblem
  | Time :     0.001 s
  Finished back-transformation of eigenvectors
  | Time :     0.000 s

  Obtaining occupation numbers and electronic chemical potential using ELSI.
  | Note that, for insulating systems, the printed 'chemical potential' value is not uniquely defined.
  | It can be anywhere in the energy gap, as long as it correctly separates occupied and unoccupied states.
  | In systems with a gap, the physically relevant chemical potential is the VBM or HOMO.

  | Chemical potential (Fermi level):    -5.98487549 eV
  Writing Kohn-Sham eigenvalues.
  K-point:       1 at    0.000000    0.000000    0.000000 (in units of recip. lattice)

  State    Occupation    Eigenvalue [Ha]    Eigenvalue [eV]
      1       2.00000         -65.795431        -1790.38477
      2       2.00000         -65.795431        -1790.38477
      3       2.00000          -5.147227         -140.06316
      4       2.00000          -5.147061         -140.05865
      5       2.00000          -3.531777          -96.10455
      6       2.00000          -3.531777          -96.10455
      7       2.00000          -3.531777          -96.10455
      8       2.00000          -3.531377          -96.09365
      9       2.00000          -3.531377          -96.09365
     10       2.00000          -3.531377          -96.09365
     11       2.00000          -0.641693          -17.46137
     12       2.00000          -0.230977           -6.28520
     13       2.00000          -0.230977           -6.28520
     14       2.00000          -0.230977           -6.28520
     15       0.00000          -0.151450           -4.12117
     16       0.00000          -0.132808           -3.61388
     17       0.00000          -0.132808           -3.61388
     18       0.00000          -0.132808           -3.61388
     19       0.00000           0.064530            1.75596
     20       0.00000           0.064530            1.75596

  What follows are estimated values for band gap, HOMO, LUMO, etc.
  | They are estimated on a discrete k-point grid and not necessarily exact.
  | For converged numbers, create a DOS and/or band structure plot on a denser k-grid.

  Highest occupied state (VBM) at     -6.28519776 eV (relative to internal zero)
  | Occupation number:      2.00000000
  | K-point:       1 at    0.000000    0.000000    0.000000 (in units of recip. lattice)

  Lowest unoccupied state (CBM) at    -5.15552693 eV (relative to internal zero)
  | Occupation number:      0.00000000
  | K-point:       4 at    0.000000    0.500000    0.500000 (in units of recip. lattice)

  ESTIMATED overall HOMO-LUMO gap:      1.12967083 eV between HOMO at k-point 1 and LUMO at k-point 4
  | This appears to be an indirect band gap.
  | Smallest direct gap :      2.16402581 eV for k_point 1 at    0.000000    0.000000    0.000000 (in units of recip. lattice)
  The gap value is above 0.2 eV. Unless you are using a very sparse k-point grid,
  this system is most likely an insulator or a semiconductor.

  Total energy components:
  | Sum of eigenvalues            :        -329.29811725 Ha       -8960.65768360 eV
  | XC energy correction          :         -41.67595616 Ha       -1134.06046749 eV
  | XC potential correction       :          53.81988297 Ha        1464.51352929 eV
  | Free-atom electrostatic energy:        -263.44809454 Ha       -7168.78739619 eV
  | Hartree energy correction     :          -0.05449383 Ha          -1.48285263 eV
  | Entropy correction            :           0.00000000 Ha           0.00000000 eV
  | ---------------------------
  | Total energy                  :        -580.65677881 Ha      -15800.47487062 eV
  | Total energy, T -> 0          :        -580.65677881 Ha      -15800.47487062 eV  <-- do not rely on this value for anything but (periodic) metals
  | Electronic free energy        :        -580.65677881 Ha      -15800.47487062 eV

  Derived energy quantities:
  | Kinetic energy                :         582.25569588 Ha       15843.98361793 eV
  | Electrostatic energy          :       -1121.23651853 Ha      -30510.39802106 eV
  | Energy correction for multipole
  | error in Hartree potential    :          -0.00035829 Ha          -0.00974958 eV
  | Sum of eigenvalues per atom                           :       -4480.32884180 eV
  | Total energy (T->0) per atom                          :       -7900.23743531 eV  <-- do not rely on this value for anything but (periodic) metals
  | Electronic free energy per atom                       :       -7900.23743531 eV
  Evaluating new KS density using the density matrix
  Evaluating density matrix
  Time summed over all CPUs for getting density from density matrix: real work       18.541 s, elapsed       19.333 s
  Integration grid: deviation in total charge (<rho> - N_e) =   4.263256E-14

  Self-consistency convergence accuracy:
  | Change of charge density      :  0.1455E+00
  | Change of unmixed KS density  :  0.3261E+02
  | Change of sum of eigenvalues  :  0.1479E+01 eV
  | Change of total energy        :  0.2775E-01 eV


------------------------------------------------------------
  End self-consistency iteration #     1       :  max(cpu_time)    wall_clock(cpu1)
  | Time for this iteration                     :        7.370 s           7.371 s
  | Charge density update                       :        4.840 s           4.841 s
  | Density mixing & preconditioning            :        0.250 s           0.249 s
  | Hartree multipole update                    :        0.002 s           0.002 s
  | Hartree multipole summation                 :        0.217 s           0.217 s
  | Integration                                 :        2.056 s           2.056 s
  | Solution of K.-S. eqns.                     :        0.006 s           0.006 s
  | Total energy evaluation                     :        0.000 s           0.000 s

  Partial memory accounting:
  | Current value for overall tracked memory usage:
  |   Minimum:       10.097 MB (on task 3)
  |   Maximum:       10.156 MB (on task 0)
  |   Average:       10.126 MB
  | Peak value for overall tracked memory usage:
  |   Minimum:       29.013 MB (on task 0 after allocating gradient_basis_wave)
  |   Maximum:       29.775 MB (on task 1 after allocating gradient_basis_wave)
  |   Average:       29.453 MB
  | Largest tracked array allocation so far:
  |   Minimum:       12.617 MB (hamiltonian_shell on task 0)
  |   Maximum:       13.253 MB (hamiltonian_shell on task 1)
  |   Average:       12.994 MB
  Note:  These values currently only include a subset of arrays which are explicitly tracked.
  The "true" memory usage will be greater.
------------------------------------------------------------

------------------------------------------------------------
          Begin self-consistency iteration #    2

  Date     :  20231005, Time     :  161748.019
------------------------------------------------------------
  Pulay mixing of updated and previous charge densities.
  Available memory per node after mixing [GB]:     23.11
  Renormalizing the density to the exact electron count on the 3D integration grid.
  | Formal number of electrons (from input files) :      28.0000000000
  | Integrated number of electrons on 3D grid     :      27.9957658942
  | Charge integration error                      :      -0.0042341058
  | Normalization factor for density and gradient :       1.0001512409

  Evaluating partitioned Hartree potential by multipole expansion.
  | Original multipole sum: apparent total charge =   0.707403E-14
  | Sum of charges compensated after spline to logarithmic grids =   0.458548E-06
  | Analytical far-field extrapolation by fixed multipoles:
  | Hartree multipole sum: apparent total charge =   0.000000E+00
  Summing up the Hartree potential.
  Time summed over all CPUs for potential: real work        0.345 s, elapsed        0.363 s
  | RMS charge density error from multipole expansion :   0.621524E-02
  | Average real-space part of the electrostatic potential :      0.47935107 eV

  Integrating Hamiltonian matrix: batch-based integration.
  Time summed over all CPUs for integration: real work        9.954 s, elapsed       10.397 s

  Updating Kohn-Sham eigenvalues and eigenvectors using ELSI and the (modified) LAPACK eigensolver.
  Starting LAPACK eigensolver
  Finished Cholesky decomposition
  | Time :     0.000 s
  Finished transformation to standard eigenproblem
  | Time :     0.000 s
  Finished solving standard eigenproblem
  | Time :     0.001 s
  Finished back-transformation of eigenvectors
  | Time :     0.000 s

  Obtaining occupation numbers and electronic chemical potential using ELSI.
  | Note that, for insulating systems, the printed 'chemical potential' value is not uniquely defined.
  | It can be anywhere in the energy gap, as long as it correctly separates occupied and unoccupied states.
  | In systems with a gap, the physically relevant chemical potential is the VBM or HOMO.

  | Chemical potential (Fermi level):    -5.33461170 eV
  What follows are estimated values for band gap, HOMO, LUMO, etc.
  | They are estimated on a discrete k-point grid and not necessarily exact.
  | For converged numbers, create a DOS and/or band structure plot on a denser k-grid.

  Highest occupied state (VBM) at     -5.53917134 eV (relative to internal zero)
  | Occupation number:      2.00000000
  | K-point:       1 at    0.000000    0.000000    0.000000 (in units of recip. lattice)

  Lowest unoccupied state (CBM) at    -4.77513848 eV (relative to internal zero)
  | Occupation number:      0.00000000
  | K-point:       4 at    0.000000    0.500000    0.500000 (in units of recip. lattice)

  ESTIMATED overall HOMO-LUMO gap:      0.76403285 eV between HOMO at k-point 1 and LUMO at k-point 4
  | This appears to be an indirect band gap.
  | Smallest direct gap :      2.21561017 eV for k_point 1 at    0.000000    0.000000    0.000000 (in units of recip. lattice)
  The gap value is above 0.2 eV. Unless you are using a very sparse k-point grid,
  this system is most likely an insulator or a semiconductor.

  Checking to see if s.c.f. parameters should be adjusted.
  The system likely has a gap. Increased the default Pulay mixing parameter (charge_mix_param). Value:   0.200000 .
  Kept the default occupation width. Value:   0.010000 eV.

  Total energy components:
  | Sum of eigenvalues            :        -328.30897822 Ha       -8933.74184111 eV
  | XC energy correction          :         -41.77237370 Ha       -1136.68412221 eV
  | XC potential correction       :          53.94212378 Ha        1467.83987091 eV
  | Free-atom electrostatic energy:        -263.44809454 Ha       -7168.78739619 eV
  | Hartree energy correction     :          -1.06141287 Ha         -28.88251375 eV
  | Entropy correction            :          -0.00000000 Ha          -0.00000000 eV
  | ---------------------------
  | Total energy                  :        -580.64873554 Ha      -15800.25600235 eV
  | Total energy, T -> 0          :        -580.64873554 Ha      -15800.25600235 eV  <-- do not rely on this value for anything but (periodic) metals
  | Electronic free energy        :        -580.64873554 Ha      -15800.25600235 eV

  Derived energy quantities:
  | Kinetic energy                :         582.41733756 Ha       15848.38211193 eV
  | Electrostatic energy          :       -1121.29369941 Ha      -30511.95399207 eV
  | Energy correction for multipole
  | error in Hartree potential    :          -0.00700453 Ha          -0.19060291 eV
  | Sum of eigenvalues per atom                           :       -4466.87092055 eV
  | Total energy (T->0) per atom                          :       -7900.12800117 eV  <-- do not rely on this value for anything but (periodic) metals
  | Electronic free energy per atom                       :       -7900.12800117 eV
  Evaluating new KS density using the density matrix
  Evaluating density matrix
  Time summed over all CPUs for getting density from density matrix: real work       33.638 s, elapsed       35.139 s
  Integration grid: deviation in total charge (<rho> - N_e) =  -1.065814E-14

  Self-consistency convergence accuracy:
  | Change of charge density      :  0.1381E+00
  | Change of unmixed KS density  :  0.1089E-02
  | Change of sum of eigenvalues  :  0.2692E+02 eV
  | Change of total energy        :  0.2189E+00 eV


------------------------------------------------------------
  End self-consistency iteration #     2       :  max(cpu_time)    wall_clock(cpu1)
  | Time for this iteration                     :       12.112 s          12.114 s
  | Charge density update                       :        8.792 s           8.793 s
  | Density mixing & preconditioning            :        0.331 s           0.331 s
  | Hartree multipole update                    :        0.003 s           0.003 s
  | Hartree multipole summation                 :        0.371 s           0.371 s
  | Integration                                 :        2.607 s           2.607 s
  | Solution of K.-S. eqns.                     :        0.009 s           0.009 s
  | Total energy evaluation                     :        0.000 s           0.000 s

  Partial memory accounting:
  | Current value for overall tracked memory usage:
  |   Minimum:       10.097 MB (on task 3)
  |   Maximum:       10.157 MB (on task 0)
  |   Average:       10.127 MB
  | Peak value for overall tracked memory usage:
  |   Minimum:       29.014 MB (on task 0 after allocating gradient_basis_wave)
  |   Maximum:       29.776 MB (on task 1 after allocating gradient_basis_wave)
  |   Average:       29.453 MB
  | Largest tracked array allocation so far:
  |   Minimum:       12.617 MB (hamiltonian_shell on task 0)
  |   Maximum:       13.253 MB (hamiltonian_shell on task 1)
  |   Average:       12.994 MB
  Note:  These values currently only include a subset of arrays which are explicitly tracked.
  The "true" memory usage will be greater.
------------------------------------------------------------

------------------------------------------------------------
          Begin self-consistency iteration #    3

  Date     :  20231005, Time     :  161800.134
------------------------------------------------------------
  Pulay mixing of updated and previous charge densities.
  Available memory per node after mixing [GB]:     23.06
  Renormalizing the density to the exact electron count on the 3D integration grid.
  | Formal number of electrons (from input files) :      28.0000000000
  | Integrated number of electrons on 3D grid     :      27.9994270362
  | Charge integration error                      :      -0.0005729638
  | Normalization factor for density and gradient :       1.0000204634

  Evaluating partitioned Hartree potential by multipole expansion.
  | Original multipole sum: apparent total charge =  -0.215158E-13
  | Sum of charges compensated after spline to logarithmic grids =   0.464373E-06
  | Analytical far-field extrapolation by fixed multipoles:
  | Hartree multipole sum: apparent total charge =   0.000000E+00
  Summing up the Hartree potential.
  Time summed over all CPUs for potential: real work        0.736 s, elapsed        0.792 s
  | RMS charge density error from multipole expansion :   0.637829E-02
  | Average real-space part of the electrostatic potential :      0.46099793 eV

  Integrating Hamiltonian matrix: batch-based integration.
  Time summed over all CPUs for integration: real work       15.536 s, elapsed       15.913 s

  Updating Kohn-Sham eigenvalues and eigenvectors using ELSI and the (modified) LAPACK eigensolver.
  Starting LAPACK eigensolver
  Finished Cholesky decomposition
  | Time :     0.000 s
  Finished transformation to standard eigenproblem
  | Time :     0.000 s
  Finished solving standard eigenproblem
  | Time :     0.001 s
  Finished back-transformation of eigenvectors
  | Time :     0.000 s

  Obtaining occupation numbers and electronic chemical potential using ELSI.
  | Note that, for insulating systems, the printed 'chemical potential' value is not uniquely defined.
  | It can be anywhere in the energy gap, as long as it correctly separates occupied and unoccupied states.
  | In systems with a gap, the physically relevant chemical potential is the VBM or HOMO.

  | Chemical potential (Fermi level):    -5.37415729 eV
  What follows are estimated values for band gap, HOMO, LUMO, etc.
  | They are estimated on a discrete k-point grid and not necessarily exact.
  | For converged numbers, create a DOS and/or band structure plot on a denser k-grid.

  Highest occupied state (VBM) at     -5.58821918 eV (relative to internal zero)
  | Occupation number:      2.00000000
  | K-point:       1 at    0.000000    0.000000    0.000000 (in units of recip. lattice)

  Lowest unoccupied state (CBM) at    -4.78628411 eV (relative to internal zero)
  | Occupation number:      0.00000000
  | K-point:       4 at    0.000000    0.500000    0.500000 (in units of recip. lattice)

  ESTIMATED overall HOMO-LUMO gap:      0.80193507 eV between HOMO at k-point 1 and LUMO at k-point 4
  | This appears to be an indirect band gap.
  | Smallest direct gap :      2.20770222 eV for k_point 1 at    0.000000    0.000000    0.000000 (in units of recip. lattice)
  The gap value is above 0.2 eV. Unless you are using a very sparse k-point grid,
  this system is most likely an insulator or a semiconductor.

  Total energy components:
  | Sum of eigenvalues            :        -328.45461774 Ha       -8937.70489423 eV
  | XC energy correction          :         -41.75919824 Ha       -1136.32559976 eV
  | XC potential correction       :          53.92522057 Ha        1467.37991111 eV
  | Free-atom electrostatic energy:        -263.44809454 Ha       -7168.78739619 eV
  | Hartree energy correction     :          -0.91207791 Ha         -24.81890271 eV
  | Entropy correction            :          -0.00000000 Ha          -0.00000000 eV
  | ---------------------------
  | Total energy                  :        -580.64876786 Ha      -15800.25688178 eV
  | Total energy, T -> 0          :        -580.64876786 Ha      -15800.25688178 eV  <-- do not rely on this value for anything but (periodic) metals
  | Electronic free energy        :        -580.64876786 Ha      -15800.25688178 eV

  Derived energy quantities:
  | Kinetic energy                :         582.27796333 Ha       15844.58954611 eV
  | Electrostatic energy          :       -1121.16753295 Ha      -30508.52082813 eV
  | Energy correction for multipole
  | error in Hartree potential    :          -0.00712376 Ha          -0.19384729 eV
  | Sum of eigenvalues per atom                           :       -4468.85244712 eV
  | Total energy (T->0) per atom                          :       -7900.12844089 eV  <-- do not rely on this value for anything but (periodic) metals
  | Electronic free energy per atom                       :       -7900.12844089 eV
  Evaluating new KS density using the density matrix
  Evaluating density matrix
  Time summed over all CPUs for getting density from density matrix: real work       18.393 s, elapsed       18.587 s
  Integration grid: deviation in total charge (<rho> - N_e) =   2.486900E-14

  Self-consistency convergence accuracy:
  | Change of charge density      :  0.1972E-01
  | Change of unmixed KS density  :  0.1935E-01
  | Change of sum of eigenvalues  : -0.3963E+01 eV
  | Change of total energy        : -0.8794E-03 eV


------------------------------------------------------------
  End self-consistency iteration #     3       :  max(cpu_time)    wall_clock(cpu1)
  | Time for this iteration                     :       10.249 s          10.249 s
  | Charge density update                       :        4.653 s           4.653 s
  | Density mixing & preconditioning            :        0.789 s           0.789 s
  | Hartree multipole update                    :        0.005 s           0.005 s
  | Hartree multipole summation                 :        0.810 s           0.811 s
  | Integration                                 :        3.985 s           3.985 s
  | Solution of K.-S. eqns.                     :        0.006 s           0.006 s
  | Total energy evaluation                     :        0.000 s           0.000 s

  Partial memory accounting:
  | Current value for overall tracked memory usage:
  |   Minimum:       10.097 MB (on task 3)
  |   Maximum:       10.157 MB (on task 0)
  |   Average:       10.127 MB
  | Peak value for overall tracked memory usage:
  |   Minimum:       29.014 MB (on task 0 after allocating gradient_basis_wave)
  |   Maximum:       29.776 MB (on task 1 after allocating gradient_basis_wave)
  |   Average:       29.453 MB
  | Largest tracked array allocation so far:
  |   Minimum:       12.617 MB (hamiltonian_shell on task 0)
  |   Maximum:       13.253 MB (hamiltonian_shell on task 1)
  |   Average:       12.994 MB
  Note:  These values currently only include a subset of arrays which are explicitly tracked.
  The "true" memory usage will be greater.
------------------------------------------------------------

------------------------------------------------------------
          Begin self-consistency iteration #    4

  Date     :  20231005, Time     :  161810.383
------------------------------------------------------------
  Pulay mixing of updated and previous charge densities.
  Available memory per node after mixing [GB]:     23.08
  Renormalizing the density to the exact electron count on the 3D integration grid.
  | Formal number of electrons (from input files) :      28.0000000000
  | Integrated number of electrons on 3D grid     :      27.9989138701
  | Charge integration error                      :      -0.0010861299
  | Normalization factor for density and gradient :       1.0000387919

  Evaluating partitioned Hartree potential by multipole expansion.
  | Original multipole sum: apparent total charge =  -0.379621E-13
  | Sum of charges compensated after spline to logarithmic grids =   0.517341E-06
  | Analytical far-field extrapolation by fixed multipoles:
  | Hartree multipole sum: apparent total charge =   0.000000E+00
  Summing up the Hartree potential.
  Time summed over all CPUs for potential: real work        0.256 s, elapsed        0.260 s
  | RMS charge density error from multipole expansion :   0.722652E-02
  | Average real-space part of the electrostatic potential :      0.48157013 eV

  Integrating Hamiltonian matrix: batch-based integration.
  Time summed over all CPUs for integration: real work        8.204 s, elapsed        8.358 s

  Updating Kohn-Sham eigenvalues and eigenvectors using ELSI and the (modified) LAPACK eigensolver.
  Starting LAPACK eigensolver
  Finished Cholesky decomposition
  | Time :     0.000 s
  Finished transformation to standard eigenproblem
  | Time :     0.001 s
  Finished solving standard eigenproblem
  | Time :     0.000 s
  Finished back-transformation of eigenvectors
  | Time :     0.000 s

  Obtaining occupation numbers and electronic chemical potential using ELSI.
  | Note that, for insulating systems, the printed 'chemical potential' value is not uniquely defined.
  | It can be anywhere in the energy gap, as long as it correctly separates occupied and unoccupied states.
  | In systems with a gap, the physically relevant chemical potential is the VBM or HOMO.

  | Chemical potential (Fermi level):    -5.34839926 eV
  What follows are estimated values for band gap, HOMO, LUMO, etc.
  | They are estimated on a discrete k-point grid and not necessarily exact.
  | For converged numbers, create a DOS and/or band structure plot on a denser k-grid.

  Highest occupied state (VBM) at     -5.56981958 eV (relative to internal zero)
  | Occupation number:      2.00000000
  | K-point:       1 at    0.000000    0.000000    0.000000 (in units of recip. lattice)

  Lowest unoccupied state (CBM) at    -4.74383165 eV (relative to internal zero)
  | Occupation number:      0.00000000
  | K-point:       4 at    0.000000    0.500000    0.500000 (in units of recip. lattice)

  ESTIMATED overall HOMO-LUMO gap:      0.82598793 eV between HOMO at k-point 1 and LUMO at k-point 4
  | This appears to be an indirect band gap.
  | Smallest direct gap :      2.19998129 eV for k_point 1 at    0.000000    0.000000    0.000000 (in units of recip. lattice)
  The gap value is above 0.2 eV. Unless you are using a very sparse k-point grid,
  this system is most likely an insulator or a semiconductor.

  Total energy components:
  | Sum of eigenvalues            :        -328.55076637 Ha       -8940.32123152 eV
  | XC energy correction          :         -41.75431213 Ha       -1136.19264193 eV
  | XC potential correction       :          53.91853247 Ha        1467.19791862 eV
  | Free-atom electrostatic energy:        -263.44809454 Ha       -7168.78739619 eV
  | Hartree energy correction     :          -0.81417193 Ha         -22.15474543 eV
  | Entropy correction            :          -0.00000000 Ha          -0.00000000 eV
  | ---------------------------
  | Total energy                  :        -580.64881250 Ha      -15800.25809644 eV
  | Total energy, T -> 0          :        -580.64881250 Ha      -15800.25809644 eV  <-- do not rely on this value for anything but (periodic) metals
  | Electronic free energy        :        -580.64881250 Ha      -15800.25809644 eV

  Derived energy quantities:
  | Kinetic energy                :         582.10065430 Ha       15839.76472182 eV
  | Electrostatic energy          :       -1120.99515467 Ha      -30503.83017634 eV
  | Energy correction for multipole
  | error in Hartree potential    :          -0.00796421 Ha          -0.21671722 eV
  | Sum of eigenvalues per atom                           :       -4470.16061576 eV
  | Total energy (T->0) per atom                          :       -7900.12904822 eV  <-- do not rely on this value for anything but (periodic) metals
  | Electronic free energy per atom                       :       -7900.12904822 eV
  Evaluating new KS density using the density matrix
  Evaluating density matrix
  Time summed over all CPUs for getting density from density matrix: real work       20.078 s, elapsed       20.233 s
  Integration grid: deviation in total charge (<rho> - N_e) =  -7.105427E-15

  Self-consistency convergence accuracy:
  | Change of charge density      :  0.1413E-01
  | Change of unmixed KS density  :  0.2094E-02
  | Change of sum of eigenvalues  : -0.2616E+01 eV
  | Change of total energy        : -0.1215E-02 eV


------------------------------------------------------------
  End self-consistency iteration #     4       :  max(cpu_time)    wall_clock(cpu1)
  | Time for this iteration                     :        7.702 s           7.704 s
  | Charge density update                       :        5.063 s           5.064 s
  | Density mixing & preconditioning            :        0.268 s           0.269 s
  | Hartree multipole update                    :        0.002 s           0.002 s
  | Hartree multipole summation                 :        0.267 s           0.267 s
  | Integration                                 :        2.096 s           2.096 s
  | Solution of K.-S. eqns.                     :        0.005 s           0.006 s
  | Total energy evaluation                     :        0.000 s           0.000 s

  Partial memory accounting:
  | Current value for overall tracked memory usage:
  |   Minimum:       10.097 MB (on task 3)
  |   Maximum:       10.157 MB (on task 0)
  |   Average:       10.127 MB
  | Peak value for overall tracked memory usage:
  |   Minimum:       29.014 MB (on task 0 after allocating gradient_basis_wave)
  |   Maximum:       29.776 MB (on task 1 after allocating gradient_basis_wave)
  |   Average:       29.453 MB
  | Largest tracked array allocation so far:
  |   Minimum:       12.617 MB (hamiltonian_shell on task 0)
  |   Maximum:       13.253 MB (hamiltonian_shell on task 1)
  |   Average:       12.994 MB
  Note:  These values currently only include a subset of arrays which are explicitly tracked.
  The "true" memory usage will be greater.
------------------------------------------------------------

------------------------------------------------------------
          Begin self-consistency iteration #    5

  Date     :  20231005, Time     :  161818.087
------------------------------------------------------------
  Pulay mixing of updated and previous charge densities.
  Available memory per node after mixing [GB]:     23.08
  Renormalizing the density to the exact electron count on the 3D integration grid.
  | Formal number of electrons (from input files) :      28.0000000000
  | Integrated number of electrons on 3D grid     :      28.0006253386
  | Charge integration error                      :       0.0006253386
  | Normalization factor for density and gradient :       0.9999776670

  Evaluating partitioned Hartree potential by multipole expansion.
  | Original multipole sum: apparent total charge =  -0.696597E-13
  | Sum of charges compensated after spline to logarithmic grids =   0.513050E-06
  | Analytical far-field extrapolation by fixed multipoles:
  | Hartree multipole sum: apparent total charge =   0.000000E+00
  Summing up the Hartree potential.
  Time summed over all CPUs for potential: real work        0.248 s, elapsed        0.251 s
  | RMS charge density error from multipole expansion :   0.722404E-02
  | Average real-space part of the electrostatic potential :      0.46756211 eV

  Integrating Hamiltonian matrix: batch-based integration.
  Time summed over all CPUs for integration: real work        7.609 s, elapsed        7.744 s

  Updating Kohn-Sham eigenvalues and eigenvectors using ELSI and the (modified) LAPACK eigensolver.
  Starting LAPACK eigensolver
  Finished Cholesky decomposition
  | Time :     0.000 s
  Finished transformation to standard eigenproblem
  | Time :     0.000 s
  Finished solving standard eigenproblem
  | Time :     0.000 s
  Finished back-transformation of eigenvectors
  | Time :     0.000 s

  Obtaining occupation numbers and electronic chemical potential using ELSI.
  | Note that, for insulating systems, the printed 'chemical potential' value is not uniquely defined.
  | It can be anywhere in the energy gap, as long as it correctly separates occupied and unoccupied states.
  | In systems with a gap, the physically relevant chemical potential is the VBM or HOMO.

  | Chemical potential (Fermi level):    -5.35352918 eV
  What follows are estimated values for band gap, HOMO, LUMO, etc.
  | They are estimated on a discrete k-point grid and not necessarily exact.
  | For converged numbers, create a DOS and/or band structure plot on a denser k-grid.

  Highest occupied state (VBM) at     -5.57318187 eV (relative to internal zero)
  | Occupation number:      2.00000000
  | K-point:       1 at    0.000000    0.000000    0.000000 (in units of recip. lattice)

  Lowest unoccupied state (CBM) at    -4.75053124 eV (relative to internal zero)
  | Occupation number:      0.00000000
  | K-point:       4 at    0.000000    0.500000    0.500000 (in units of recip. lattice)

  ESTIMATED overall HOMO-LUMO gap:      0.82265063 eV between HOMO at k-point 1 and LUMO at k-point 4
  | This appears to be an indirect band gap.
  | Smallest direct gap :      2.19269863 eV for k_point 1 at    0.000000    0.000000    0.000000 (in units of recip. lattice)
  The gap value is above 0.2 eV. Unless you are using a very sparse k-point grid,
  this system is most likely an insulator or a semiconductor.

  Total energy components:
  | Sum of eigenvalues            :        -328.58756838 Ha       -8941.32266501 eV
  | XC energy correction          :         -41.75318486 Ha       -1136.16196739 eV
  | XC potential correction       :          53.91685528 Ha        1467.15227999 eV
  | Free-atom electrostatic energy:        -263.44809454 Ha       -7168.78739619 eV
  | Hartree energy correction     :          -0.77681437 Ha         -21.13819460 eV
  | Entropy correction            :          -0.00000000 Ha          -0.00000000 eV
  | ---------------------------
  | Total energy                  :        -580.64880687 Ha      -15800.25794319 eV
  | Total energy, T -> 0          :        -580.64880687 Ha      -15800.25794319 eV  <-- do not rely on this value for anything but (periodic) metals
  | Electronic free energy        :        -580.64880687 Ha      -15800.25794319 eV

  Derived energy quantities:
  | Kinetic energy                :         582.07536476 Ha       15839.07655839 eV
  | Electrostatic energy          :       -1120.97098676 Ha      -30503.17253419 eV
  | Energy correction for multipole
  | error in Hartree potential    :          -0.00778958 Ha          -0.21196524 eV
  | Sum of eigenvalues per atom                           :       -4470.66133250 eV
  | Total energy (T->0) per atom                          :       -7900.12897159 eV  <-- do not rely on this value for anything but (periodic) metals
  | Electronic free energy per atom                       :       -7900.12897159 eV
  Evaluating new KS density using the density matrix
  Evaluating density matrix
  Time summed over all CPUs for getting density from density matrix: real work       17.650 s, elapsed       17.911 s
  Integration grid: deviation in total charge (<rho> - N_e) =   2.131628E-14

  Self-consistency convergence accuracy:
  | Change of charge density      :  0.4118E-02
  | Change of unmixed KS density  :  0.1787E-02
  | Change of sum of eigenvalues  : -0.1001E+01 eV
  | Change of total energy        :  0.1533E-03 eV


------------------------------------------------------------
  End self-consistency iteration #     5       :  max(cpu_time)    wall_clock(cpu1)
  | Time for this iteration                     :        6.936 s           6.936 s
  | Charge density update                       :        4.483 s           4.483 s
  | Density mixing & preconditioning            :        0.243 s           0.243 s
  | Hartree multipole update                    :        0.002 s           0.002 s
  | Hartree multipole summation                 :        0.259 s           0.258 s
  | Integration                                 :        1.943 s           1.944 s
  | Solution of K.-S. eqns.                     :        0.006 s           0.006 s
  | Total energy evaluation                     :        0.000 s           0.000 s

  Partial memory accounting:
  | Current value for overall tracked memory usage:
  |   Minimum:       10.097 MB (on task 3)
  |   Maximum:       10.157 MB (on task 0)
  |   Average:       10.127 MB
  | Peak value for overall tracked memory usage:
  |   Minimum:       29.014 MB (on task 0 after allocating gradient_basis_wave)
  |   Maximum:       29.776 MB (on task 1 after allocating gradient_basis_wave)
  |   Average:       29.453 MB
  | Largest tracked array allocation so far:
  |   Minimum:       12.617 MB (hamiltonian_shell on task 0)
  |   Maximum:       13.253 MB (hamiltonian_shell on task 1)
  |   Average:       12.994 MB
  Note:  These values currently only include a subset of arrays which are explicitly tracked.
  The "true" memory usage will be greater.
------------------------------------------------------------

------------------------------------------------------------
          Begin self-consistency iteration #    6

  Date     :  20231005, Time     :  161825.023
------------------------------------------------------------
  Pulay mixing of updated and previous charge densities.
  Available memory per node after mixing [GB]:     23.08
  Renormalizing the density to the exact electron count on the 3D integration grid.
  | Formal number of electrons (from input files) :      28.0000000000
[...]
  Evaluating density matrix
  Evaluating density matrix
  Integration grid: deviation in total charge (<rho> - N_e) =  -7.105427E-15

  atomic forces [eV/Ang]:
  -----------------------
  atom #    1
   Hellmann-Feynman              : -0.326794E-05  0.141171E-05  0.189043E-05
   Ionic forces                  :  0.000000E+00  0.000000E+00  0.000000E+00
   Multipole                     :  0.424188E-06 -0.209189E-06 -0.236687E-06
   Hartree pot. SCF incomplete   :  0.183069E-06  0.359673E-07 -0.804628E-07
   Pulay + GGA                   : -0.399996E-05  0.201918E-05  0.222645E-05
   ----------------------------------------------------------------
   Total forces(   1)            : -0.666064E-05  0.325766E-05  0.379973E-05
  atom #    2
   Hellmann-Feynman              :  0.326593E-05 -0.141875E-05 -0.189759E-05
   Ionic forces                  :  0.000000E+00  0.000000E+00  0.000000E+00
   Multipole                     : -0.424188E-06  0.209189E-06  0.236687E-06
   Hartree pot. SCF incomplete   : -0.183456E-06 -0.364348E-07  0.804518E-07
   Pulay + GGA                   :  0.398914E-05 -0.199801E-05 -0.221234E-05
   ----------------------------------------------------------------
   Total forces(   2)            :  0.664743E-05 -0.324400E-05 -0.379279E-05


  Analytical stress tensor components [eV]         xx                  yy                  zz                  xy                  xz                  yz
  -----------------------------------------------------------------------------------------------------------------------------------------------------------
    Nuclear Hellmann-Feynman      :    -0.2004897154E+02   -0.2004858648E+02   -0.2004858648E+02    0.8152664460E-05    0.7005354883E-05   -0.1418352137E-04
    Multipole Hellmann-Feynman    :    -0.3195773660E+02   -0.3195773919E+02   -0.3195773918E+02    0.1518934905E-04    0.1311199457E-04   -0.2668560485E-04
    On-site Multipole corrections :    -0.3386778723E-01   -0.3386778682E-01   -0.3386778688E-01    0.1677540061E-09    0.1423045077E-09   -0.2684644143E-09
    Strain deriv. of the orbitals :     0.5203882203E+02    0.5203844066E+02    0.5203844064E+02   -0.2053276913E-04   -0.1760007895E-04    0.3577001014E-04
  -----------------------------------------------------------------------------------------------------------------------------------------------------------
  Sum of all contributions        :    -0.1753891176E-02   -0.1752791499E-02   -0.1752802191E-02    0.2809412133E-05    0.2517412808E-05   -0.5099384546E-05

  +-------------------------------------------------------------------+
  |              Analytical stress tensor - Symmetrized               |
  |                  Cartesian components [eV/A**3]                   |
  +-------------------------------------------------------------------+
  |                x                y                z                |
  |                                                                   |
  |  x        -0.00003961       0.00000006       0.00000006           |
  |  y         0.00000006      -0.00003959      -0.00000012           |
  |  z         0.00000006      -0.00000012      -0.00003959           |
  |                                                                   |
  |  Pressure:       0.00003959   [eV/A**3]                           |
  |                                                                   |
  +-------------------------------------------------------------------+

 * Warning: Stress tensor is anisotropic. Be aware that pressure is an isotropic quantity.


  Self-consistency convergence accuracy:
  | Change of charge density      :  0.9913E-08
  | Change of unmixed KS density  :  0.1607E-07
  | Change of sum of eigenvalues  :  0.4492E-05 eV
  | Change of total energy        :  0.6497E-09 eV
  | Change of forces              :  0.1677E-06 eV/A

  Writing Kohn-Sham eigenvalues.
  K-point:       1 at    0.000000    0.000000    0.000000 (in units of recip. lattice)

  State    Occupation    Eigenvalue [Ha]    Eigenvalue [eV]
      1       2.00000         -65.766118        -1789.58712
      2       2.00000         -65.766118        -1789.58712
      3       2.00000          -5.122960         -139.40284
      4       2.00000          -5.122790         -139.39820
      5       2.00000          -3.506764          -95.42391
      6       2.00000          -3.506764          -95.42391
      7       2.00000          -3.506764          -95.42391
      8       2.00000          -3.506357          -95.41284
      9       2.00000          -3.506357          -95.41284
     10       2.00000          -3.506357          -95.41284
     11       2.00000          -0.622642          -16.94296
     12       2.00000          -0.205543           -5.59310
     13       2.00000          -0.205543           -5.59310
     14       2.00000          -0.205542           -5.59309
     15       0.00000          -0.121985           -3.31939
     16       0.00000          -0.117167           -3.18827
     17       0.00000          -0.117167           -3.18827
     18       0.00000          -0.117167           -3.18827
     19       0.00000           0.079775            2.17079
     20       0.00000           0.079775            2.17079

  What follows are estimated values for band gap, HOMO, LUMO, etc.
  | They are estimated on a discrete k-point grid and not necessarily exact.
  | For converged numbers, create a DOS and/or band structure plot on a denser k-grid.

  Highest occupied state (VBM) at     -5.59309436 eV (relative to internal zero)
  | Occupation number:      2.00000000
  | K-point:       1 at    0.000000    0.000000    0.000000 (in units of recip. lattice)

  Lowest unoccupied state (CBM) at    -4.77916752 eV (relative to internal zero)
  | Occupation number:      0.00000000
  | K-point:       7 at    0.500000    0.500000    0.000000 (in units of recip. lattice)

  ESTIMATED overall HOMO-LUMO gap:      0.81392684 eV between HOMO at k-point 1 and LUMO at k-point 7
  | This appears to be an indirect band gap.
  | Smallest direct gap :      2.27370530 eV for k_point 1 at    0.000000    0.000000    0.000000 (in units of recip. lattice)
  The gap value is above 0.2 eV. Unless you are using a very sparse k-point grid,
  this system is most likely an insulator or a semiconductor.

  | Chemical Potential                          :    -5.35046344 eV
  | Note that, for insulating systems, the printed 'chemical potential' value is not uniquely defined.
  | It can be anywhere in the energy gap, as long as it correctly separates occupied and unoccupied states.
  | In systems with a gap, the physically relevant chemical potential is the VBM or HOMO.

  Self-consistency cycle converged.


------------------------------------------------------------
  End self-consistency iteration #     8       :  max(cpu_time)    wall_clock(cpu1)
  | Time for this iteration                     :      168.010 s         168.031 s
  | Charge density & force component update     :      159.876 s         159.897 s
  | Density mixing                              :        0.003 s           0.004 s
  | Hartree multipole update                    :        0.002 s           0.002 s
  | Hartree multipole summation                 :        2.060 s           2.060 s
  | Hartree pot. SCF incomplete forces          :        3.433 s           3.437 s
  | Integration                                 :        2.623 s           2.623 s
  | Solution of K.-S. eqns.                     :        0.008 s           0.008 s
  | Total energy evaluation                     :        0.000 s           0.000 s

  Partial memory accounting:
  | Current value for overall tracked memory usage:
  |   Minimum:       10.203 MB (on task 0)
  |   Maximum:       10.234 MB (on task 3)
  |   Average:       10.222 MB
  | Peak value for overall tracked memory usage:
  |   Minimum:       45.700 MB (on task 1 after allocating d_wave)
  |   Maximum:       46.505 MB (on task 0 after allocating d_wave)
  |   Average:       46.073 MB
  | Largest tracked array allocation so far:
  |   Minimum:       13.033 MB (hamiltonian_shell on task 3)
  |   Maximum:       13.761 MB (hamiltonian_shell on task 0)
  |   Average:       13.280 MB
  Note:  These values currently only include a subset of arrays which are explicitly tracked.
  The "true" memory usage will be greater.
------------------------------------------------------------
  Removing unitary transformations (pure translations, rotations) from forces on atoms.
  Atomic forces before filtering:
  | Net force on center of mass :  -0.132106E-07  0.136603E-07  0.693480E-08 eV/A
  Atomic forces after filtering:
  | Net force on center of mass :  -0.136113E-20  0.000000E+00  0.680565E-21 eV/A

  Energy and forces in a compact form:
  | Total energy uncorrected      :         -0.158002585556951E+05 eV
  | Total energy corrected        :         -0.158002585556951E+05 eV  <-- do not rely on this value for anything but (periodic) metals
  | Electronic free energy        :         -0.158002585556951E+05 eV
  Total atomic forces (unitary forces cleaned) [eV/Ang]:
  |    1         -0.665403217217440E-05          0.325083102416216E-05          0.379626017574618E-05
  |    2          0.665403217217440E-05         -0.325083102416216E-05         -0.379626017574618E-05

  ------------------------------------ 
  Start decomposition of the XC Energy 
  ------------------------------------ 
  X and C from original XC functional choice 
  Hartree-Fock Energy :          0.000000000 Ha              0.000000000 eV
  X Energy            :        -40.674497463 Ha          -1106.809389818 eV
  C Energy            :         -1.082434377 Ha            -29.454538034 eV
  XC Energy w/o HF    :        -41.756931840 Ha          -1136.263927852 eV
  Total XC Energy     :        -41.756931840 Ha          -1136.263927852 eV
  ------------------------------------ 
  LDA X and C from self-consistent density 
  X Energy LDA        :        -37.605322502 Ha          -1023.292889841 eV
  C Energy LDA        :         -2.144422908 Ha            -58.352716288 eV
  ------------------------------------ 
  End decomposition of the XC Energy 
  ------------------------------------ 

------------------------------------------------------------
  Relaxation / MD: End force evaluation.       :  max(cpu_time)    wall_clock(cpu1)
  | Time for this force evaluation              :      253.310 s         253.478 s

------------------------------------------------------------
  Geometry optimization: Attempting to predict improved coordinates.

  +-------------------------------------------------------------------+
  | Generalized derivatives on lattice vectors [eV/A]                 |
  +-------------------------------------------------------------------+
  |lattice_vector       0.00031326      -0.00031352      -0.00031347  |
  |lattice_vector      -0.00031236       0.00031171      -0.00031076  |
  |lattice_vector      -0.00031226      -0.00031071       0.00031166  |
  +-------------------------------------------------------------------+
  | Forces on lattice vectors cleaned from atomic contributions [eV/A]|
  +-------------------------------------------------------------------+
  |lattice_vector      -0.00031326       0.00031352       0.00031347  |
  |lattice_vector       0.00031236      -0.00031171       0.00031076  |
  |lattice_vector       0.00031226       0.00031071      -0.00031166  |
  +-------------------------------------------------------------------+
  Removing unitary transformations (pure translations, rotations) from forces on atoms.
  Atomic forces before filtering:
  | Net force on center of mass :  -0.136113E-20  0.000000E+00  0.680565E-21 eV/A
  Atomic forces after filtering:
  | Net force on center of mass :  -0.136113E-20  0.000000E+00 -0.680565E-21 eV/A
  Net remaining forces (excluding translations, rotations) in present geometry:
  || Forces on atoms   || =   0.665403E-05 eV/A.
  || Forces on lattice || =   0.313525E-03 eV/A^3.
  Maximum force component is  0.313525E-03 eV/A.
  Present geometry is converged.

------------------------------------------------------------
  Final atomic structure:
                         x [A]             y [A]             z [A]
  lattice_vector        -0.00000040        2.80791457        2.80791457
  lattice_vector         2.80791518        0.00000020        2.80791498
  lattice_vector         2.80791518        2.80791499        0.00000020

            atom         0.00000021       -0.00000010       -0.00000012  Si
            atom         1.40395729        1.40395754        1.40395755  Si

  Fractional coordinates:
                         L1                L2                L3
       atom_frac        -0.00000008        0.00000003        0.00000004  Si
       atom_frac         0.25000007        0.24999997        0.24999996  Si
------------------------------------------------------------

------------------------------------------------------------------------------
  Final output of selected total energy values:

  The following output summarizes some interesting total energy values
  at the end of a run (AFTER all relaxation, molecular dynamics, etc.).

  | Total energy of the DFT / Hartree-Fock s.c.f. calculation      :         -15800.258555695 eV
  | Final zero-broadening corrected energy (caution - metals only) :         -15800.258555695 eV
  | For reference only, the value of 1 Hartree used in FHI-aims is :             27.211384500 eV
  | For reference only, the overall average (free atom contribution
  | + realspace contribution) of the electrostatic potential after
  | s.c.f. convergence is                                          :            -11.758135970 eV

  Before relying on these values, please be sure to understand exactly which
  total energy value is referred to by a given number. Different objects may
  all carry the same name 'total energy'. Definitions:

  Total energy of the DFT / Hartree-Fock s.c.f. calculation:
  | Note that this energy does not include ANY quantities calculated after the
  | s.c.f. cycle, in particular not ANY RPA, MP2, etc. many-body perturbation terms.

  Final zero-broadening corrected energy:
  | For metallic systems only, a broadening of the occupation numbers at the Fermi
  | level can be extrapolated back to zero broadening by an electron-gas inspired
  | formula. For all systems that are not real metals, this value can be
  | meaningless and should be avoided.

------------------------------------------------------------------------------
  Methods described in the following list of references were used in this FHI-aims run.
  If you publish the results, please make sure to cite these reference if they apply.
  FHI-aims is an academic code, and for our developers (often, Ph.D. students
  and postdocs), scientific credit in the community is essential.
  Thank you for helping us!

  For any use of FHI-aims, please cite:

    Volker Blum, Ralf Gehrke, Felix Hanke, Paula Havu, Ville Havu,
    Xinguo Ren, Karsten Reuter, and Matthias Scheffler
    'Ab initio molecular simulations with numeric atom-centered orbitals'
    Computer Physics Communications 180, 2175-2196 (2009)
    http://doi.org/10.1016/j.cpc.2009.06.022


  For the analytical stress tensor used in your run, please cite:

    Franz Knuth, Christian Carbogno, Viktor Atalla, Volker Blum, Matthias Scheffler
    'All-electron formalism for total energy strain derivatives and
    stress tensor components for numeric atom-centered orbitals'
    Computer Physics Communications 190, 33-50 (2015).
    http://doi.org/10.1016/j.cpc.2015.01.003


  The provided symmetry information was generated with SPGlib:

    Atsushi Togo, Yusuke Seto, Dimitar Pashov
    SPGlib 1.7.3 obtained from http://spglib.sourceforge.net
    Copyright (C) 2008 Atsushi Togo


  The ELSI infrastructure was used in your run to solve the Kohn-Sham electronic structure.
  Please check out http://elsi-interchange.org to learn more.
  If scalability is important for your project, please acknowledge ELSI by citing:

    V. W-z. Yu, F. Corsetti, A. Garcia, W. P. Huhn, M. Jacquelin, W. Jia,
    B. Lange, L. Lin, J. Lu, W. Mi, A. Seifitokaldani, A. Vazquez-Mayagoitia,
    C. Yang, H. Yang, and V. Blum
    'ELSI: A unified software interface for Kohn-Sham electronic structure solvers'
    Computer Physics Communications 222, 267-285 (2018).
    http://doi.org/10.1016/j.cpc.2017.09.007


  For the real-space grid partitioning and parallelization used in this calculation, please cite:

    Ville Havu, Volker Blum, Paula Havu, and Matthias Scheffler,
    'Efficient O(N) integration for all-electron electronic structure calculation'
    'using numerically tabulated basis functions'
    Journal of Computational Physics 228, 8367-8379 (2009).
    http://doi.org/10.1016/j.jcp.2009.08.008

  Of course, there are many other important community references, e.g., those cited in the
  above references. Our list is limited to references that describe implementations in the
  FHI-aims code. The reason is purely practical (length of this list) - please credit others as well.

------------------------------------------------------------
          Leaving FHI-aims.
          Date     :  20231005, Time     :  163011.238

          Computational steps:
          | Number of self-consistency cycles          :           29
          | Number of SCF (re)initializations          :            3
          | Number of relaxation steps                 :            2

          Detailed time accounting                     :  max(cpu_time)    wall_clock(cpu1)
          | Total time                                  :      762.376 s         762.475 s
          | Preparation time                            :        0.167 s           0.167 s
          | Boundary condition initalization            :        0.138 s           0.128 s
          | Grid partitioning                           :        0.258 s           0.258 s
          | Preloading free-atom quantities on grid     :        1.905 s           1.905 s
          | Free-atom superposition energy              :        0.199 s           0.198 s
          | Total time for integrations                 :       91.035 s          91.044 s
          | Total time for solution of K.-S. equations  :        0.257 s           0.258 s
          | Total time for EV reorthonormalization      :        0.005 s           0.005 s
          | Total time for density & force components   :      613.330 s         613.406 s
          | Total time for mixing & preconditioning     :        8.418 s           8.421 s
          | Total time for Hartree multipole update     :        0.081 s           0.081 s
          | Total time for Hartree multipole sum        :       27.746 s          27.748 s
          | Total time for total energy evaluation      :        0.003 s           0.002 s
          | Total time NSC force correction             :       18.687 s          18.693 s
          | Total time for scaled ZORA corrections      :        0.000 s           0.000 s

          Partial memory accounting:
          | Residual value for overall tracked memory usage across tasks:     0.000000 MB (should be 0.000000 MB)
          | Peak values for overall tracked memory usage:
          |   Minimum:       45.700 MB (on task 1 after allocating d_wave)
          |   Maximum:       46.505 MB (on task 0 after allocating d_wave)
          |   Average:       46.073 MB
          | Largest tracked array allocation:
          |   Minimum:       13.033 MB (hamiltonian_shell on task 3)
          |   Maximum:       13.761 MB (hamiltonian_shell on task 0)
          |   Average:       13.280 MB
          Note:  These values currently only include a subset of arrays which are explicitly tracked.
          The "true" memory usage will be greater.

          Have a nice day.
------------------------------------------------------------
