------------------------------------------------------------
          Invoking FHI-aims ...

          When using FHI-aims, please cite the following reference:

            Volker Blum, Ralf Gehrke, Felix Hanke, Paula Havu,
            Ville Havu, Xinguo Ren, Karsten Reuter, and Matthias Scheffler,
            'Ab Initio Molecular Simulations with Numeric Atom-Centered Orbitals',
            Computer Physics Communications 180, 2175-2196 (2009)

          In addition, many other developments in FHI-aims are likely important for
          your particular application. A partial list of references is given at the end of
          this file. Thank you for giving credit to the authors of these developments.

          For any questions about FHI-aims, please visit our slack channel at

            https://fhi-aims.slack.com

          and our main development and support site at

            https://aims-git.rz-berlin.mpg.de .

          The latter site, in particular, has a wiki to collect information, as well
          as an issue tracker to log discussions, suggest improvements, and report issues
          or bugs. https://aims-git.rz-berlin.mpg.de is also the main development site
          of the project and all new and updated code versions can be obtained there.
          Please send an email to aims-coordinators@fhi-berlin.mpg.de and we will add
          you to these sites. They are for you and everyone is welcome there.

------------------------------------------------------------



  Date     :  20231005, Time     :  083331.787
  Time zero on CPU 1             :   0.187967600000000E+01  s.
  Internal wall clock time zero  :           465726811.787  s.

  FHI-aims created a unique identifier for this run for later identification
  aims_uuid : 8A55838D-DD47-4976-AE78-8F7759574470

  Build configuration of the current instance of FHI-aims
  -------------------------------------------------------
  FHI-aims version      : 220309
  Commit number         : 232d594a3
  CMake host system     : Linux-5.4.0-146-generic
  CMake version         : 3.26.3
  Fortran compiler      : /home/tpurcell/intel/oneapi/mpi/2021.6.0/bin/mpiifort (Intel) version 2021.6.0.20220226
  Fortran compiler flags: -O3 -ip -fp-model precise
  C compiler            : /home/tpurcell/intel/oneapi/compiler/2022.1.0/linux/bin/intel64/icc (Intel) version 2021.6.0.20220226
  C compiler flags      : -m64 -O3 -ip -fp-model precise -std=gnu99
  Using MPI
  Using ScaLAPACK
  Using LibXC
  Using i-PI
  Using RLSY
  Linking against: /home/tpurcell/intel/oneapi/mkl/2022.1.0/lib/intel64/libmkl_scalapack_lp64.so
                   /home/tpurcell/intel/oneapi/mkl/2022.1.0/lib/intel64/libmkl_blacs_intelmpi_lp64.so
                   /home/tpurcell/intel/oneapi/mkl/2022.1.0/lib/intel64/libmkl_intel_lp64.so
                   /home/tpurcell/intel/oneapi/mkl/2022.1.0/lib/intel64/libmkl_sequential.so
                   /home/tpurcell/intel/oneapi/mkl/2022.1.0/lib/intel64/libmkl_core.so

  Using        2 parallel tasks.
  Task        0 on host nomadbook-7 reporting.
  Task        1 on host nomadbook-7 reporting.

  Performing system and environment tests:
  *** Environment variable OMP_NUM_THREADS is set to 
  2
  *** For performance reasons you might want to set it to 1
  | Checking for ScaLAPACK...
  | Testing pdtran()...
  | All pdtran() tests passed.

  Obtaining array dimensions for all initial allocations:
  
  -----------------------------------------------------------------------
  Parsing control.in (first pass over file, find array dimensions only).
  The contents of control.in will be repeated verbatim below
  unless switched off by setting 'verbatim_writeout .false.' .
  in the first line of control.in .
  -----------------------------------------------------------------------
  
  #===============================================================================
  # Created using the Atomic Simulation Environment (ASE)
  
  # Thu Oct  5 08:33:29 2023
  
  #===============================================================================
  xc                                 pbe
  relativistic                       atomic_zora scalar
  relax_geometry                     trm 1.000000e-03
  relax_unit_cell                    full
  k_grid                             12 12 12
  #===============================================================================
  
  ################################################################################
  #
  #  FHI-aims code project
  #  VB, Fritz-Haber Institut, 2009
  #
  #  Suggested "light" defaults for Si atom (to be pasted into control.in file)
  #  Be sure to double-check any results obtained with these settings for post-processing,
  #  e.g., with the "tight" defaults and larger basis sets.
  #
  #  2020/09/08 Added f function to "light" after reinspection of Delta test outcomes.
  #             This was done for all of Al-Cl and is a tricky decision since it makes
  #             "light" calculations measurably more expensive for these elements.
  #             Nevertheless, outcomes for P, S, Cl (and to some extent, Si) appear
  #             to justify this choice.
  #
  ################################################################################
    species        Si
  #     global species definitions
      nucleus             14
      mass                28.0855
  #
      l_hartree           4
  #
      cut_pot             3.5          1.5  1.0
      basis_dep_cutoff    1e-4
  #
      radial_base         42 5.0
      radial_multiplier   1
      angular_grids       specified
        division   0.5866   50
        division   0.9616  110
        division   1.2249  194
        division   1.3795  302
  #      division   1.4810  434
  #      division   1.5529  590
  #      division   1.6284  770
  #      division   1.7077  974
  #      division   2.4068 1202
  #      outer_grid   974
        outer_grid 302
  ################################################################################
  #
  #  Definition of "minimal" basis
  #
  ################################################################################
  #     valence basis states
      valence      3  s   2.
      valence      3  p   2.
  #     ion occupancy
      ion_occ      3  s   1.
      ion_occ      3  p   1.
  ################################################################################
  #
  #  Suggested additional basis functions. For production calculations,
  #  uncomment them one after another (the most important basis functions are
  #  listed first).
  #
  #  Constructed for dimers: 1.75 A, 2.0 A, 2.25 A, 2.75 A, 3.75 A
  #
  ################################################################################
  #  "First tier" - improvements: -571.96 meV to -37.03 meV
       hydro 3 d 4.2
       hydro 2 p 1.4
       hydro 4 f 6.2
       ionic 3 s auto
  #  "Second tier" - improvements: -16.76 meV to -3.03 meV
  #     hydro 3 d 9
  #     hydro 5 g 9.4
  #     hydro 4 p 4
  #     hydro 1 s 0.65
  #  "Third tier" - improvements: -3.89 meV to -0.60 meV
  #     ionic 3 d auto
  #     hydro 3 s 2.6
  #     hydro 4 f 8.4
  #     hydro 3 d 3.4
  #     hydro 3 p 7.8
  #  "Fourth tier" - improvements: -0.33 meV to -0.11 meV
  #     hydro 2 p 1.6
  #     hydro 5 g 10.8
  #     hydro 5 f 11.2
  #     hydro 3 d 1
  #     hydro 4 s 4.5
  #  Further basis functions that fell out of the optimization - noise
  #  level... < -0.08 meV
  #     hydro 4 d 6.6
  #     hydro 5 g 16.4
  #     hydro 4 d 9
  
  -----------------------------------------------------------------------
  Completed first pass over input file control.in .
  -----------------------------------------------------------------------
  
  
  -----------------------------------------------------------------------
  Parsing geometry.in (first pass over file, find array dimensions only).
  The contents of geometry.in will be repeated verbatim below
  unless switched off by setting 'verbatim_writeout .false.' .
  in the first line of geometry.in .
  -----------------------------------------------------------------------
  
  #===============================================================================
  # Created using the Atomic Simulation Environment (ASE)
  
  # Thu Oct  5 08:33:29 2023
  
  #=======================================================
  lattice_vector 0.0000000000000000 2.7149999999999999 2.7149999999999999
  lattice_vector 2.7149999999999999 0.0000000000000000 2.7149999999999999
  lattice_vector 2.7149999999999999 2.7149999999999999 0.0000000000000000
  atom_frac 0.0000000000000000 0.0000000000000000 -0.0000000000000000 Si
  atom_frac 0.2500000000000000 0.2500000000000000 0.2500000000000000 Si
  
  -----------------------------------------------------------------------
  Completed first pass over input file geometry.in .
  -----------------------------------------------------------------------
  

  Basic array size parameters:
  | Number of species                 :        1
  | Number of atoms                   :        2
  | Number of lattice vectors         :        3
  | Max. basis fn. angular momentum   :        3
  | Max. atomic/ionic basis occupied n:        3
  | Max. number of basis fn. types    :        3
  | Max. radial fns per species/type  :        5
  | Max. logarithmic grid size        :     1346
  | Max. radial integration grid size :       42
  | Max. angular integration grid size:      302
  | Max. angular grid division number :        8
  | Radial grid for Hartree potential :     1346
  | Number of spin channels           :        1

------------------------------------------------------------
          Reading file control.in.
------------------------------------------------------------
  XC: Using PBE gradient-corrected functionals.
  Scalar relativistic treatment of kinetic energy: on-site free-atom approximation to ZORA.
  Geometry relaxation: Modified BFGS - TRM (trust radius method) for lattice optimization.
  Convergence accuracy for geometry relaxation: Maximum force <   0.100000E-02 eV/A.
  Found k-point grid:        12        12        12
 
  Reading configuration options for species Si                  .
  | Found nuclear charge :  14.0000
  | Found atomic mass :    28.0855000000000      amu
  | Found l_max for Hartree potential  :   4
  | Found cutoff potl. onset [A], width [A], scale factor :    3.50000    1.50000    1.00000
  | Threshold for basis-dependent cutoff potential is   0.100000E-03
  | Found data for basic radial integration grid :    42 points, outermost radius =    5.000 A
  | Found multiplier for basic radial grid :   1
  | Found angular grid specification: user-specified.
  | Specified grid contains     5 separate shells.
  | Check grid settings after all constraints further below.
  | Found free-atom valence shell :  3 s   2.000
  | Found free-atom valence shell :  3 p   2.000
  | Found free-ion valence shell :  3 s   1.000
  | Found free-ion valence shell :  3 p   1.000
  | Found hydrogenic basis function :  3 d   4.200
  | Found hydrogenic basis function :  2 p   1.400
  | Found hydrogenic basis function :  4 f   6.200
  | Found ionic basis function :  3 s , default cutoff radius.
  Species Si                  : Missing cutoff potential type.
  Defaulting to exp(1/x)/(1-x)^2 type cutoff potential.
  Species Si: No 'logarithmic' tag. Using default grid for free atom:
  | Default logarithmic grid data [bohr] : 0.1000E-03 0.1000E+03 0.1012E+01
  | Will include ionic basis functions of  2.0-fold positive Si                   ion.
  Species Si: On-site basis accuracy parameter (for Gram-Schmidt orthonormalisation) not specified.
  Using default value basis_acc =  0.1000000E-03.
  Species Si                  : Using default innermost maximum threshold i_radial=  2 for radial functions.
  Species Si                  : Default cutoff onset for free atom density etc. : 0.35000000E+01 AA.
  Species Si                  : Basic radial grid will be enhanced according to radial_multiplier =   1, to contain    42 grid points.
 
  Finished reading input file 'control.in'.
 
------------------------------------------------------------


------------------------------------------------------------
          Reading geometry description geometry.in.
------------------------------------------------------------
  | The smallest distance between any two atoms is         2.35125897 AA.
  | The first atom of this pair is atom number                      1 .
  | The second atom of this pair is atom number                     2 .
  | Wigner-Seitz cell of the first atom image           0     1     0 .
  | (The Wigner-Seitz cell of the second atom is 0 0 0  by definition.)

  Symmetry information by spglib:
  | Precision set to  0.1E-04
  | Number of Operations  : 48
  | Space group           : 227
  | International         : Fd-3m
  | Schoenflies           : Oh^7
  Input structure read successfully.
  The structure contains        2 atoms,  and a total of         28.000 electrons.

  Input geometry:
  | Unit cell:
  |        0.00000000        2.71500000        2.71500000
  |        2.71500000        0.00000000        2.71500000
  |        2.71500000        2.71500000        0.00000000
  | Atomic structure:
  |       Atom                x [A]            y [A]            z [A]
  |    1: Species Si            0.00000000        0.00000000        0.00000000
  |    2: Species Si            1.35750000        1.35750000        1.35750000

  Lattice parameters for 3D lattice (in Angstroms) :     3.839590    3.839590    3.839590
  Angle(s) between unit vectors (in degrees)       :    60.000000   60.000000   60.000000


  Quantities derived from the lattice vectors:
  | Reciprocal lattice vector 1: -1.157124  1.157124  1.157124
  | Reciprocal lattice vector 2:  1.157124 -1.157124  1.157124
  | Reciprocal lattice vector 3:  1.157124  1.157124 -1.157124
  | Unit cell volume                               :   0.400258E+02  A^3

  Fractional coordinates:
                         L1                L2                L3
       atom_frac         0.00000000        0.00000000        0.00000000  Si
       atom_frac         0.25000000        0.25000000        0.25000000  Si

 
  Finished reading input file 'control.in'.
 

------------------------------------------------------------
          Reading geometry description geometry.in.
------------------------------------------------------------
 
  Consistency checks for stacksize environment parameter are next.
 
  | Maximum stacksize for task 0: unlimited
  | Maximum stacksize for task 1: unlimited
  | Current stacksize for task 0: unlimited
  | Current stacksize for task 1: unlimited
 
  Consistency checks for the contents of control.in are next.
 
  MPI_IN_PLACE appears to work with this MPI implementation.
  | Keeping use_mpi_in_place .true. (see manual).
  Target number of points in a grid batch is not set. Defaulting to  100
  Method for grid partitioning is not set. Defaulting to parallel hash+maxmin partitioning.
  Batch size limit is not set. Defaulting to    200
  By default, will store active basis functions for each batch.
  If in need of memory, prune_basis_once .false. can be used to disable this option.
  communication_type for Hartree potential was not specified.
  Defaulting to calc_hartree .
  Defaulting to Pulay charge density mixer.
  Pulay mixer: Number of relevant iterations not set.
  Defaulting to    8 iterations.
  Pulay mixer: Number of initial linear mixing iterations not set.
  Defaulting to    0 iterations.
  Work space size for distributed Hartree potential not set.
  Defaulting to   0.200000E+03 MB.
  Mixing parameter for charge density mixing has not been set.
  Using default: charge_mix_param =     0.0500.
  The mixing parameter will be adjusted in iteration number     2 of the first full s.c.f. cycle only.
  Algorithm-dependent basis array size parameters:
  | n_max_pulay                         :        8
  Maximum number of self-consistency iterations not provided.
  Presetting  1000 iterations.
  Presetting      1001 iterations before the initial mixing cycle
  is restarted anyway using the sc_init_iter criterion / keyword.
  Presetting a factor      1.000 between actual scf density residual
  and density convergence criterion sc_accuracy_rho below which sc_init_iter
  takes no effect.
 * No s.c.f. convergence criteria (sc_accuracy_*) were provided in control.in.
 * The run will proceed with a reasonable default guess, but please check whether.
 * the s.c.f. cycles seem to take too much or too little time.
  No maximum number of relaxation steps, defaulting to     1000
  Default initial Hessian is Lindh matrix (thres = 15.00) plus  0.200000E+01 eV/A^2 times unity.
  No maximum energy tolerance for TRM/BFGS moves, defaulting to   0.100000E-02
  Maximum energy tolerance by which TRM/BFGS trajectory may increase over multiple steps:   0.300000E-02
  No harmonic length scale. Defaulting to   0.250000E-01 A.
  No trust radius initializer. Defaulting to   0.200000E+00 A.
  Unit cell relaxation: Unit cell will be relaxed fully.
  Unit cell relaxation: Analytical stress will be used.
  Analytical stress will be computed.
  Analytical stress calculation: Only the upper triangle is calculated.
                                 Final output is symmetrized.
  Analytical stress calculation: scf convergence accuracy of stress not set.
                                 Analytical stress self-consistency will not be checked explicitly.
                                 Be sure to set other criteria like sc_accuracy_rho tight enough.
  Forces evaluation will include force correction term due to incomplete self-consistency (default).
 * Notice: The s.c.f. convergence criterion sc_accuracy_rho was not provided.
 * We used to stop in this case, and ask the user to provide reasonable
 * scf convergence criteria. However, this led some users to employ criteria
 * that led to extremely long run times, e.g., for simple relaxation.
 * We now preset a default value for sc_accuracy_rho if it is not set.
 * You may still wish to check if this setting is too tight or too loose for your needs.
 * Based on n_atoms and forces and force-correction status, FHI-aims chose sc_accuracy_rho =  0.500000E-06 .
  Force calculation: scf convergence accuracy of forces not set.
  Defaulting to 'sc_accuracy_forces not_checked'.
  Handling of forces: Unphysical translation and rotation will be removed from forces.
  No accuracy limit for integral partition fn. given. Defaulting to  0.1000E-14.
  No threshold value for u(r) in integrations given. Defaulting to  0.1000E-05.
  No occupation type (smearing scheme) given. Defaulting to Gaussian broadening, width =  0.1000E-01 eV.
  The width will be adjusted in iteration number     2 of the first full s.c.f. cycle only.
  S.C.F. convergence parameters will be adjusted in iteration number     2 of the first full s.c.f. cycle only.
  No accuracy for occupation numbers given. Defaulting to  0.1000E-12.
  No threshold value for occupation numbers given. Defaulting to  0.0000E+00.
  No accuracy for fermi level given. Defaulting to  0.1000E-19.
  Maximum # of iterations to find E_F not set. Defaulting to  200.
  Preferred method for the eigenvalue solver ('KS_method') not specified in 'control.in'.
  Defaulting to serial version, LAPACK (via ELSI), since more k-points than CPUs available.
  Will not use alltoall communication since running on < 1024 CPUs.
  Threshold for basis singularities not set.
  Default threshold for basis singularities:  0.1000E-04
  partition_type (choice of integration weights) for integrals was not specified.
  | Using a version of the partition function of Stratmann and coworkers ('stratmann_sparse').
  | At each grid point, the set of atoms used to build the partition table is smoothly restricted to
  | only those atoms whose free-atom density would be non-zero at that grid point.
  Partitioning for Hartree potential was not defined. Using partition_type for integrals.
  | Adjusted default value of keyword multip_moments_threshold to:       0.10000000E-11
  | This value may affect high angular momentum components of the Hartree potential in periodic systems.
  Spin handling was not defined in control.in. Defaulting to unpolarized case.
  Angular momentum expansion for Kerker preconditioner not set explicitly.
  | Using default value of   0
  No explicit requirement for turning off preconditioner.
  | By default, it will be turned off when the charge convergence reaches
  | sc_accuracy_rho  =   0.500000E-06
  No special mixing parameter while Kerker preconditioner is on.
  Using default: charge_mix_param =     0.0500.
  No q(lm)/r^(l+1) cutoff set for long-range Hartree potential.
  | Using default value of  0.100000E-09 .
  | Verify using the multipole_threshold keyword.
  Defaulting to new monopole extrapolation.
  Density update method: automatic selection selected.
  Using density matrix based charge density update.
  Using density matrix based charge density update.
  Using packed matrix style: index .
  Geometry relaxation: A file "geometry.in.next_step" is written out by default after each step.
  | This file contains the geometry of the current relaxation step as well as
  | the current Hessian matrix needed to restart the relaxation algorithm.
  | If you do not want part or all of this information, use the keywords
  | "write_restart_geometry" or "hessian_to_restart_geometry" to switch the output off.
  Defaulting to use time-reversal symmetry for k-point grid.
  Charge integration errors on the 3D integration grid will be compensated
  by explicit normalization and distribution of residual charges.
  Use the "compensate_multipole_errors" flag to change this behaviour.
  Set 'collect_eigenvectors' to be '.true.' for all serial calculations. This is mandatory.
  Set 'collect_eigenvectors' to be '.true.' for KS_method lapack_fast and serial.
 
  Consistency checks for the contents of geometry.in are next.
 

  Range separation radius for Ewald summation (hartree_convergence_parameter):      3.88818726 bohr.
  Number of empty states per atom not set in control.in - providing a guess from actual geometry.
  | Total number of empty states used during s.c.f. cycle:        6
  If you use a very high smearing, use empty_states (per atom!) in control.in to increase this value.

  Structure-dependent array size parameters: 
  | Maximum number of distinct radial functions  :        9
  | Maximum number of basis functions            :       50
  | Number of Kohn-Sham states (occupied + empty):       20
------------------------------------------------------------

------------------------------------------------------------
          Preparing all fixed parts of the calculation.
------------------------------------------------------------
  Determining machine precision:
    2.225073858507201E-308
  Setting up grids for atomic and cluster calculations.

  Creating wave function, potential, and density for free atoms.
  Runtime choices for atomic solver:
  | atomic solver xc        : PBE
  | compute density gradient: 1
  | compute kinetic density : F

  Species: Si

  List of occupied orbitals and eigenvalues:
    n    l              occ      energy [Ha]    energy [eV]
    1    0           2.0000       -65.767597     -1789.6274
    2    0           2.0000        -5.115610      -139.2028
    3    0           2.0000        -0.388877       -10.5819
    2    1           6.0000        -3.500197       -95.2452
    3    1           2.0000        -0.140803        -3.8315


  Adding cutoff potential to free-atom effective potential.
  Creating fixed part of basis set: Ionic, confined, hydrogenic.
 
  Si                   ion:

  List of free ionic orbitals and eigenvalues:
    n    l      energy [Ha]    energy [eV]
    1    0       -66.641157     -1813.3982
    2    0        -5.964274      -162.2962
    3    0        -1.073878       -29.2217
    2    1        -4.350005      -118.3697
    3    1        -0.776571       -21.1316


  List of ionic basis orbitals and eigenvalues:
    n    l      energy [Ha]    energy [eV]    outer radius [A]
    3    0        -1.073857       -29.2211       4.214062

 
  Si                   hydrogenic:
 
  List of hydrogenic basis orbitals: 
    n    l      effective z      eigenvalue [eV]  inner max. [A]     outer max. [A]     outer radius [A]   
    3    2         4.200000       -26.6624           1.139231           1.139231           4.534782
    2    1         1.400000        -6.4613           1.472672           1.472672           4.590560
    4    3         6.200000       -32.6778           1.368518           1.368518           4.534782
 
  Creating atomic-like basis functions for current effective potential.

  Species Si                  :

  List of atomic basis orbitals and eigenvalues:
    n    l      energy [Ha]    energy [eV]    outer radius [A]
    1    0       -65.767597     -1789.6274       0.789468
    2    0        -5.115610      -139.2028       2.815114
    3    0        -0.388877       -10.5819       4.534782
    2    1        -3.500197       -95.2452       3.259919
    3    1        -0.140803        -3.8315       4.590560

  Assembling full basis from fixed parts.
  | Species Si :   atomic orbital   1 s accepted.
  | Species Si :   atomic orbital   2 s accepted.
  | Species Si :    ionic orbital   3 s accepted.
  | Species Si :   atomic orbital   3 s accepted.
  | Species Si :   atomic orbital   2 p accepted.
  | Species Si :   atomic orbital   3 p accepted.
  | Species Si :    hydro orbital   2 p accepted.
  | Species Si :    hydro orbital   3 d accepted.
  | Species Si :    hydro orbital   4 f accepted.
 
  Basis size parameters after reduction:
  | Total number of radial functions:        9
  | Total number of basis functions :       50
 
  Per-task memory consumption for arrays in subroutine allocate_ext:
  |           3.102808MB.
  Testing on-site integration grid accuracy.
  |  Species  Function  <phi|h_atom|phi> (log., in eV)  <phi|h_atom|phi> (rad., in eV)
           1        1              -1789.6273740966              -1789.6266345813
           1        2               -139.2028173376               -139.2028132357
           1        3                -10.2237226190                -10.2235219160
           1        4                  5.6355365073                  5.5558633521 ***
           1        5                -95.2452114632                -95.2452114537
           1        6                 -3.8413965043                 -3.8571292824
           1        7                  6.4035522332                  6.2277973139 ***
           1        8                  6.3860095444                  6.3839142324
           1        9                 19.3722793793                 19.3677446767
 * Note: Onsite integrals marked "***" above are less accurate than
 * onsite_accuracy_threshold =    0.03000 eV. Usually, this is harmless.
 * When in doubt, tighten the "radial" and/or "radial_multiplier" flags to check.

  Preparing densities etc. for the partition functions (integrals / Hartree potential).

  Preparations completed.
  max(cpu_time)          :      0.117 s.
  Wall clock time (cpu1) :      0.116 s.
------------------------------------------------------------

------------------------------------------------------------
          Begin self-consistency loop: Initialization.

          Date     :  20231005, Time     :  083331.937
------------------------------------------------------------

  Initializing index lists of integration centers etc. from given atomic structure:
  Mapping all atomic coordinates to central unit cell.

  Initializing the k-points
  Using symmetry for reducing the k-points
  | k-points reduced from:     1728 to      868
  | Number of k-points                             :       868
  The eigenvectors in the calculations are COMPLEX.
  | K-points in task   0:       434
  | K-points in task   1:       434
  | Number of basis functions in the Hamiltonian integrals :      2179
  | Number of basis functions in a single unit cell        :        50
  | Number of centers in hartree potential         :       732
  | Number of centers in hartree multipole         :       318
  | Number of centers in electron density summation:       198
  | Number of centers in basis integrals           :       228
  | Number of centers in integrals                 :       101
  | Number of centers in hamiltonian               :       198
  | Consuming       1519 KiB for k_phase.
  | Number of super-cells (origin) [n_cells]                     :        2197
  | Number of super-cells (after PM_index) [n_cells]             :         112
  | Number of super-cells in hamiltonian [n_cells_in_hamiltonian]:         112
  | Size of matrix packed + index [n_hamiltonian_matrix_size] :       89403

  Initializing relaxation algorithms.
  Finished initialization of distributed Hessian storage.
  | Global dimension:        15
  | BLACS block size:         8
  | Number of workers:        2

  | Estimated reciprocal-space cutoff momentum G_max:         2.40094914 bohr^-1 .
  | Reciprocal lattice points for long-range Hartree potential:      58
  Partitioning the integration grid into batches with parallel hashing+maxmin method.
  | Number of batches:      166
  | Maximal batch size:     109
  | Minimal batch size:      51
  | Average batch size:      67.518
  | Standard deviation of batch sizes:      18.361

  Integration load balanced across     2 MPI tasks.
  Work distribution over tasks is as follows:
  Task     0 has       5577 integration points.
  Task     1 has       5631 integration points.
  Initializing partition tables, free-atom densities, potentials, etc. across the integration grid (initialize_grid_storage).
  | initialize_grid_storage: Actual outermost partition radius vs. multipole_radius_free
  | (-- VB: in principle, multipole_radius_free should be larger, hence this output)
  | Species        1: Confinement radius =              4.999999999999999 AA, multipole_radius_free =              5.000694715736543 AA.
  | Species        1: outer_partition_radius set to              5.000694715736543 AA .
  | The sparse table of interatomic distances needs        255.65 kbyte instead of       415.87 kbyte of memory.
  | Net number of integration points:    11208
  | of which are non-zero points    :     9820
  | Numerical average free-atom electrostatic potential    :    -13.13394093 eV
  Renormalizing the initial density to the exact electron count on the 3D integration grid.
  | Initial density: Formal number of electrons (from input files) :      28.0000000000
  | Integrated number of electrons on 3D grid     :      28.0049838157
  | Charge integration error                      :       0.0049838157
  | Normalization factor for density and gradient :       0.9998220383
  Renormalizing the free-atom superposition density to the exact electron count on the 3D integration grid.
  | Formal number of electrons (from input files) :      28.0000000000
  | Integrated number of electrons on 3D grid     :      28.0049838157
  | Charge integration error                      :       0.0049838157
  | Normalization factor for density and gradient :       0.9998220383
  Obtaining max. number of non-zero basis functions in each batch (get_n_compute_maxes).
  | Maximal number of non-zero basis functions:      671 in task     0
  | Maximal number of non-zero basis functions:      679 in task     1
  Allocating        6.622 MB for KS_eigenvector_complex
  Integrating Hamiltonian matrix: batch-based integration.
  Time summed over all CPUs for integration: real work        0.613 s, elapsed        0.618 s
  Integrating overlap matrix.
  Time summed over all CPUs for integration: real work        0.426 s, elapsed        0.433 s
  Decreasing sparse matrix size:
  | Tolerance:  0.1000E-12
  Hamiltonian matrix
  | Array has    77221 nonzero elements out of    89403 elements
  | Sparsity factor is 0.136
  Overlap matrix
  | Array has    74518 nonzero elements out of    89403 elements
  | Sparsity factor is 0.166
  New size of hamiltonian matrix:       77719

  Updating Kohn-Sham eigenvalues and eigenvectors using ELSI and the (modified) LAPACK eigensolver.
  Singularity check in k-point 2, task 0 (analysis for other k-points/tasks may follow below):
  Overlap matrix is not singular
  | Lowest and highest eigenvalues :  0.7484E-03,  0.6743E+01
  Finished singularity check of overlap matrix
  | Time :     0.000 s
  Starting LAPACK eigensolver
  Finished Cholesky decomposition
  | Time :     0.000 s
  Finished transformation to standard eigenproblem
  | Time :     0.000 s
  Finished solving standard eigenproblem
  | Time :     0.001 s
  Finished back-transformation of eigenvectors
  | Time :     0.000 s

  Obtaining occupation numbers and chemical potential using ELSI.
  | Chemical potential (Fermi level):    -5.33106702 eV
  Writing Kohn-Sham eigenvalues.
  K-point:       1 at    0.000000    0.000000    0.000000 (in units of recip. lattice)

  State    Occupation    Eigenvalue [Ha]    Eigenvalue [eV]
      1       2.00000         -65.789115        -1790.21291
      2       2.00000         -65.789115        -1790.21291
      3       2.00000          -5.141764         -139.91451
      4       2.00000          -5.141478         -139.90674
      5       2.00000          -3.526367          -95.95733
      6       2.00000          -3.526367          -95.95733
      7       2.00000          -3.526367          -95.95733
      8       2.00000          -3.525741          -95.94029
      9       2.00000          -3.525741          -95.94029
     10       2.00000          -3.525741          -95.94029
     11       2.00000          -0.662177          -18.01875
     12       2.00000          -0.226113           -6.15285
     13       2.00000          -0.226113           -6.15285
     14       2.00000          -0.226113           -6.15285
     15       0.00000          -0.123886           -3.37110
     16       0.00000          -0.123886           -3.37110
     17       0.00000          -0.123886           -3.37110
     18       0.00000          -0.102335           -2.78468
     19       0.00000           0.072041            1.96033
     20       0.00000           0.072041            1.96033

  What follows are estimated values for band gap, HOMO, LUMO, etc.
  | They are estimated on a discrete k-point grid and not necessarily exact.
  | For converged numbers, create a DOS and/or band structure plot on a denser k-grid.

  Highest occupied state (VBM) at     -6.15284783 eV (relative to internal zero)
  | Occupation number:      2.00000000
  | K-point:       1 at    0.000000    0.000000    0.000000 (in units of recip. lattice)

  Lowest unoccupied state (CBM) at    -5.28887000 eV (relative to internal zero)
  | Occupation number:      0.00000000
  | K-point:     552 at    0.416667    0.416667    0.000000 (in units of recip. lattice)

  ESTIMATED overall HOMO-LUMO gap:      0.86397783 eV between HOMO at k-point 1 and LUMO at k-point 552
  | This appears to be an indirect band gap.
  | Smallest direct gap :      2.78175086 eV for k_point 1 at    0.000000    0.000000    0.000000 (in units of recip. lattice)
  The gap value is above 0.2 eV. Unless you are using a very sparse k-point grid,
  this system is most likely an insulator or a semiconductor.
  Calculating total energy contributions from superposition of free atom densities.

  Total energy components:
  | Sum of eigenvalues            :        -329.30973352 Ha       -8960.97377842 eV
  | XC energy correction          :         -41.72346576 Ha       -1135.35326941 eV
  | XC potential correction       :          53.88391950 Ha        1466.25605176 eV
  | Free-atom electrostatic energy:        -263.59230454 Ha       -7172.71155008 eV
  | Hartree energy correction     :           0.00000000 Ha           0.00000000 eV
  | Entropy correction            :          -0.00000000 Ha          -0.00000000 eV
  | ---------------------------
  | Total energy                  :        -580.74158432 Ha      -15802.78254615 eV
  | Total energy, T -> 0          :        -580.74158432 Ha      -15802.78254615 eV  <-- do not rely on this value for anything but (periodic) metals
  | Electronic free energy        :        -580.74158432 Ha      -15802.78254615 eV

  Derived energy quantities:
  | Kinetic energy                :         582.31098345 Ha       15845.48806910 eV
  | Electrostatic energy          :       -1121.32910201 Ha      -30512.91734584 eV
  | Energy correction for multipole
  | error in Hartree potential    :           0.00000000 Ha           0.00000000 eV
  | Sum of eigenvalues per atom                           :       -4480.48688921 eV
  | Total energy (T->0) per atom                          :       -7901.39127307 eV  <-- do not rely on this value for anything but (periodic) metals
  | Electronic free energy per atom                       :       -7901.39127307 eV
  Initialize hartree_potential_storage
  Max. number of atoms included in rho_multipole:            2

  End scf initialization - timings             :  max(cpu_time)    wall_clock(cpu1)
  | Time for scf. initialization                :        1.163 s           1.163 s
  | Boundary condition initialization           :        0.055 s           0.054 s
  | Relaxation initialization                   :        0.000 s           0.001 s
  | Integration                                 :        0.528 s           0.527 s
  | Solution of K.-S. eqns.                     :        0.431 s           0.431 s
  | Grid partitioning                           :        0.024 s           0.024 s
  | Preloading free-atom quantities on grid     :        0.109 s           0.109 s
  | Free-atom superposition energy              :        0.016 s           0.015 s
  | Total energy evaluation                     :        0.000 s           0.001 s

  Partial memory accounting:
  | Current value for overall tracked memory usage:
  |   Minimum:        8.110 MB (on task 1)
  |   Maximum:        8.110 MB (on task 0)
  |   Average:        8.110 MB
  | Peak value for overall tracked memory usage:
  |   Minimum:       13.458 MB (on task 0 after allocating wave)
  |   Maximum:       13.560 MB (on task 1 after allocating wave)
  |   Average:       13.509 MB
  | Largest tracked array allocation so far:
  |   Minimum:        6.622 MB (KS_eigenvector_complex on task 0)
  |   Maximum:        6.622 MB (KS_eigenvector_complex on task 0)
  |   Average:        6.622 MB
  Note:  These values currently only include a subset of arrays which are explicitly tracked.
  The "true" memory usage will be greater.
------------------------------------------------------------
  Evaluating new KS density using the density matrix
  Evaluating density matrix
  Time summed over all CPUs for getting density from density matrix: real work        1.247 s, elapsed        1.268 s
  Integration grid: deviation in total charge (<rho> - N_e) =   8.387957E-12

  Time for density update prior                :  max(cpu_time)    wall_clock(cpu1)
  | self-consistency iterative process          :        0.699 s           0.699 s

------------------------------------------------------------
          Begin self-consistency iteration #    1

  Date     :  20231005, Time     :  083333.799
------------------------------------------------------------
  Pulay mixing of updated and previous charge densities.
  Renormalizing the density to the exact electron count on the 3D integration grid.
  | Formal number of electrons (from input files) :      28.0000000000
  | Integrated number of electrons on 3D grid     :      27.9997819438
  | Charge integration error                      :      -0.0002180562
  | Normalization factor for density and gradient :       1.0000077878

  Evaluating partitioned Hartree potential by multipole expansion.
  | Original multipole sum: apparent total charge =  -0.113352E-12
  | Sum of charges compensated after spline to logarithmic grids =  -0.422687E-05
  | Analytical far-field extrapolation by fixed multipoles:
  | Hartree multipole sum: apparent total charge =   0.000000E+00
  Summing up the Hartree potential.
  Time summed over all CPUs for potential: real work        0.336 s, elapsed        0.338 s
  | RMS charge density error from multipole expansion :   0.547381E-03
  | Average real-space part of the electrostatic potential :      0.01888767 eV

  Integrating Hamiltonian matrix: batch-based integration.
  Time summed over all CPUs for integration: real work        0.625 s, elapsed        0.640 s

  Updating Kohn-Sham eigenvalues and eigenvectors using ELSI and the (modified) LAPACK eigensolver.
  Starting LAPACK eigensolver
  Finished Cholesky decomposition
  | Time :     0.000 s
  Finished transformation to standard eigenproblem
  | Time :     0.000 s
  Finished solving standard eigenproblem
  | Time :     0.000 s
  Finished back-transformation of eigenvectors
  | Time :     0.000 s

  Obtaining occupation numbers and chemical potential using ELSI.
  | Chemical potential (Fermi level):    -5.32100821 eV
  Writing Kohn-Sham eigenvalues.
  K-point:       1 at    0.000000    0.000000    0.000000 (in units of recip. lattice)

  State    Occupation    Eigenvalue [Ha]    Eigenvalue [eV]
      1       2.00000         -65.786688        -1790.14687
      2       2.00000         -65.786688        -1790.14687
      3       2.00000          -5.140019         -139.86702
      4       2.00000          -5.139733         -139.85925
      5       2.00000          -3.524566          -95.90831
      6       2.00000          -3.524566          -95.90831
      7       2.00000          -3.524566          -95.90831
      8       2.00000          -3.523940          -95.89128
      9       2.00000          -3.523940          -95.89128
     10       2.00000          -3.523940          -95.89128
     11       2.00000          -0.661415          -17.99802
     12       2.00000          -0.225113           -6.12564
     13       2.00000          -0.225113           -6.12564
     14       2.00000          -0.225113           -6.12564
     15       0.00000          -0.123300           -3.35516
     16       0.00000          -0.123300           -3.35516
     17       0.00000          -0.123300           -3.35516
     18       0.00000          -0.101183           -2.75332
     19       0.00000           0.072588            1.97523
     20       0.00000           0.072588            1.97523

  What follows are estimated values for band gap, HOMO, LUMO, etc.
  | They are estimated on a discrete k-point grid and not necessarily exact.
  | For converged numbers, create a DOS and/or band structure plot on a denser k-grid.

  Highest occupied state (VBM) at     -6.12564391 eV (relative to internal zero)
  | Occupation number:      2.00000000
  | K-point:       1 at    0.000000    0.000000    0.000000 (in units of recip. lattice)

  Lowest unoccupied state (CBM) at    -5.27881065 eV (relative to internal zero)
  | Occupation number:      0.00000000
  | K-point:     690 at    0.583333    0.000000    0.583333 (in units of recip. lattice)

  ESTIMATED overall HOMO-LUMO gap:      0.84683326 eV between HOMO at k-point 1 and LUMO at k-point 690
  | This appears to be an indirect band gap.
  | Smallest direct gap :      2.77048254 eV for k_point 1 at    0.000000    0.000000    0.000000 (in units of recip. lattice)
  The gap value is above 0.2 eV. Unless you are using a very sparse k-point grid,
  this system is most likely an insulator or a semiconductor.

  Total energy components:
  | Sum of eigenvalues            :        -329.26495993 Ha       -8959.75542703 eV
  | XC energy correction          :         -41.72670294 Ha       -1135.44135766 eV
  | XC potential correction       :          53.88810625 Ha        1466.36997908 eV
  | Free-atom electrostatic energy:        -263.59230454 Ha       -7172.71155008 eV
  | Hartree energy correction     :          -0.04518906 Ha          -1.22965700 eV
  | Entropy correction            :          -0.00000000 Ha          -0.00000000 eV
  | ---------------------------
  | Total energy                  :        -580.74105023 Ha      -15802.76801270 eV
  | Total energy, T -> 0          :        -580.74105023 Ha      -15802.76801270 eV  <-- do not rely on this value for anything but (periodic) metals
  | Electronic free energy        :        -580.74105023 Ha      -15802.76801270 eV

  Derived energy quantities:
  | Kinetic energy                :         582.32879795 Ha       15845.97282655 eV
  | Electrostatic energy          :       -1121.34314524 Ha      -30513.29948159 eV
  | Energy correction for multipole
  | error in Hartree potential    :           0.00070113 Ha           0.01907870 eV
  | Sum of eigenvalues per atom                           :       -4479.87771352 eV
  | Total energy (T->0) per atom                          :       -7901.38400635 eV  <-- do not rely on this value for anything but (periodic) metals
  | Electronic free energy per atom                       :       -7901.38400635 eV
  Evaluating new KS density using the density matrix
  Evaluating density matrix
  Time summed over all CPUs for getting density from density matrix: real work        1.277 s, elapsed        1.295 s
  Integration grid: deviation in total charge (<rho> - N_e) =   8.355983E-12

  Self-consistency convergence accuracy:
  | Change of charge density      :  0.1114E+00
  | Change of sum of eigenvalues  :  0.1218E+01 eV
  | Change of total energy        :  0.1453E-01 eV


------------------------------------------------------------
  End self-consistency iteration #     1       :  max(cpu_time)    wall_clock(cpu1)
  | Time for this iteration                     :        1.677 s           1.677 s
  | Charge density update                       :        0.713 s           0.712 s
  | Density mixing & preconditioning            :        0.099 s           0.099 s
  | Hartree multipole update                    :        0.001 s           0.001 s
  | Hartree multipole summation                 :        0.171 s           0.171 s
  | Integration                                 :        0.321 s           0.321 s
  | Solution of K.-S. eqns.                     :        0.372 s           0.372 s
  | Total energy evaluation                     :        0.000 s           0.001 s

  Partial memory accounting:
  | Current value for overall tracked memory usage:
  |   Minimum:        8.110 MB (on task 1)
  |   Maximum:        8.110 MB (on task 0)
  |   Average:        8.110 MB
  | Peak value for overall tracked memory usage:
  |   Minimum:       14.893 MB (on task 0 after allocating gradient_basis_wave)
  |   Maximum:       15.016 MB (on task 1 after allocating gradient_basis_wave)
  |   Average:       14.955 MB
  | Largest tracked array allocation so far:
  |   Minimum:        6.622 MB (KS_eigenvector_complex on task 0)
  |   Maximum:        6.622 MB (KS_eigenvector_complex on task 0)
  |   Average:        6.622 MB
  Note:  These values currently only include a subset of arrays which are explicitly tracked.
  The "true" memory usage will be greater.
------------------------------------------------------------

------------------------------------------------------------
          Begin self-consistency iteration #    2

  Date     :  20231005, Time     :  083335.477
------------------------------------------------------------
  Pulay mixing of updated and previous charge densities.
  Renormalizing the density to the exact electron count on the 3D integration grid.
  | Formal number of electrons (from input files) :      28.0000000000
  | Integrated number of electrons on 3D grid     :      27.9962154220
  | Charge integration error                      :      -0.0037845780
  | Normalization factor for density and gradient :       1.0001351818

  Evaluating partitioned Hartree potential by multipole expansion.
  | Original multipole sum: apparent total charge =  -0.630817E-13
  | Sum of charges compensated after spline to logarithmic grids =  -0.792745E-04
  | Analytical far-field extrapolation by fixed multipoles:
  | Hartree multipole sum: apparent total charge =   0.000000E+00
  Summing up the Hartree potential.
  Time summed over all CPUs for potential: real work        0.399 s, elapsed        0.404 s
  | RMS charge density error from multipole expansion :   0.102748E-01
  | Average real-space part of the electrostatic potential :      0.35076221 eV

  Integrating Hamiltonian matrix: batch-based integration.
  Time summed over all CPUs for integration: real work        0.614 s, elapsed        0.615 s

  Updating Kohn-Sham eigenvalues and eigenvectors using ELSI and the (modified) LAPACK eigensolver.
  Starting LAPACK eigensolver
  Finished Cholesky decomposition
  | Time :     0.000 s
  Finished transformation to standard eigenproblem
  | Time :     0.000 s
  Finished solving standard eigenproblem
  | Time :     0.000 s
  Finished back-transformation of eigenvectors
  | Time :     0.000 s

  Obtaining occupation numbers and chemical potential using ELSI.
  | Chemical potential (Fermi level):    -5.09255713 eV
  What follows are estimated values for band gap, HOMO, LUMO, etc.
  | They are estimated on a discrete k-point grid and not necessarily exact.
  | For converged numbers, create a DOS and/or band structure plot on a denser k-grid.

  Highest occupied state (VBM) at     -5.60850519 eV (relative to internal zero)
  | Occupation number:      2.00000000
  | K-point:       1 at    0.000000    0.000000    0.000000 (in units of recip. lattice)

  Lowest unoccupied state (CBM) at    -5.05035118 eV (relative to internal zero)
  | Occupation number:      0.00000000
  | K-point:      48 at    0.000000    0.416667    0.416667 (in units of recip. lattice)

  ESTIMATED overall HOMO-LUMO gap:      0.55815401 eV between HOMO at k-point 1 and LUMO at k-point 48
  | This appears to be an indirect band gap.
  | Smallest direct gap :      2.55808235 eV for k_point 1 at    0.000000    0.000000    0.000000 (in units of recip. lattice)
  The gap value is above 0.2 eV. Unless you are using a very sparse k-point grid,
  this system is most likely an insulator or a semiconductor.

  Checking to see if s.c.f. parameters should be adjusted.
  The system likely has a gap. Increased the default Pulay mixing parameter (charge_mix_param). Value:   0.200000 .
  Kept the default occupation width. Value:   0.010000 eV.

  Total energy components:
  | Sum of eigenvalues            :        -328.47876509 Ha       -8938.36197692 eV
  | XC energy correction          :         -41.79616353 Ha       -1137.33147640 eV
  | XC potential correction       :          53.97678917 Ha        1468.78316414 eV
  | Free-atom electrostatic energy:        -263.59230454 Ha       -7172.71155008 eV
  | Hartree energy correction     :          -0.84663712 Ha         -23.03816818 eV
  | Entropy correction            :          -0.00000000 Ha          -0.00000000 eV
  | ---------------------------
  | Total energy                  :        -580.73708111 Ha      -15802.66000745 eV
  | Total energy, T -> 0          :        -580.73708111 Ha      -15802.66000745 eV  <-- do not rely on this value for anything but (periodic) metals
  | Electronic free energy        :        -580.73708111 Ha      -15802.66000745 eV

  Derived energy quantities:
  | Kinetic energy                :         582.61287746 Ha       15853.70302327 eV
  | Electrostatic energy          :       -1121.55379504 Ha      -30519.03155431 eV
  | Energy correction for multipole
  | error in Hartree potential    :           0.01316425 Ha           0.35821753 eV
  | Sum of eigenvalues per atom                           :       -4469.18098846 eV
  | Total energy (T->0) per atom                          :       -7901.33000373 eV  <-- do not rely on this value for anything but (periodic) metals
  | Electronic free energy per atom                       :       -7901.33000373 eV
  Evaluating new KS density using the density matrix
  Evaluating density matrix
  Time summed over all CPUs for getting density from density matrix: real work        1.225 s, elapsed        1.235 s
  Integration grid: deviation in total charge (<rho> - N_e) =   8.316903E-12

  Self-consistency convergence accuracy:
  | Change of charge density      :  0.1056E+00
  | Change of sum of eigenvalues  :  0.2139E+02 eV
  | Change of total energy        :  0.1080E+00 eV


------------------------------------------------------------
  End self-consistency iteration #     2       :  max(cpu_time)    wall_clock(cpu1)
  | Time for this iteration                     :        1.641 s           1.641 s
  | Charge density update                       :        0.682 s           0.682 s
  | Density mixing & preconditioning            :        0.099 s           0.099 s
  | Hartree multipole update                    :        0.001 s           0.001 s
  | Hartree multipole summation                 :        0.204 s           0.203 s
  | Integration                                 :        0.309 s           0.309 s
  | Solution of K.-S. eqns.                     :        0.346 s           0.346 s
  | Total energy evaluation                     :        0.000 s           0.001 s

  Partial memory accounting:
  | Current value for overall tracked memory usage:
  |   Minimum:        8.111 MB (on task 1)
  |   Maximum:        8.111 MB (on task 0)
  |   Average:        8.111 MB
  | Peak value for overall tracked memory usage:
  |   Minimum:       14.894 MB (on task 0 after allocating gradient_basis_wave)
  |   Maximum:       15.016 MB (on task 1 after allocating gradient_basis_wave)
  |   Average:       14.955 MB
  | Largest tracked array allocation so far:
  |   Minimum:        6.622 MB (KS_eigenvector_complex on task 0)
  |   Maximum:        6.622 MB (KS_eigenvector_complex on task 0)
  |   Average:        6.622 MB
  Note:  These values currently only include a subset of arrays which are explicitly tracked.
  The "true" memory usage will be greater.
------------------------------------------------------------

------------------------------------------------------------
          Begin self-consistency iteration #    3

  Date     :  20231005, Time     :  083337.118
------------------------------------------------------------
  Pulay mixing of updated and previous charge densities.
  Renormalizing the density to the exact electron count on the 3D integration grid.
  | Formal number of electrons (from input files) :      28.0000000000
  | Integrated number of electrons on 3D grid     :      28.0006155375
  | Charge integration error                      :       0.0006155375
  | Normalization factor for density and gradient :       0.9999780170

  Evaluating partitioned Hartree potential by multipole expansion.
  | Original multipole sum: apparent total charge =  -0.685465E-13
  | Sum of charges compensated after spline to logarithmic grids =  -0.829006E-04
  | Analytical far-field extrapolation by fixed multipoles:
  | Hartree multipole sum: apparent total charge =   0.000000E+00
  Summing up the Hartree potential.
  Time summed over all CPUs for potential: real work        0.394 s, elapsed        0.395 s
  | RMS charge density error from multipole expansion :   0.107102E-01
  | Average real-space part of the electrostatic potential :      0.32726605 eV

  Integrating Hamiltonian matrix: batch-based integration.
  Time summed over all CPUs for integration: real work        0.606 s, elapsed        0.612 s

  Updating Kohn-Sham eigenvalues and eigenvectors using ELSI and the (modified) LAPACK eigensolver.
  Starting LAPACK eigensolver
  Finished Cholesky decomposition
  | Time :     0.001 s
  Finished transformation to standard eigenproblem
  | Time :     0.000 s
  Finished solving standard eigenproblem
  | Time :     0.000 s
  Finished back-transformation of eigenvectors
  | Time :     0.000 s

  Obtaining occupation numbers and chemical potential using ELSI.
  | Chemical potential (Fermi level):    -5.10112761 eV
  What follows are estimated values for band gap, HOMO, LUMO, etc.
  | They are estimated on a discrete k-point grid and not necessarily exact.
  | For converged numbers, create a DOS and/or band structure plot on a denser k-grid.

  Highest occupied state (VBM) at     -5.64444628 eV (relative to internal zero)
  | Occupation number:      2.00000000
  | K-point:       1 at    0.000000    0.000000    0.000000 (in units of recip. lattice)

  Lowest unoccupied state (CBM) at    -5.05892297 eV (relative to internal zero)
  | Occupation number:      0.00000000
  | K-point:      48 at    0.000000    0.416667    0.416667 (in units of recip. lattice)

  ESTIMATED overall HOMO-LUMO gap:      0.58552331 eV between HOMO at k-point 1 and LUMO at k-point 48
  | This appears to be an indirect band gap.
  | Smallest direct gap :      2.56636167 eV for k_point 1 at    0.000000    0.000000    0.000000 (in units of recip. lattice)
  The gap value is above 0.2 eV. Unless you are using a very sparse k-point grid,
  this system is most likely an insulator or a semiconductor.

  Total energy components:
  | Sum of eigenvalues            :        -328.64393670 Ha       -8942.85652519 eV
  | XC energy correction          :         -41.78181283 Ha       -1136.94097395 eV
  | XC potential correction       :          53.95813600 Ha        1468.27558564 eV
  | Free-atom electrostatic energy:        -263.59230454 Ha       -7172.71155008 eV
  | Hartree energy correction     :          -0.67696847 Ha         -18.42124925 eV
  | Entropy correction            :          -0.00000000 Ha          -0.00000000 eV
  | ---------------------------
  | Total energy                  :        -580.73688653 Ha      -15802.65471283 eV
  | Total energy, T -> 0          :        -580.73688653 Ha      -15802.65471283 eV  <-- do not rely on this value for anything but (periodic) metals
  | Electronic free energy        :        -580.73688653 Ha      -15802.65471283 eV

  Derived energy quantities:
  | Kinetic energy                :         582.40151724 Ha       15847.95161895 eV
  | Electrostatic energy          :       -1121.35659095 Ha      -30513.66535783 eV
  | Energy correction for multipole
  | error in Hartree potential    :           0.01381391 Ha           0.37589549 eV
  | Sum of eigenvalues per atom                           :       -4471.42826260 eV
  | Total energy (T->0) per atom                          :       -7901.32735641 eV  <-- do not rely on this value for anything but (periodic) metals
  | Electronic free energy per atom                       :       -7901.32735641 eV
  Evaluating new KS density using the density matrix
  Evaluating density matrix
  Time summed over all CPUs for getting density from density matrix: real work        1.197 s, elapsed        1.213 s
  Integration grid: deviation in total charge (<rho> - N_e) =   8.299139E-12

  Self-consistency convergence accuracy:
  | Change of charge density      :  0.1663E-01
  | Change of sum of eigenvalues  : -0.4495E+01 eV
  | Change of total energy        :  0.5295E-02 eV


------------------------------------------------------------
  End self-consistency iteration #     3       :  max(cpu_time)    wall_clock(cpu1)
  | Time for this iteration                     :        1.621 s           1.621 s
  | Charge density update                       :        0.670 s           0.670 s
  | Density mixing & preconditioning            :        0.098 s           0.098 s
  | Hartree multipole update                    :        0.001 s           0.001 s
  | Hartree multipole summation                 :        0.199 s           0.199 s
  | Integration                                 :        0.307 s           0.307 s
  | Solution of K.-S. eqns.                     :        0.346 s           0.346 s
  | Total energy evaluation                     :        0.000 s           0.000 s

  Partial memory accounting:
  | Current value for overall tracked memory usage:
  |   Minimum:        8.111 MB (on task 1)
  |   Maximum:        8.111 MB (on task 0)
  |   Average:        8.111 MB
  | Peak value for overall tracked memory usage:
  |   Minimum:       14.894 MB (on task 0 after allocating gradient_basis_wave)
  |   Maximum:       15.016 MB (on task 1 after allocating gradient_basis_wave)
  |   Average:       14.955 MB
  | Largest tracked array allocation so far:
  |   Minimum:        6.622 MB (KS_eigenvector_complex on task 0)
  |   Maximum:        6.622 MB (KS_eigenvector_complex on task 0)
  |   Average:        6.622 MB
  Note:  These values currently only include a subset of arrays which are explicitly tracked.
  The "true" memory usage will be greater.
------------------------------------------------------------

------------------------------------------------------------
          Begin self-consistency iteration #    4

  Date     :  20231005, Time     :  083338.739
------------------------------------------------------------
  Pulay mixing of updated and previous charge densities.
  Renormalizing the density to the exact electron count on the 3D integration grid.
  | Formal number of electrons (from input files) :      28.0000000000
  | Integrated number of electrons on 3D grid     :      28.0003187335
  | Charge integration error                      :       0.0003187335
  | Normalization factor for density and gradient :       0.9999886168

  Evaluating partitioned Hartree potential by multipole expansion.
  | Original multipole sum: apparent total charge =  -0.120043E-13
  | Sum of charges compensated after spline to logarithmic grids =  -0.882571E-04
  | Analytical far-field extrapolation by fixed multipoles:
  | Hartree multipole sum: apparent total charge =   0.000000E+00
  Summing up the Hartree potential.
  Time summed over all CPUs for potential: real work        0.391 s, elapsed        0.395 s
  | RMS charge density error from multipole expansion :   0.113958E-01
  | Average real-space part of the electrostatic potential :      0.32538393 eV

  Integrating Hamiltonian matrix: batch-based integration.
  Time summed over all CPUs for integration: real work        0.592 s, elapsed        0.597 s

  Updating Kohn-Sham eigenvalues and eigenvectors using ELSI and the (modified) LAPACK eigensolver.
  Starting LAPACK eigensolver
  Finished Cholesky decomposition
  | Time :     0.000 s
  Finished transformation to standard eigenproblem
  | Time :     0.000 s
  Finished solving standard eigenproblem
  | Time :     0.001 s
  Finished back-transformation of eigenvectors
  | Time :     0.000 s

  Obtaining occupation numbers and chemical potential using ELSI.
  | Chemical potential (Fermi level):    -5.09402921 eV
  What follows are estimated values for band gap, HOMO, LUMO, etc.
  | They are estimated on a discrete k-point grid and not necessarily exact.
  | For converged numbers, create a DOS and/or band structure plot on a denser k-grid.

  Highest occupied state (VBM) at     -5.64380245 eV (relative to internal zero)
  | Occupation number:      2.00000000
  | K-point:       1 at    0.000000    0.000000    0.000000 (in units of recip. lattice)

  Lowest unoccupied state (CBM) at    -5.05182705 eV (relative to internal zero)
  | Occupation number:      0.00000000
  | K-point:     690 at    0.583333    0.000000    0.583333 (in units of recip. lattice)

  ESTIMATED overall HOMO-LUMO gap:      0.59197540 eV between HOMO at k-point 1 and LUMO at k-point 690
  | This appears to be an indirect band gap.
  | Smallest direct gap :      2.56259283 eV for k_point 1 at    0.000000    0.000000    0.000000 (in units of recip. lattice)
  The gap value is above 0.2 eV. Unless you are using a very sparse k-point grid,
  this system is most likely an insulator or a semiconductor.

  Total energy components:
  | Sum of eigenvalues            :        -328.71358305 Ha       -8944.75169881 eV
  | XC energy correction          :         -41.77682952 Ha       -1136.80537114 eV
  | XC potential correction       :          53.95149730 Ha        1468.09493732 eV
  | Free-atom electrostatic energy:        -263.59230454 Ha       -7172.71155008 eV
  | Hartree energy correction     :          -0.60558143 Ha         -16.47870912 eV
  | Entropy correction            :          -0.00000000 Ha          -0.00000000 eV
  | ---------------------------
  | Total energy                  :        -580.73680124 Ha      -15802.65239183 eV
  | Total energy, T -> 0          :        -580.73680124 Ha      -15802.65239183 eV  <-- do not rely on this value for anything but (periodic) metals
  | Electronic free energy        :        -580.73680124 Ha      -15802.65239183 eV

  Derived energy quantities:
  | Kinetic energy                :         582.28962103 Ha       15844.90676821 eV
  | Electrostatic energy          :       -1121.24959275 Ha      -30510.75378890 eV
  | Energy correction for multipole
  | error in Hartree potential    :           0.01473912 Ha           0.40107194 eV
  | Sum of eigenvalues per atom                           :       -4472.37584940 eV
  | Total energy (T->0) per atom                          :       -7901.32619592 eV  <-- do not rely on this value for anything but (periodic) metals
  | Electronic free energy per atom                       :       -7901.32619592 eV
  Evaluating new KS density using the density matrix
  Evaluating density matrix
  Time summed over all CPUs for getting density from density matrix: real work        1.211 s, elapsed        1.225 s
  Integration grid: deviation in total charge (<rho> - N_e) =   8.281376E-12

  Self-consistency convergence accuracy:
  | Change of charge density      :  0.8016E-02
  | Change of sum of eigenvalues  : -0.1895E+01 eV
  | Change of total energy        :  0.2321E-02 eV


------------------------------------------------------------
  End self-consistency iteration #     4       :  max(cpu_time)    wall_clock(cpu1)
  | Time for this iteration                     :        1.606 s           1.606 s
  | Charge density update                       :        0.676 s           0.676 s
  | Density mixing & preconditioning            :        0.095 s           0.095 s
  | Hartree multipole update                    :        0.001 s           0.001 s
  | Hartree multipole summation                 :        0.199 s           0.199 s
  | Integration                                 :        0.299 s           0.300 s
  | Solution of K.-S. eqns.                     :        0.335 s           0.335 s
  | Total energy evaluation                     :        0.000 s           0.000 s

  Partial memory accounting:
  | Current value for overall tracked memory usage:
  |   Minimum:        8.111 MB (on task 1)
  |   Maximum:        8.111 MB (on task 0)
  |   Average:        8.111 MB
  | Peak value for overall tracked memory usage:
  |   Minimum:       14.894 MB (on task 0 after allocating gradient_basis_wave)
  |   Maximum:       15.016 MB (on task 1 after allocating gradient_basis_wave)
  |   Average:       14.955 MB
  | Largest tracked array allocation so far:
  |   Minimum:        6.622 MB (KS_eigenvector_complex on task 0)
  |   Maximum:        6.622 MB (KS_eigenvector_complex on task 0)
  |   Average:        6.622 MB
  Note:  These values currently only include a subset of arrays which are explicitly tracked.
  The "true" memory usage will be greater.
------------------------------------------------------------

------------------------------------------------------------
          Begin self-consistency iteration #    5

  Date     :  20231005, Time     :  083340.345
------------------------------------------------------------
  Pulay mixing of updated and previous charge densities.
  Renormalizing the density to the exact electron count on the 3D integration grid.
  | Formal number of electrons (from input files) :      28.0000000000
  | Integrated number of electrons on 3D grid     :      28.0007464090
  | Charge integration error                      :       0.0007464090
  | Normalization factor for density and gradient :       0.9999733432

  Evaluating partitioned Hartree potential by multipole expansion.
  | Original multipole sum: apparent total charge =   0.524467E-13
  | Sum of charges compensated after spline to logarithmic grids =  -0.883502E-04
  | Analytical far-field extrapolation by fixed multipoles:
  | Hartree multipole sum: apparent total charge =   0.000000E+00
  Summing up the Hartree potential.
  Time summed over all CPUs for potential: real work        0.396 s, elapsed        0.399 s
  | RMS charge density error from multipole expansion :   0.114677E-01
  | Average real-space part of the electrostatic potential :      0.31088036 eV

  Integrating Hamiltonian matrix: batch-based integration.
  Time summed over all CPUs for integration: real work        0.675 s, elapsed        0.677 s

  Updating Kohn-Sham eigenvalues and eigenvectors using ELSI and the (modified) LAPACK eigensolver.
  Starting LAPACK eigensolver
  Finished Cholesky decomposition
  | Time :     0.000 s
  Finished transformation to standard eigenproblem
  | Time :     0.000 s
  Finished solving standard eigenproblem
  | Time :     0.001 s
  Finished back-transformation of eigenvectors
  | Time :     0.000 s

  Obtaining occupation numbers and chemical potential using ELSI.
  | Chemical potential (Fermi level):    -5.09879189 eV
  What follows are estimated values for band gap, HOMO, LUMO, etc.
  | They are estimated on a discrete k-point grid and not necessarily exact.
  | For converged numbers, create a DOS and/or band structure plot on a denser k-grid.

  Highest occupied state (VBM) at     -5.65502450 eV (relative to internal zero)
  | Occupation number:      2.00000000
  | K-point:       1 at    0.000000    0.000000    0.000000 (in units of recip. lattice)

  Lowest unoccupied state (CBM) at    -5.05659026 eV (relative to internal zero)
  | Occupation number:      0.00000000
  | K-point:      48 at    0.000000    0.416667    0.416667 (in units of recip. lattice)

  ESTIMATED overall HOMO-LUMO gap:      0.59843425 eV between HOMO at k-point 1 and LUMO at k-point 48
  | This appears to be an indirect band gap.
  | Smallest direct gap :      2.56657128 eV for k_point 1 at    0.000000    0.000000    0.000000 (in units of recip. lattice)
  The gap value is above 0.2 eV. Unless you are using a very sparse k-point grid,
  this system is most likely an insulator or a semiconductor.

  Total energy components:
  | Sum of eigenvalues            :        -328.75345560 Ha       -8945.83668608 eV
  | XC energy correction          :         -41.77643428 Ha       -1136.79461621 eV
  | XC potential correction       :          53.95076241 Ha        1468.07493992 eV
  | Free-atom electrostatic energy:        -263.59230454 Ha       -7172.71155008 eV
  | Hartree energy correction     :          -0.56532503 Ha         -15.38327672 eV
  | Entropy correction            :          -0.00000000 Ha          -0.00000000 eV
  | ---------------------------
  | Total energy                  :        -580.73675704 Ha      -15802.65118916 eV
  | Total energy, T -> 0          :        -580.73675704 Ha      -15802.65118916 eV  <-- do not rely on this value for anything but (periodic) metals
  | Electronic free energy        :        -580.73675704 Ha      -15802.65118916 eV

  Derived energy quantities:
  | Kinetic energy                :         582.30207953 Ha       15845.24578123 eV
  | Electrostatic energy          :       -1121.26240229 Ha      -30511.10235418 eV
  | Energy correction for multipole
  | error in Hartree potential    :           0.01475920 Ha           0.40161826 eV
  | Sum of eigenvalues per atom                           :       -4472.91834304 eV
  | Total energy (T->0) per atom                          :       -7901.32559458 eV  <-- do not rely on this value for anything but (periodic) metals
  | Electronic free energy per atom                       :       -7901.32559458 eV
  Evaluating new KS density using the density matrix
  Evaluating density matrix
  Time summed over all CPUs for getting density from density matrix: real work        1.532 s, elapsed        1.551 s
  Integration grid: deviation in total charge (<rho> - N_e) =   8.313350E-12

  Self-consistency convergence accuracy:
  | Change of charge density      :  0.3036E-02
  | Change of sum of eigenvalues  : -0.1085E+01 eV
  | Change of total energy        :  0.1203E-02 eV


------------------------------------------------------------
  End self-consistency iteration #     5       :  max(cpu_time)    wall_clock(cpu1)
  | Time for this iteration                     :        1.860 s           1.860 s
  | Charge density update                       :        0.844 s           0.843 s
  | Density mixing & preconditioning            :        0.096 s           0.096 s
  | Hartree multipole update                    :        0.001 s           0.000 s
  | Hartree multipole summation                 :        0.201 s           0.201 s
  | Integration                                 :        0.339 s           0.339 s
  | Solution of K.-S. eqns.                     :        0.380 s           0.380 s
  | Total energy evaluation                     :        0.000 s           0.001 s

  Partial memory accounting:
  | Current value for overall tracked memory usage:
  |   Minimum:        8.111 MB (on task 1)
  |   Maximum:        8.111 MB (on task 0)
  |   Average:        8.111 MB
  | Peak value for overall tracked memory usage:
  |   Minimum:       14.894 MB (on task 0 after allocating gradient_basis_wave)
  |   Maximum:       15.016 MB (on task 1 after allocating gradient_basis_wave)
  |   Average:       14.955 MB
  | Largest tracked array allocation so far:
  |   Minimum:        6.622 MB (KS_eigenvector_complex on task 0)
  |   Maximum:        6.622 MB (KS_eigenvector_complex on task 0)
  |   Average:        6.622 MB
  Note:  These values currently only include a subset of arrays which are explicitly tracked.
  The "true" memory usage will be greater.
------------------------------------------------------------

------------------------------------------------------------
          Begin self-consistency iteration #    6

  Date     :  20231005, Time     :  083342.206
------------------------------------------------------------
  Pulay mixing of updated and previous charge densities.
  Renormalizing the density to the exact electron count on the 3D integration grid.
  | Formal number of electrons (from input files) :      28.0000000000
  | Integrated number of electrons on 3D grid     :      27.9999819753
  | Charge integration error                      :      -0.0000180247
  | Normalization factor for density and gradient :       1.0000006437

  Evaluating partitioned Hartree potential by multipole expansion.
  | Original multipole sum: apparent total charge =  -0.304711E-13
  | Sum of charges compensated after spline to logarithmic grids =  -0.881244E-04
  | Analytical far-field extrapolation by fixed multipoles:
  | Hartree multipole sum: apparent total charge =   0.000000E+00
  Summing up the Hartree potential.
  Time summed over all CPUs for potential: real work        0.395 s, elapsed        0.398 s
  | RMS charge density error from multipole expansion :   0.114254E-01
  | Average real-space part of the electrostatic potential :      0.30899743 eV

  Integrating Hamiltonian matrix: batch-based integration.
  Time summed over all CPUs for integration: real work        0.678 s, elapsed        0.679 s

  Updating Kohn-Sham eigenvalues and eigenvectors using ELSI and the (modified) LAPACK eigensolver.
  Starting LAPACK eigensolver
  Finished Cholesky decomposition
  | Time :     0.000 s
  Finished transformation to standard eigenproblem
  | Time :     0.000 s
  Finished solving standard eigenproblem
  | Time :     0.000 s
  Finished back-transformation of eigenvectors
  | Time :     0.000 s

  Obtaining occupation numbers and chemical potential using ELSI.
  | Chemical potential (Fermi level):    -5.10042182 eV
  What follows are estimated values for band gap, HOMO, LUMO, etc.
  | They are estimated on a discrete k-point grid and not necessarily exact.
  | For converged numbers, create a DOS and/or band structure plot on a denser k-grid.

  Highest occupied state (VBM) at     -5.65881514 eV (relative to internal zero)
  | Occupation number:      2.00000000
  | K-point:       1 at    0.000000    0.000000    0.000000 (in units of recip. lattice)

  Lowest unoccupied state (CBM) at    -5.05823711 eV (relative to internal zero)
  | Occupation number:      0.00000000
  | K-point:      48 at    0.000000    0.416667    0.416667 (in units of recip. lattice)

  ESTIMATED overall HOMO-LUMO gap:      0.60057803 eV between HOMO at k-point 1 and LUMO at k-point 48
  | This appears to be an indirect band gap.
  | Smallest direct gap :      2.56796125 eV for k_point 1 at    0.000000    0.000000    0.000000 (in units of recip. lattice)
  The gap value is above 0.2 eV. Unless you are using a very sparse k-point grid,
  this system is most likely an insulator or a semiconductor.

  Total energy components:
  | Sum of eigenvalues            :        -328.75909104 Ha       -8945.99003423 eV
  | XC energy correction          :         -41.77592278 Ha       -1136.78069759 eV
  | XC potential correction       :          53.95012489 Ha        1468.05759222 eV
  | Free-atom electrostatic energy:        -263.59230454 Ha       -7172.71155008 eV
  | Hartree energy correction     :          -0.55955970 Ha         -15.22639427 eV
  | Entropy correction            :          -0.00000000 Ha          -0.00000000 eV
  | ---------------------------
  | Total energy                  :        -580.73675318 Ha      -15802.65108395 eV
  | Total energy, T -> 0          :        -580.73675318 Ha      -15802.65108395 eV  <-- do not rely on this value for anything but (periodic) metals
  | Electronic free energy        :        -580.73675318 Ha      -15802.65108395 eV

  Derived energy quantities:
  | Kinetic energy                :         582.30289564 Ha       15845.26798864 eV
  | Electrostatic energy          :       -1121.26372603 Ha      -30511.13837500 eV
  | Energy correction for multipole
  | error in Hartree potential    :           0.01471615 Ha           0.40044694 eV
  | Sum of eigenvalues per atom                           :       -4472.99501712 eV
  | Total energy (T->0) per atom                          :       -7901.32554198 eV  <-- do not rely on this value for anything but (periodic) metals
  | Electronic free energy per atom                       :       -7901.32554198 eV
  Evaluating new KS density using the density matrix
  Evaluating density matrix
  Time summed over all CPUs for getting density from density matrix: real work        1.420 s, elapsed        1.427 s
  Integration grid: deviation in total charge (<rho> - N_e) =   8.448353E-12

  Self-consistency convergence accuracy:
  | Change of charge density      :  0.5341E-03
  | Change of sum of eigenvalues  : -0.1533E+00 eV
  | Change of total energy        :  0.1052E-03 eV


------------------------------------------------------------
  End self-consistency iteration #     6       :  max(cpu_time)    wall_clock(cpu1)
  | Time for this iteration                     :        1.875 s           1.875 s
  | Charge density update                       :        0.784 s           0.785 s
  | Density mixing & preconditioning            :        0.099 s           0.099 s
  | Hartree multipole update                    :        0.001 s           0.000 s
  | Hartree multipole summation                 :        0.200 s           0.201 s
  | Integration                                 :        0.340 s           0.340 s
  | Solution of K.-S. eqns.                     :        0.450 s           0.450 s
  | Total energy evaluation                     :        0.000 s           0.000 s

  Partial memory accounting:
  | Current value for overall tracked memory usage:
  |   Minimum:        8.111 MB (on task 1)
[...]
  | Electronic free energy per atom                       :       -7901.32891831 eV
  Evaluating new KS density using the density matrix
  Evaluating density matrix
  Time summed over all CPUs for getting density from density matrix: real work        1.104 s, elapsed        1.117 s
  
  Evaluating density-matrix-based force terms: batch-based integration
  Evaluating density matrix
  Evaluating density matrix
  Integration grid: deviation in total charge (<rho> - N_e) =   8.348877E-12

  atomic forces [eV/Ang]:
  -----------------------
  atom #    1
   Hellmann-Feynman              :  0.443409E-07 -0.538168E-08 -0.199875E-06
   Ionic forces                  :  0.000000E+00  0.000000E+00  0.000000E+00
   Multipole                     : -0.140288E-07  0.944638E-08 -0.144318E-07
   Hartree pot. SCF incomplete   :  0.154257E-07 -0.111331E-07  0.603738E-08
   Pulay + GGA                   : -0.167088E-06  0.819435E-07  0.435002E-07
   ----------------------------------------------------------------
   Total forces(   1)            : -0.121350E-06  0.748751E-07 -0.164769E-06
  atom #    2
   Hellmann-Feynman              : -0.496079E-07  0.433878E-08  0.200193E-06
   Ionic forces                  :  0.000000E+00  0.000000E+00  0.000000E+00
   Multipole                     :  0.140306E-07 -0.944549E-08  0.144307E-07
   Hartree pot. SCF incomplete   : -0.161070E-07  0.106881E-07 -0.658601E-08
   Pulay + GGA                   :  0.171180E-06 -0.893855E-07 -0.438743E-07
   ----------------------------------------------------------------
   Total forces(   2)            :  0.119496E-06 -0.838041E-07  0.164163E-06


  Analytical stress tensor components [eV]         xx                  yy                  zz                  xy                  xz                  yz
  -----------------------------------------------------------------------------------------------------------------------------------------------------------
    Nuclear Hellmann-Feynman      :    -0.1598805728E+02   -0.1598825653E+02   -0.1598825653E+02   -0.2851686076E-06    0.1138339766E-06   -0.1727109052E-06
    Multipole Hellmann-Feynman    :    -0.3714776844E+02   -0.3714777710E+02   -0.3714777712E+02   -0.8238813246E-06    0.3988588588E-06   -0.5620482327E-06
    On-site Multipole corrections :    -0.2829901221E+00   -0.2829901223E+00   -0.2829901224E+00    0.1757779695E-09   -0.9920591506E-10    0.1469207035E-09
    Strain deriv. of the orbitals :     0.5341821151E+02    0.5341841947E+02    0.5341841950E+02    0.1020183185E-05   -0.4179163399E-06    0.5830289794E-06
  -----------------------------------------------------------------------------------------------------------------------------------------------------------
  Sum of all contributions        :    -0.6043319937E-03   -0.6042796598E-03   -0.6042711013E-03   -0.8869096957E-07    0.9467728968E-07   -0.1515832378E-06

  +-------------------------------------------------------------------+
  |              Analytical stress tensor - Symmetrized               |
  |                  Cartesian components [eV/A**3]                   |
  +-------------------------------------------------------------------+
  |                x                y                z                |
  |                                                                   |
  |  x        -0.00001471      -0.00000000       0.00000000           |
  |  y        -0.00000000      -0.00001470      -0.00000000           |
  |  z         0.00000000      -0.00000000      -0.00001470           |
  |                                                                   |
  |  Pressure:       0.00001470   [eV/A**3]                           |
  |                                                                   |
  +-------------------------------------------------------------------+

 * Warning: Stress tensor is anisotropic. Be aware that pressure is an isotropic quantity.


  Self-consistency convergence accuracy:
  | Change of charge density      :  0.5600E-08
  | Change of sum of eigenvalues  : -0.3967E-05 eV
  | Change of total energy        :  0.9745E-09 eV
  | Change of forces              :  0.1509E-07 eV/A

  Writing Kohn-Sham eigenvalues.
  K-point:       1 at    0.000000    0.000000    0.000000 (in units of recip. lattice)

  State    Occupation    Eigenvalue [Ha]    Eigenvalue [eV]
      1       2.00000         -65.763115        -1789.50542
      2       2.00000         -65.763115        -1789.50542
      3       2.00000          -5.122010         -139.37698
      4       2.00000          -5.121761         -139.37021
      5       2.00000          -3.505870          -95.39956
      6       2.00000          -3.505870          -95.39956
      7       2.00000          -3.505870          -95.39956
      8       2.00000          -3.505313          -95.38442
      9       2.00000          -3.505313          -95.38442
     10       2.00000          -3.505313          -95.38442
     11       2.00000          -0.640154          -17.41947
     12       2.00000          -0.206521           -5.61973
     13       2.00000          -0.206521           -5.61973
     14       2.00000          -0.206521           -5.61973
     15       0.00000          -0.112648           -3.06531
     16       0.00000          -0.112648           -3.06531
     17       0.00000          -0.112648           -3.06531
     18       0.00000          -0.092636           -2.52076
     19       0.00000           0.083113            2.26161
     20       0.00000           0.083113            2.26161

  What follows are estimated values for band gap, HOMO, LUMO, etc.
  | They are estimated on a discrete k-point grid and not necessarily exact.
  | For converged numbers, create a DOS and/or band structure plot on a denser k-grid.

  Highest occupied state (VBM) at     -5.61972791 eV (relative to internal zero)
  | Occupation number:      2.00000000
  | K-point:       1 at    0.000000    0.000000    0.000000 (in units of recip. lattice)

  Lowest unoccupied state (CBM) at    -4.97452518 eV (relative to internal zero)
  | Occupation number:      0.00000000
  | K-point:     690 at    0.583333    0.000000    0.583333 (in units of recip. lattice)

  ESTIMATED overall HOMO-LUMO gap:      0.64520274 eV between HOMO at k-point 1 and LUMO at k-point 690
  | This appears to be an indirect band gap.
  | Smallest direct gap :      2.55441674 eV for k_point 1 at    0.000000    0.000000    0.000000 (in units of recip. lattice)
  The gap value is above 0.2 eV. Unless you are using a very sparse k-point grid,
  this system is most likely an insulator or a semiconductor.
  | Chemical Potential                          :    -5.01672480 eV

  Self-consistency cycle converged.


------------------------------------------------------------
  End self-consistency iteration #     7       :  max(cpu_time)    wall_clock(cpu1)
  | Time for this iteration                     :       15.252 s          15.252 s
  | Charge density & force component update     :       13.259 s          13.259 s
  | Density mixing                              :        0.001 s           0.001 s
  | Hartree multipole update                    :        0.001 s           0.000 s
  | Hartree multipole summation                 :        0.875 s           0.876 s
  | Hartree pot. SCF incomplete forces          :        0.479 s           0.479 s
  | Integration                                 :        0.272 s           0.272 s
  | Solution of K.-S. eqns.                     :        0.365 s           0.365 s
  | Total energy evaluation                     :        0.000 s           0.000 s

  Partial memory accounting:
  | Current value for overall tracked memory usage:
  |   Minimum:       14.845 MB (on task 1)
  |   Maximum:       14.845 MB (on task 0)
  |   Average:       14.845 MB
  | Peak value for overall tracked memory usage:
  |   Minimum:       29.976 MB (on task 1 after allocating d_wave)
  |   Maximum:       30.085 MB (on task 0 after allocating d_wave)
  |   Average:       30.031 MB
  | Largest tracked array allocation so far:
  |   Minimum:        6.622 MB (KS_eigenvector_complex on task 0)
  |   Maximum:        6.622 MB (KS_eigenvector_complex on task 0)
  |   Average:        6.622 MB
  Note:  These values currently only include a subset of arrays which are explicitly tracked.
  The "true" memory usage will be greater.
------------------------------------------------------------
  Removing unitary transformations (pure translations, rotations) from forces on atoms.
  Atomic forces before filtering:
  | Net force on center of mass :  -0.185416E-08 -0.892897E-08 -0.605953E-09 eV/A
  Atomic forces after filtering:
  | Net force on center of mass :  -0.212677E-22  0.000000E+00  0.000000E+00 eV/A

  Energy and forces in a compact form:
  | Total energy uncorrected      :         -0.158026578366142E+05 eV
  | Total energy corrected        :         -0.158026578366142E+05 eV  <-- do not rely on this value for anything but (periodic) metals
  | Electronic free energy        :         -0.158026578366142E+05 eV
  Total atomic forces (unitary forces cleaned) [eV/Ang]:
  |    1         -0.120422848363884E-06          0.793396272638629E-07         -0.164466176600114E-06
  |    2          0.120422848363884E-06         -0.793396272638629E-07          0.164466176600114E-06

  ------------------------------------ 
  Start decomposition of the XC Energy 
  ------------------------------------ 
  X and C from original XC functional choice 
  Hartree-Fock Energy :          0.000000000 Ha              0.000000000 eV
  X Energy            :        -40.667452816 Ha          -1106.617695209 eV
  C Energy            :         -1.092309631 Ha            -29.723257367 eV
  XC Energy w/o HF    :        -41.759762447 Ha          -1136.340952576 eV
  Total XC Energy     :        -41.759762447 Ha          -1136.340952576 eV
  ------------------------------------ 
  LDA X and C from self-consistent density 
  X Energy LDA        :        -37.612671057 Ha          -1023.492854214 eV
  C Energy LDA        :         -2.145139444 Ha            -58.372214227 eV
  ------------------------------------ 
  End decomposition of the XC Energy 
  ------------------------------------ 

------------------------------------------------------------
  Relaxation / MD: End force evaluation.       :  max(cpu_time)    wall_clock(cpu1)
  | Time for this force evaluation              :       28.175 s          28.178 s

------------------------------------------------------------
  Geometry optimization: Attempting to predict improved coordinates.

  +-------------------------------------------------------------------+
  | Generalized derivatives on lattice vectors [eV/A]                 |
  +-------------------------------------------------------------------+
  |lattice_vector       0.00011032      -0.00011032      -0.00011035  |
  |lattice_vector      -0.00011029       0.00011027      -0.00011026  |
  |lattice_vector      -0.00011035      -0.00011030       0.00011030  |
  +-------------------------------------------------------------------+
  | Forces on lattice vectors cleaned from atomic contributions [eV/A]|
  +-------------------------------------------------------------------+
  |lattice_vector      -0.00011032       0.00011032       0.00011035  |
  |lattice_vector       0.00011029      -0.00011027       0.00011026  |
  |lattice_vector       0.00011035       0.00011030      -0.00011030  |
  +-------------------------------------------------------------------+
  Removing unitary transformations (pure translations, rotations) from forces on atoms.
  Atomic forces before filtering:
  | Net force on center of mass :  -0.212677E-22  0.000000E+00  0.000000E+00 eV/A
  Atomic forces after filtering:
  | Net force on center of mass :  -0.212677E-22  0.000000E+00  0.000000E+00 eV/A
  Net remaining forces (excluding translations, rotations) in present geometry:
  || Forces on atoms   || =   0.164466E-06 eV/A.
  || Forces on lattice || =   0.110354E-03 eV/A^3.
  Maximum force component is  0.110354E-03 eV/A.
  Present geometry is converged.

------------------------------------------------------------
  Final atomic structure:
                         x [A]             y [A]             z [A]
  lattice_vector        -0.00000003        2.73899405        2.73899405
  lattice_vector         2.73899410        0.00000001        2.73899408
  lattice_vector         2.73899409        2.73899408        0.00000001

            atom         0.00000000       -0.00000000        0.00000001  Si
            atom         1.36949704        1.36949704        1.36949703  Si

  Fractional coordinates:
                         L1                L2                L3
       atom_frac         0.00000000        0.00000000       -0.00000000  Si
       atom_frac         0.25000000        0.25000000        0.25000000  Si
------------------------------------------------------------

------------------------------------------------------------------------------
  Final output of selected total energy values:

  The following output summarizes some interesting total energy values
  at the end of a run (AFTER all relaxation, molecular dynamics, etc.).

  | Total energy of the DFT / Hartree-Fock s.c.f. calculation      :         -15802.657836614 eV
  | Final zero-broadening corrected energy (caution - metals only) :         -15802.657836614 eV
  | For reference only, the value of 1 Hartree used in FHI-aims is :             27.211384500 eV
  | For reference only, the overall average (free atom contribution
  | + realspace contribution) of the electrostatic potential after
  | s.c.f. convergence is                                          :            -12.499504187 eV

  Before relying on these values, please be sure to understand exactly which
  total energy value is referred to by a given number. Different objects may
  all carry the same name 'total energy'. Definitions:

  Total energy of the DFT / Hartree-Fock s.c.f. calculation:
  | Note that this energy does not include ANY quantities calculated after the
  | s.c.f. cycle, in particular not ANY RPA, MP2, etc. many-body perturbation terms.

  Final zero-broadening corrected energy:
  | For metallic systems only, a broadening of the occupation numbers at the Fermi
  | level can be extrapolated back to zero broadening by an electron-gas inspired
  | formula. For all systems that are not real metals, this value can be
  | meaningless and should be avoided.

------------------------------------------------------------------------------
  Methods described in the following list of references were used in this FHI-aims run.
  If you publish the results, please make sure to cite these reference if they apply.
  FHI-aims is an academic code, and for our developers (often, Ph.D. students
  and postdocs), scientific credit in the community is essential.
  Thank you for helping us!

  For any use of FHI-aims, please cite:

    Volker Blum, Ralf Gehrke, Felix Hanke, Paula Havu, Ville Havu,
    Xinguo Ren, Karsten Reuter, and Matthias Scheffler
    'Ab initio molecular simulations with numeric atom-centered orbitals'
    Computer Physics Communications 180, 2175-2196 (2009)
    http://doi.org/10.1016/j.cpc.2009.06.022


  For the analytical stress tensor used in your run, please cite:

    Franz Knuth, Christian Carbogno, Viktor Atalla, Volker Blum, Matthias Scheffler
    'All-electron formalism for total energy strain derivatives and
    stress tensor components for numeric atom-centered orbitals'
    Computer Physics Communications 190, 33-50 (2015).
    http://doi.org/10.1016/j.cpc.2015.01.003


  The provided symmetry information was generated with SPGlib:

    Atsushi Togo, Yusuke Seto, Dimitar Pashov
    SPGlib 1.7.3 obtained from http://spglib.sourceforge.net
    Copyright (C) 2008 Atsushi Togo


  The ELSI infrastructure was used in your run to solve the Kohn-Sham electronic structure.
  Please check out http://elsi-interchange.org to learn more.
  If scalability is important for your project, please acknowledge ELSI by citing:

    V. W-z. Yu, F. Corsetti, A. Garcia, W. P. Huhn, M. Jacquelin, W. Jia,
    B. Lange, L. Lin, J. Lu, W. Mi, A. Seifitokaldani, A. Vazquez-Mayagoitia,
    C. Yang, H. Yang, and V. Blum
    'ELSI: A unified software interface for Kohn-Sham electronic structure solvers'
    Computer Physics Communications 222, 267-285 (2018).
    http://doi.org/10.1016/j.cpc.2017.09.007


  For the real-space grid partitioning and parallelization used in this calculation, please cite:

    Ville Havu, Volker Blum, Paula Havu, and Matthias Scheffler,
    'Efficient O(N) integration for all-electron electronic structure calculation'
    'using numerically tabulated basis functions'
    Journal of Computational Physics 228, 8367-8379 (2009).
    http://doi.org/10.1016/j.jcp.2009.08.008

  Of course, there are many other important community references, e.g., those cited in the
  above references. Our list is limited to references that describe implementations in the
  FHI-aims code. The reason is purely practical (length of this list) - please credit others as well.

------------------------------------------------------------
          Leaving FHI-aims.
          Date     :  20231005, Time     :  083553.529

          Computational steps:
          | Number of self-consistency cycles          :           41
          | Number of SCF (re)initializations          :            4
          | Number of relaxation steps                 :            3

          Detailed time accounting                     :  max(cpu_time)    wall_clock(cpu1)
          | Total time                                  :      141.733 s         141.742 s
          | Preparation time                            :        0.117 s           0.116 s
          | Boundary condition initalization            :        0.224 s           0.222 s
          | Grid partitioning                           :        0.093 s           0.094 s
          | Preloading free-atom quantities on grid     :        0.441 s           0.442 s
          | Free-atom superposition energy              :        0.061 s           0.060 s
          | Total time for integrations                 :       14.214 s          14.215 s
          | Total time for solution of K.-S. equations  :       15.971 s          15.973 s
          | Total time for EV reorthonormalization      :        0.177 s           0.176 s
          | Total time for density & force components   :       88.776 s          88.782 s
          | Total time for mixing & preconditioning     :        3.065 s           3.066 s
          | Total time for Hartree multipole update     :        0.034 s           0.034 s
          | Total time for Hartree multipole sum        :       14.505 s          14.505 s
          | Total time for total energy evaluation      :        0.018 s           0.016 s
          | Total time NSC force correction             :        3.921 s           3.923 s
          | Total time for scaled ZORA corrections      :        0.000 s           0.000 s

          Partial memory accounting:
          | Residual value for overall tracked memory usage across tasks:     0.000000 MB (should be 0.000000 MB)
          | Peak values for overall tracked memory usage:
          |   Minimum:       29.976 MB (on task 1 after allocating d_wave)
          |   Maximum:       30.085 MB (on task 0 after allocating d_wave)
          |   Average:       30.031 MB
          | Largest tracked array allocation:
          |   Minimum:        6.622 MB (KS_eigenvector_complex on task 0)
          |   Maximum:        6.622 MB (KS_eigenvector_complex on task 0)
          |   Average:        6.622 MB
          Note:  These values currently only include a subset of arrays which are explicitly tracked.
          The "true" memory usage will be greater.

          Have a nice day.
------------------------------------------------------------
