<?xml version="1.0" encoding="ISO-8859-1"?>
<modeling>
 <generator>
  <i name="program" type="string">vasp </i>
  <i name="version" type="string">6.2.1  </i>
  <i name="subversion" type="string">16May21 (build Oct 27 2021 18:14:32) complex                          parallel </i>
  <i name="platform" type="string">LinuxIFC </i>
  <i name="date" type="string">2021 10 28 </i>
  <i name="time" type="string">10:32:09 </i>
 </generator>
 <incar>
  <i type="string" name="PREC">Accurate</i>
  <i type="string" name="ALGO">Fast</i>
  <i type="int" name="ISPIN">     2</i>
  <i type="int" name="NELM">   200</i>
  <i type="int" name="IBRION">     2</i>
  <i name="EDIFF">      0.00001000</i>
  <i name="EDIFFG">     -0.02000000</i>
  <i type="int" name="NSW">    99</i>
  <i type="int" name="ISIF">     3</i>
  <i name="ENCUT">    680.00000000</i>
  <i name="ENAUG">   1360.00000000</i>
  <v name="MAGMOM">      0.00000000      0.00000000</v>
  <i type="string" name="LREAL">Auto</i>
  <i type="int" name="ISMEAR">    -5</i>
  <i name="SIGMA">      0.05000000</i>
  <i name="KSPACING">      0.28752477</i>
  <i type="logical" name="LWAVE"> F  </i>
  <i type="logical" name="LCHARG"> F  </i>
  <i type="logical" name="LVTOT"> T  </i>
  <i type="int" name="LORBIT">    11</i>
  <i type="logical" name="LELF"> T  </i>
  <i type="logical" name="LASPH"> T  </i>
  <i type="logical" name="LAECHG"> T  </i>
  <i type="logical" name="LMIXTAU"> T  </i>
 </incar>
 <primitive_cell>
  <structure name="primitive_cell" >
   <crystal>
    <varray name="basis" >
     <v>       3.34889800       0.00000000       1.93348700 </v>
     <v>       1.11629900       3.15737200       1.93348700 </v>
     <v>       0.00000000       0.00000000       3.86697500 </v>
    </varray>
    <i name="volume">     40.88829843 </i>
    <varray name="rec_basis" >
     <v>       0.29860569      -0.10557300       0.00000000 </v>
     <v>       0.00000000       0.31671909       0.00000000 </v>
     <v>      -0.14930281      -0.10557302       0.25860007 </v>
    </varray>
   </crystal>
   <varray name="positions" >
    <v>       0.25000000       0.25000000       0.25000000 </v>
    <v>       0.00000000       0.00000000       0.00000000 </v>
   </varray>
  </structure>
  <varray name="primitive_index" >
   <v type="int" >        1 </v>
   <v type="int" >        2 </v>
  </varray>
 </primitive_cell>
 <kpoints>
  <generation param="Gamma">
   <v type="int" name="divisions">       7        7        7 </v>
   <v name="usershift">      0.00000000       0.00000000       0.00000000 </v>
   <v name="genvec1">      0.14285714      -0.00000000       0.00000000 </v>
   <v name="genvec2">      0.00000000       0.14285714       0.00000000 </v>
   <v name="genvec3">      0.00000000       0.00000000       0.14285714 </v>
   <v name="shift">      0.00000000       0.00000000       0.00000000 </v>
  </generation>
  <varray name="kpointlist" >
   <v>       0.00000000       0.00000000       0.00000000 </v>
   <v>       0.14285714       0.00000000       0.00000000 </v>
   <v>       0.28571429       0.00000000       0.00000000 </v>
   <v>       0.42857143       0.00000000       0.00000000 </v>
   <v>       0.14285714       0.14285714       0.00000000 </v>
   <v>       0.28571429       0.14285714       0.00000000 </v>
   <v>       0.42857143       0.14285714       0.00000000 </v>
   <v>      -0.42857143       0.14285714       0.00000000 </v>
   <v>      -0.28571429       0.14285714       0.00000000 </v>
   <v>      -0.14285714       0.14285714       0.00000000 </v>
   <v>       0.28571429       0.28571429       0.00000000 </v>
   <v>       0.42857143       0.28571429       0.00000000 </v>
   <v>      -0.42857143       0.28571429       0.00000000 </v>
   <v>      -0.28571429       0.28571429       0.00000000 </v>
   <v>       0.42857143       0.42857143       0.00000000 </v>
   <v>      -0.42857143       0.42857143       0.00000000 </v>
   <v>       0.42857143       0.28571429       0.14285714 </v>
   <v>      -0.42857143       0.28571429       0.14285714 </v>
   <v>      -0.42857143       0.42857143       0.14285714 </v>
   <v>      -0.28571429       0.42857143       0.14285714 </v>
  </varray>
  <varray name="weights" >
   <v>       0.00291545 </v>
   <v>       0.02332362 </v>
   <v>       0.02332362 </v>
   <v>       0.02332362 </v>
   <v>       0.01749271 </v>
   <v>       0.06997085 </v>
   <v>       0.06997085 </v>
   <v>       0.06997085 </v>
   <v>       0.06997085 </v>
   <v>       0.03498542 </v>
   <v>       0.01749271 </v>
   <v>       0.06997085 </v>
   <v>       0.06997085 </v>
   <v>       0.03498542 </v>
   <v>       0.01749271 </v>
   <v>       0.03498542 </v>
   <v>       0.06997085 </v>
   <v>       0.13994169 </v>
   <v>       0.06997085 </v>
   <v>       0.06997085 </v>
  </varray>
  <varray name="tetrahedronlist"  type="int" >
   <v type="int" >       24        1        2        2        5 </v>
   <v type="int" >       48        2        5        6       10 </v>
   <v type="int" >       48        2        3        6       10 </v>
   <v type="int" >       24        2        2        5       10 </v>
   <v type="int" >       48        3        6        7        9 </v>
   <v type="int" >       48        3        4        7        9 </v>
   <v type="int" >       48        3        6        9       10 </v>
   <v type="int" >       48        4        7        8        8 </v>
   <v type="int" >       24        4        4        8        8 </v>
   <v type="int" >       48        4        7        8        9 </v>
   <v type="int" >       24        5        6        6       11 </v>
   <v type="int" >       24        5        6        6       10 </v>
   <v type="int" >       48        6       11       12       17 </v>
   <v type="int" >       48        6        7       12       17 </v>
   <v type="int" >       48        6        7        9       17 </v>
   <v type="int" >       24        6        6       11       17 </v>
   <v type="int" >       24        6        6       10       17 </v>
   <v type="int" >       48        6        9       10       17 </v>
   <v type="int" >       48        7       12       13       18 </v>
   <v type="int" >       48        7        8       13       18 </v>
   <v type="int" >       48        7        8        8       18 </v>
   <v type="int" >       48        7       12       17       18 </v>
   <v type="int" >       48        7        9       17       18 </v>
   <v type="int" >       48        7        8        9       18 </v>
   <v type="int" >       48        8       13       14       18 </v>
   <v type="int" >       48        8        9       14       18 </v>
   <v type="int" >       48        8       13       18       18 </v>
   <v type="int" >       24        8        8       18       18 </v>
   <v type="int" >       24        9        9       14       17 </v>
   <v type="int" >       24        9        9       10       17 </v>
   <v type="int" >       48        9       14       17       18 </v>
   <v type="int" >       24       11       12       12       15 </v>
   <v type="int" >       24       11       12       12       17 </v>
   <v type="int" >       48       12       15       16       19 </v>
   <v type="int" >       48       12       13       16       19 </v>
   <v type="int" >       48       12       13       18       19 </v>
   <v type="int" >       24       12       12       15       19 </v>
   <v type="int" >       24       12       12       17       19 </v>
   <v type="int" >       48       12       17       18       19 </v>
   <v type="int" >       24       13       13       16       20 </v>
   <v type="int" >       24       13       13       14       20 </v>
   <v type="int" >       48       13       14       18       20 </v>
   <v type="int" >       48       13       16       19       20 </v>
   <v type="int" >       48       13       18       19       20 </v>
   <v type="int" >       48       13       18       18       20 </v>
   <v type="int" >       24       14       18       18       20 </v>
   <v type="int" >       24       14       17       18       18 </v>
   <v type="int" >       12       15       15       16       16 </v>
   <v type="int" >       24       15       16       16       19 </v>
   <v type="int" >       12       16       16       19       19 </v>
   <v type="int" >       24       16       19       19       20 </v>
   <v type="int" >       24       17       18       18       19 </v>
   <v type="int" >       48       18       19       20       20 </v>
   <v type="int" >       24       18       18       20       20 </v>
   <v type="int" >       24       18       18       19       20 </v>
   <v type="int" >       12       19       19       20       20 </v>
   <v type="int" >       24       19       20       20       20 </v>
   <v type="int" >        6       20       20       20       20 </v>
  </varray>
  <i name="volumeweight">      0.00048591 </i>
 </kpoints>
 <parameters>
  <separator name="general" >
   <i type="string" name="SYSTEM">unknown system</i>
   <i type="logical" name="LCOMPAT"> F  </i>
  </separator>
  <separator name="electronic" >
   <i type="string" name="PREC">accura</i>
   <i name="ENMAX">    680.00000000</i>
   <i name="ENAUG">   1360.00000000</i>
   <i name="EDIFF">      0.00001000</i>
   <i type="int" name="IALGO">    68</i>
   <i type="int" name="IWAVPR">    11</i>
   <i type="int" name="NBANDS">     8</i>
   <i type="int" name="NBANDSLOW">    -1</i>
   <i type="int" name="NBANDSHIGH">    -1</i>
   <i name="NELECT">      8.00000000</i>
   <i type="int" name="TURBO">     0</i>
   <i type="int" name="IRESTART">     0</i>
   <i type="int" name="NREBOOT">     0</i>
   <i type="int" name="NMIN">     0</i>
   <i name="EREF">      0.00000000</i>
   <separator name="electronic smearing" >
    <i type="int" name="ISMEAR">    -5</i>
    <i name="SIGMA">      0.05000000</i>
    <i name="KSPACING">      0.28752477</i>
    <i type="logical" name="KGAMMA"> T  </i>
    <i type="logical" name="KBLOWUP"> T  </i>
   </separator>
   <separator name="electronic projectors" >
    <i type="logical" name="LREAL"> T  </i>
    <v name="ROPT">     -0.00025000</v>
    <i type="int" name="LMAXPAW">  -100</i>
    <i type="int" name="LMAXMIX">     2</i>
    <i type="logical" name="NLSPLINE"> F  </i>
   </separator>
   <separator name="electronic startup" >
    <i type="int" name="ISTART">     0</i>
    <i type="int" name="ICHARG">     2</i>
    <i type="int" name="INIWAV">     1</i>
   </separator>
   <separator name="electronic spin" >
    <i type="int" name="ISPIN">     2</i>
    <i type="logical" name="LNONCOLLINEAR"> F  </i>
    <v name="MAGMOM">      0.00000000      0.00000000</v>
    <i name="NUPDOWN">     -1.00000000</i>
    <i type="logical" name="LSORBIT"> F  </i>
    <v name="SAXIS">      0.00000000      0.00000000      1.00000000</v>
    <i type="logical" name="LSPIRAL"> F  </i>
    <v name="QSPIRAL">      0.00000000      0.00000000      0.00000000</v>
    <i type="logical" name="LZEROZ"> F  </i>
   </separator>
   <separator name="electronic exchange-correlation" >
    <i type="logical" name="LASPH"> T  </i>
    <i type="logical" name="LMETAGGA"> F  </i>
   </separator>
   <separator name="electronic convergence" >
    <i type="int" name="NELM">   200</i>
    <i type="int" name="NELMDL">    -5</i>
    <i type="int" name="NELMIN">     2</i>
    <i name="ENINI">    680.00000000</i>
    <separator name="electronic convergence detail" >
     <i type="logical" name="LDIAG"> T  </i>
     <i type="logical" name="LSUBROT"> F  </i>
     <i name="WEIMIN">      0.00100000</i>
     <i name="EBREAK">      0.00000031</i>
     <i name="DEPER">      0.30000000</i>
     <i type="int" name="NRMM">     4</i>
     <i name="TIME">      0.40000000</i>
    </separator>
   </separator>
   <separator name="electronic mixer" >
    <i name="AMIX">      0.40000000</i>
    <i name="BMIX">      1.00000000</i>
    <i name="AMIN">      0.10000000</i>
    <i name="AMIX_MAG">      1.60000000</i>
    <i name="BMIX_MAG">      1.00000000</i>
    <separator name="electronic mixer details" >
     <i type="int" name="IMIX">     4</i>
     <i type="logical" name="MIXFIRST"> F  </i>
     <i type="int" name="MAXMIX">   -45</i>
     <i name="WC">    100.00000000</i>
     <i type="int" name="INIMIX">     1</i>
     <i type="int" name="MIXPRE">     1</i>
     <i type="int" name="MREMOVE">     5</i>
    </separator>
   </separator>
   <separator name="electronic dipolcorrection" >
    <i type="logical" name="LDIPOL"> F  </i>
    <i type="logical" name="LMONO"> F  </i>
    <i type="int" name="IDIPOL">     0</i>
    <i name="EPSILON">      1.00000000</i>
    <v name="DIPOL">   -100.00000000   -100.00000000   -100.00000000</v>
    <i name="EFIELD">      0.00000000</i>
   </separator>
  </separator>
  <separator name="grids" >
   <i type="int" name="NGX">    36</i>
   <i type="int" name="NGY">    36</i>
   <i type="int" name="NGZ">    36</i>
   <i type="int" name="NGXF">    72</i>
   <i type="int" name="NGYF">    72</i>
   <i type="int" name="NGZF">    72</i>
   <i type="logical" name="ADDGRID"> F  </i>
  </separator>
  <separator name="ionic" >
   <i type="int" name="NSW">    99</i>
   <i type="int" name="IBRION">     2</i>
   <i type="int" name="MDALGO">     0</i>
   <i type="int" name="ISIF">     3</i>
   <i name="PSTRESS">      0.00000000</i>
   <i name="EDIFFG">     -0.02000000</i>
   <i type="int" name="NFREE">     1</i>
   <i name="POTIM">      0.50000000</i>
   <i name="SMASS">     -3.00000000</i>
   <i name="SCALEE">      1.00000000</i>
  </separator>
  <separator name="ionic md" >
   <i name="TEBEG">      0.00010000</i>
   <i name="TEEND">      0.00010000</i>
   <i type="int" name="NBLOCK">     1</i>
   <i type="int" name="KBLOCK">    99</i>
   <i type="int" name="NPACO">   256</i>
   <i name="APACO">     16.00000000</i>
  </separator>
  <separator name="symmetry" >
   <i type="int" name="ISYM">     2</i>
   <i name="SYMPREC">      0.00001000</i>
  </separator>
  <separator name="dos" >
   <i type="int" name="LORBIT">    11</i>
   <v name="RWIGS">     -1.00000000</v>
   <i type="int" name="NEDOS">   301</i>
   <i name="EMIN">     10.00000000</i>
   <i name="EMAX">    -10.00000000</i>
   <i name="EFERMI">      0.00000000</i>
  </separator>
  <separator name="writing" >
   <i type="int" name="NWRITE">     2</i>
   <i type="logical" name="LWAVE"> F  </i>
   <i type="logical" name="LDOWNSAMPLE"> F  </i>
   <i type="logical" name="LCHARG"> F  </i>
   <i type="logical" name="LPARD"> F  </i>
   <i type="logical" name="LVTOT"> T  </i>
   <i type="logical" name="LVHAR"> F  </i>
   <i type="logical" name="LELF"> T  </i>
   <i type="logical" name="LOPTICS"> F  </i>
   <v name="STM">      0.00000000      0.00000000      0.00000000      0.00000000      0.00000000      0.00000000      0.00000000</v>
  </separator>
  <separator name="performance" >
   <i type="int" name="NPAR">     4</i>
   <i type="int" name="NSIM">     4</i>
   <i type="int" name="NBLK">    -1</i>
   <i type="logical" name="LPLANE"> T  </i>
   <i type="logical" name="LSCALAPACK"> F  </i>
   <i type="logical" name="LSCAAWARE"> F  </i>
   <i type="logical" name="LSCALU"> F  </i>
   <i type="logical" name="LASYNC"> F  </i>
   <i type="logical" name="LORBITALREAL"> F  </i>
  </separator>
  <separator name="miscellaneous" >
   <i type="int" name="IDIOT">     3</i>
   <i type="int" name="PHON_NSTRUCT">    -1</i>
   <i type="logical" name="LMUSIC"> F  </i>
   <v name="POMASS">     28.08500000</v>
   <v name="DARWINR">      0.00000000</v>
   <v name="DARWINV">      1.00000000</v>
   <i type="logical" name="LCORR"> T  </i>
  </separator>
  <i type="logical" name="GGA_COMPAT"> T  </i>
  <i type="logical" name="LBERRY"> F  </i>
  <i type="int" name="ICORELEVEL">     0</i>
  <i type="logical" name="LDAU"> F  </i>
  <i type="int" name="I_CONSTRAINED_M">     0</i>
  <separator name="electronic exchange-correlation" >
   <i type="string" name="GGA">--</i>
   <i type="int" name="VOSKOWN">     0</i>
   <i type="logical" name="LHFCALC"> F  </i>
   <i type="string" name="PRECFOCK"></i>
   <i type="logical" name="LSYMGRAD"> F  </i>
   <i type="logical" name="LHFONE"> F  </i>
   <i type="logical" name="LRHFCALC"> F  </i>
   <i type="logical" name="LTHOMAS"> F  </i>
   <i type="logical" name="LMODELHF"> F  </i>
   <i type="logical" name="LFOCKACE"> F  </i>
   <i name="ENCUT4O">     -1.00000000</i>
   <i type="int" name="EXXOEP">     0</i>
   <i type="int" name="FOURORBIT">     0</i>
   <i name="AEXX">      0.00000000</i>
   <i name="HFALPHA">      0.00000000</i>
   <i name="MCALPHA">      0.00000000</i>
   <i name="ALDAX">      1.00000000</i>
   <i name="AGGAX">      1.00000000</i>
   <i name="ALDAC">      1.00000000</i>
   <i name="AGGAC">      1.00000000</i>
   <i type="int" name="NKREDX">     1</i>
   <i type="int" name="NKREDY">     1</i>
   <i type="int" name="NKREDZ">     1</i>
   <i type="logical" name="SHIFTRED"> F  </i>
   <i type="logical" name="ODDONLY"> F  </i>
   <i type="logical" name="EVENONLY"> F  </i>
   <i type="int" name="LMAXFOCK">     0</i>
   <i type="int" name="NMAXFOCKAE">     0</i>
   <i type="logical" name="LFOCKAEDFT"> F  </i>
   <i name="HFSCREEN">      0.00000000</i>
   <i name="HFSCREENC">      0.00000000</i>
   <i type="int" name="NBANDSGWLOW">     0</i>
  </separator>
  <separator name="vdW DFT" >
   <i type="logical" name="LUSE_VDW"> F  </i>
   <i name="Zab_VDW">     -0.84910000</i>
   <i name="PARAM1">      0.12340000</i>
   <i name="PARAM2">      1.00000000</i>
   <i name="PARAM3">      0.00000000</i>
  </separator>
  <separator name="model GW" >
   <i type="int" name="MODEL_GW">     0</i>
   <i name="MODEL_EPS0">     12.26648953</i>
   <i name="MODEL_ALPHA">      1.00000000</i>
  </separator>
  <separator name="linear response parameters" >
   <i type="logical" name="LEPSILON"> F  </i>
   <i type="logical" name="LRPA"> F  </i>
   <i type="logical" name="LNABLA"> F  </i>
   <i type="logical" name="LVEL"> F  </i>
   <i type="int" name="KINTER">     0</i>
   <i name="CSHIFT">      0.10000000</i>
   <i name="OMEGAMAX">     -1.00000000</i>
   <i name="DEG_THRESHOLD">      0.00200000</i>
   <i name="RTIME">     -0.10000000</i>
   <i name="WPLASMAI">      0.00000000</i>
   <v name="DFIELD">      0.00000000      0.00000000      0.00000000</v>
   <v name="WPLASMA">      0.00000000      0.00000000      0.00000000      0.00000000      0.00000000      0.00000000      0.00000000      0.00000000      0.00000000</v>
  </separator>
  <separator name="orbital magnetization" >
   <i type="logical" name="NUCIND"> F  </i>
   <v name="MAGPOS">      0.00000000      0.00000000      0.00000000</v>
   <i type="logical" name="LNICSALL"> T  </i>
   <i type="logical" name="ORBITALMAG"> F  </i>
   <i type="logical" name="LMAGBLOCH"> F  </i>
   <i type="logical" name="LCHIMAG"> F  </i>
   <i type="logical" name="LGAUGE"> T  </i>
   <i type="int" name="MAGATOM">     0</i>
   <v name="MAGDIPOL">      0.00000000      0.00000000      0.00000000</v>
   <v name="AVECCONST">      0.00000000      0.00000000      0.00000000</v>
  </separator>
  <separator name="response functions" >
   <i type="logical" name="LFINITE_TEMPERATURE"> F  </i>
   <i type="logical" name="LADDER"> F  </i>
   <i type="logical" name="LRPAFORCE"> F  </i>
   <i type="logical" name="LFXC"> F  </i>
   <i type="logical" name="LHARTREE"> T  </i>
   <i type="int" name="IBSE">     0</i>
   <v type="int" name="KPOINT">    -1     0     0     0</v>
   <i type="logical" name="LTCTC"> F  </i>
   <i type="logical" name="LTCTE"> F  </i>
   <i type="logical" name="LTETE"> F  </i>
   <i type="logical" name="LTRIPLET"> F  </i>
   <i type="logical" name="LFXCEPS"> F  </i>
   <i type="logical" name="LFXHEG"> F  </i>
   <i type="int" name="NATURALO">     2</i>
   <i type="logical" name="LHOLEGF"> F  </i>
   <i type="logical" name="L2ORDER"> F  </i>
   <i type="logical" name="LDMP1"> F  </i>
   <i type="logical" name="LMP2LT"> F  </i>
   <i type="logical" name="LSMP2LT"> F  </i>
   <i type="logical" name="LGWLF"> F  </i>
   <i name="ENCUTGW">     -2.00000000</i>
   <i name="ENCUTGWSOFT">     -2.00000000</i>
   <i name="ENCUTLF">     -1.00000000</i>
   <i type="logical" name="LESF_SPLINES"> F  </i>
   <i type="int" name="LMAXMP2">    -1</i>
   <i name="SCISSOR">      0.00000000</i>
   <i type="int" name="NOMEGA">     0</i>
   <i type="int" name="NOMEGAR">     0</i>
   <i type="int" name="NBANDSGW">    -1</i>
   <i type="int" name="NBANDSO">    -1</i>
   <i type="int" name="NBANDSV">    -1</i>
   <i type="int" name="NELM">   200</i>
   <i type="int" name="NELMHF">     1</i>
   <i type="int" name="DIM">     3</i>
   <i type="int" name="IESPILON">     4</i>
   <i type="int" name="ANTIRES">     0</i>
   <i name="OMEGAMAX">    -30.00000000</i>
   <i name="OMEGAMIN">    -30.00000000</i>
   <i name="OMEGATL">   -200.00000000</i>
   <i type="int" name="OMEGAGRID">     0</i>
   <i name="CSHIFT">     -0.10000000</i>
   <i type="logical" name="LSELFENERGY"> F  </i>
   <i type="logical" name="LSPECTRAL"> F  </i>
   <i type="logical" name="LSPECTRALGW"> F  </i>
   <i type="logical" name="LSINGLES"> F  </i>
   <i type="logical" name="LFERMIGW"> F  </i>
   <i type="logical" name="ODDONLYGW"> F  </i>
   <i type="logical" name="EVENONLYGW"> F  </i>
   <i type="int" name="NKREDLFX">     1</i>
   <i type="int" name="NKREDLFY">     1</i>
   <i type="int" name="NKREDLFZ">     1</i>
   <i type="int" name="MAXMEM">  2800</i>
   <i type="int" name="TELESCOPE">     0</i>
   <i type="int" name="NTAUPAR">    -1</i>
   <i type="int" name="NOMEGAPAR">    -1</i>
   <i name="DAMP_NEWTON">      0.80000001</i>
   <i name="LAMBDA">      1.00000000</i>
  </separator>
  <separator name="External order field" >
   <i name="OFIELD_KAPPA">      0.00000000</i>
   <v name="OFIELD_K">      0.00000000      0.00000000      0.00000000</v>
   <i name="OFIELD_Q6_NEAR">      0.00000000</i>
   <i name="OFIELD_Q6_FAR">      0.00000000</i>
   <i name="OFIELD_A">      0.00000000</i>
  </separator>
 </parameters>
 <atominfo>
  <atoms>       2 </atoms>
  <types>       1 </types>
  <array name="atoms" >
   <dimension dim="1">ion</dimension>
   <field type="string">element</field>
   <field type="int">atomtype</field>
   <set>
    <rc><c>Si</c><c>   1</c></rc>
    <rc><c>Si</c><c>   1</c></rc>
   </set>
  </array>
  <array name="atomtypes" >
   <dimension dim="1">type</dimension>
   <field type="int">atomspertype</field>
   <field type="string">element</field>
   <field>mass</field>
   <field>valence</field>
   <field type="string">pseudopotential</field>
   <set>
    <rc><c>   2</c><c>Si</c><c>     28.08500000</c><c>      4.00000000</c><c>  PAW_PBE Si 05Jan2001                  </c></rc>
   </set>
  </array>
 </atominfo>
 <structure name="initialpos" >
  <crystal>
   <varray name="basis" >
    <v>       3.34889800       0.00000000       1.93348700 </v>
    <v>       1.11629900       3.15737200       1.93348700 </v>
    <v>       0.00000000       0.00000000       3.86697500 </v>
   </varray>
   <i name="volume">     40.88829843 </i>
   <varray name="rec_basis" >
    <v>       0.29860569      -0.10557300       0.00000000 </v>
    <v>       0.00000000       0.31671909       0.00000000 </v>
    <v>      -0.14930281      -0.10557302       0.25860007 </v>
   </varray>
  </crystal>
  <varray name="positions" >
   <v>       0.25000000       0.25000000       0.25000000 </v>
   <v>       0.00000000       0.00000000       0.00000000 </v>
  </varray>
 </structure>
 <calculation>
  <scstep>
   <time name="dav">    0.84    0.86</time>
   <time name="total">    1.07    1.09</time>
   <energy>
    <i name="alphaZ">      3.29317992 </i>
    <i name="ewald">   -226.94489173 </i>
    <i name="hartreedc">    -11.32339116 </i>
    <i name="XCdc">    -18.68518031 </i>
    <i name="pawpsdc">    176.24759923 </i>
    <i name="pawaedc">   -141.06103558 </i>
    <i name="eentropy">      0.00000000 </i>
    <i name="bandstr">     23.47627010 </i>
    <i name="atom">    206.13322186 </i>
    <i name="e_fr_energy">     11.13577233 </i>
    <i name="e_wo_entrp">     11.13577233 </i>
    <i name="e_0_energy">     11.13577233 </i>
   </energy>
  </scstep>
  <scstep>
   <time name="dav">    1.36    1.40</time>
   <time name="total">    1.36    1.40</time>
   <energy>
    <i name="e_fr_energy">    -10.68063419 </i>
    <i name="e_wo_entrp">    -10.68063419 </i>
    <i name="e_0_energy">    -10.68063419 </i>
   </energy>
  </scstep>
  <scstep>
   <time name="dav">    0.79    0.80</time>
   <time name="total">    0.79    0.80</time>
   <energy>
    <i name="e_fr_energy">    -11.01011779 </i>
    <i name="e_wo_entrp">    -11.01011779 </i>
    <i name="e_0_energy">    -11.01011779 </i>
   </energy>
  </scstep>
  <scstep>
   <time name="dav">    0.86    0.87</time>
   <time name="total">    0.86    0.87</time>
   <energy>
    <i name="e_fr_energy">    -11.01162986 </i>
    <i name="e_wo_entrp">    -11.01162986 </i>
    <i name="e_0_energy">    -11.01162986 </i>
   </energy>
  </scstep>
  <scstep>
   <time name="dav">    0.71    0.72</time>
   <time name="total">    0.75    0.75</time>
   <energy>
    <i name="e_fr_energy">    -11.01163149 </i>
    <i name="e_wo_entrp">    -11.01163149 </i>
    <i name="e_0_energy">    -11.01163149 </i>
   </energy>
  </scstep>
  <scstep>
   <time name="diag">    0.08    0.08</time>
   <time name="diis">    0.40    0.40</time>
   <time name="orth">    0.00    0.00</time>
   <time name="total">    0.75    0.75</time>
   <energy>
    <i name="e_fr_energy">    -10.89431166 </i>
    <i name="e_wo_entrp">    -10.89431166 </i>
    <i name="e_0_energy">    -10.89431166 </i>
   </energy>
  </scstep>
  <scstep>
   <time name="diag">    0.09    0.09</time>
   <time name="diis">    0.42    0.42</time>
   <time name="orth">    0.00    0.00</time>
   <time name="total">    0.79    0.79</time>
   <energy>
    <i name="e_fr_energy">    -10.83978795 </i>
    <i name="e_wo_entrp">    -10.83978795 </i>
    <i name="e_0_energy">    -10.83978795 </i>
   </energy>
  </scstep>
  <scstep>
   <time name="diag">    0.08    0.08</time>
   <time name="diis">    0.43    0.43</time>
   <time name="orth">    0.00    0.00</time>
   <time name="total">    0.78    0.79</time>
   <energy>
    <i name="e_fr_energy">    -10.84147486 </i>
    <i name="e_wo_entrp">    -10.84147486 </i>
    <i name="e_0_energy">    -10.84147486 </i>
   </energy>
  </scstep>
  <scstep>
   <time name="diag">    0.08    0.08</time>
   <time name="diis">    0.43    0.43</time>
   <time name="orth">    0.00    0.00</time>
   <time name="total">    0.79    0.80</time>
   <energy>
    <i name="e_fr_energy">    -10.84169802 </i>
    <i name="e_wo_entrp">    -10.84169802 </i>
    <i name="e_0_energy">    -10.84169802 </i>
   </energy>
  </scstep>
  <scstep>
   <time name="diag">    0.08    0.08</time>
   <time name="diis">    0.45    0.45</time>
   <time name="orth">    0.00    0.00</time>
   <time name="total">    0.82    0.82</time>
   <energy>
    <i name="e_fr_energy">    -10.84176065 </i>
    <i name="e_wo_entrp">    -10.84176065 </i>
    <i name="e_0_energy">    -10.84176065 </i>
   </energy>
  </scstep>
  <scstep>
   <time name="diag">    0.12    0.13</time>
   <time name="diis">    0.40    0.40</time>
   <time name="orth">    0.00    0.00</time>
   <time name="total">    0.84    0.85</time>
   <energy>
    <i name="e_fr_energy">    -10.84177498 </i>
    <i name="e_wo_entrp">    -10.84177498 </i>
    <i name="e_0_energy">    -10.84177498 </i>
   </energy>
  </scstep>
  <scstep>
   <time name="diag">    0.08    0.08</time>
   <time name="diis">    0.32    0.32</time>
   <time name="orth">    0.00    0.00</time>
   <time name="total">    0.63    0.63</time>
   <energy>
    <i name="alphaZ">      3.29317992 </i>
    <i name="ewald">   -226.94489173 </i>
    <i name="hartreedc">    -15.20526857 </i>
    <i name="XCdc">    -18.05715006 </i>
    <i name="pawpsdc">    833.10462519 </i>
    <i name="pawaedc">   -798.12435406 </i>
    <i name="eentropy">      0.00000000 </i>
    <i name="bandstr">      4.95886098 </i>
    <i name="atom">    206.13322186 </i>
    <i name="e_fr_energy">    -10.84177648 </i>
    <i name="e_wo_entrp">    -10.84177648 </i>
    <i name="e_0_energy">    -10.84177648 </i>
   </energy>
  </scstep>
  <structure>
   <crystal>
    <varray name="basis" >
     <v>       3.34889800       0.00000000       1.93348700 </v>
     <v>       1.11629900       3.15737200       1.93348700 </v>
     <v>       0.00000000       0.00000000       3.86697500 </v>
    </varray>
    <i name="volume">     40.88829843 </i>
    <varray name="rec_basis" >
     <v>       0.29860569      -0.10557300       0.00000000 </v>
     <v>       0.00000000       0.31671909       0.00000000 </v>
     <v>      -0.14930281      -0.10557302       0.25860007 </v>
    </varray>
   </crystal>
   <varray name="positions" >
    <v>       0.25000000       0.25000000       0.25000000 </v>
    <v>       0.00000000       0.00000000       0.00000000 </v>
   </varray>
  </structure>
  <varray name="forces" >
   <v>       0.00000000       0.00000000       0.00000000 </v>
   <v>      -0.00000000      -0.00000000      -0.00000000 </v>
  </varray>
  <varray name="stress" >
   <v>      -0.03557853       0.00000000       0.00000001 </v>
   <v>       0.00000000      -0.03557855       0.00000000 </v>
   <v>       0.00000001       0.00000000      -0.03557854 </v>
  </varray>
  <energy>
   <i name="e_fr_energy">    -10.84177648 </i>
   <i name="e_wo_entrp">    -10.84177648 </i>
   <i name="e_0_energy">    -10.84177648 </i>
  </energy>
  <time name="totalsc">   11.47   11.56</time>
  <eigenvalues>
   <array>
    <dimension dim="1">band</dimension>
    <dimension dim="2">kpoint</dimension>
    <dimension dim="3">spin</dimension>
    <field>eigene</field>
    <field>occ</field>
    <set>
     <set comment="spin 1">
      <set comment="kpoint 1">
       <r>   -6.1953    1.0000 </r>
       <r>    5.6204    1.0000 </r>
       <r>    5.6204    1.0000 </r>
       <r>    5.6204    1.0000 </r>
       <r>    8.1756    0.0000 </r>
       <r>    8.1756    0.0000 </r>
       <r>    8.1756    0.0000 </r>
       <r>    8.7538    0.0000 </r>
      </set>
      <set comment="kpoint 2">
       <r>   -5.9339    1.0000 </r>
       <r>    3.7000    1.0000 </r>
       <r>    5.2708    1.0000 </r>
       <r>    5.2708    1.0000 </r>
       <r>    7.9974    0.0000 </r>
       <r>    8.6870    0.0000 </r>
       <r>    8.6870    0.0000 </r>
       <r>   10.4700    0.0000 </r>
      </set>
      <set comment="kpoint 3">
       <r>   -5.1816    1.0000 </r>
       <r>    1.1171    1.0000 </r>
       <r>    4.7631    1.0000 </r>
       <r>    4.7631    1.0000 </r>
       <r>    7.4539    0.0000 </r>
       <r>    9.1437    0.0000 </r>
       <r>    9.1438    0.0000 </r>
       <r>   12.9338    0.0000 </r>
      </set>
      <set comment="kpoint 4">
       <r>   -4.1641    1.0000 </r>
       <r>   -0.8774    1.0000 </r>
       <r>    4.4779    1.0000 </r>
       <r>    4.4779    1.0000 </r>
       <r>    7.1281    0.0000 </r>
       <r>    9.0063    0.0000 </r>
       <r>    9.0063    0.0000 </r>
       <r>   13.3785    0.0000 </r>
      </set>
      <set comment="kpoint 5">
       <r>   -5.8455    1.0000 </r>
       <r>    3.9719    1.0000 </r>
       <r>    4.6704    1.0000 </r>
       <r>    4.6704    1.0000 </r>
       <r>    7.5065    0.0000 </r>
       <r>    9.5535    0.0000 </r>
       <r>    9.5535    0.0000 </r>
       <r>    9.9106    0.0000 </r>
      </set>
      <set comment="kpoint 6">
       <r>   -5.2494    1.0000 </r>
       <r>    1.8871    1.0000 </r>
       <r>    4.0883    1.0000 </r>
       <r>    4.1370    1.0000 </r>
       <r>    7.6946    0.0000 </r>
       <r>    9.4465    0.0000 </r>
       <r>   10.1804    0.0000 </r>
       <r>   10.3318    0.0000 </r>
      </set>
      <set comment="kpoint 7">
       <r>   -4.2607    1.0000 </r>
       <r>   -0.2576    1.0000 </r>
       <r>    3.4095    1.0000 </r>
       <r>    3.9497    1.0000 </r>
       <r>    7.7512    0.0000 </r>
       <r>    9.3971    0.0000 </r>
       <r>   10.1329    0.0000 </r>
       <r>   11.3659    0.0000 </r>
      </set>
      <set comment="kpoint 8">
       <r>   -3.7165    1.0000 </r>
       <r>   -1.1025    1.0000 </r>
       <r>    3.0039    1.0000 </r>
       <r>    4.1424    1.0000 </r>
       <r>    7.8380    0.0000 </r>
       <r>    9.3208    0.0000 </r>
       <r>    9.7467    0.0000 </r>
       <r>   13.7176    0.0000 </r>
      </set>
      <set comment="kpoint 9">
       <r>   -4.6215    1.0000 </r>
       <r>    0.4095    1.0000 </r>
       <r>    3.0131    1.0000 </r>
       <r>    4.6460    1.0000 </r>
       <r>    8.2210    0.0000 </r>
       <r>    9.5039    0.0000 </r>
       <r>    9.5274    0.0000 </r>
       <r>   12.1908    0.0000 </r>
      </set>
      <set comment="kpoint 10">
       <r>   -5.5054    1.0000 </r>
       <r>    2.4970    1.0000 </r>
       <r>    3.6985    1.0000 </r>
       <r>    5.2278    1.0000 </r>
       <r>    8.6102    0.0000 </r>
       <r>    8.8967    0.0000 </r>
       <r>    9.1440    0.0000 </r>
       <r>   11.1603    0.0000 </r>
      </set>
      <set comment="kpoint 11">
       <r>   -4.8128    1.0000 </r>
       <r>    1.4686    1.0000 </r>
       <r>    3.5261    1.0000 </r>
       <r>    3.5261    1.0000 </r>
       <r>    6.5754    0.0000 </r>
       <r>    8.2464    0.0000 </r>
       <r>   11.9362    0.0000 </r>
       <r>   11.9362    0.0000 </r>
      </set>
      <set comment="kpoint 12">
       <r>   -3.9268    1.0000 </r>
       <r>   -0.0096    1.0000 </r>
       <r>    2.5679    1.0000 </r>
       <r>    3.2701    1.0000 </r>
       <r>    6.8584    0.0000 </r>
       <r>    8.3283    0.0000 </r>
       <r>   12.1442    0.0000 </r>
       <r>   12.3372    0.0000 </r>
      </set>
      <set comment="kpoint 13">
       <r>   -3.0306    1.0000 </r>
       <r>   -1.1623    1.0000 </r>
       <r>    1.6335    1.0000 </r>
       <r>    3.4351    1.0000 </r>
       <r>    7.0956    0.0000 </r>
       <r>   10.5413    0.0000 </r>
       <r>   11.8494    0.0000 </r>
       <r>   11.8780    0.0000 </r>
      </set>
      <set comment="kpoint 14">
       <r>   -3.6670    1.0000 </r>
       <r>   -0.4254    1.0000 </r>
       <r>    1.5629    1.0000 </r>
       <r>    3.9736    1.0000 </r>
       <r>    7.6862    0.0000 </r>
       <r>   11.0270    0.0000 </r>
       <r>   11.3638    0.0000 </r>
       <r>   12.1268    0.0000 </r>
      </set>
      <set comment="kpoint 15">
       <r>   -3.1551    1.0000 </r>
       <r>   -0.9934    1.0000 </r>
       <r>    2.9047    1.0000 </r>
       <r>    2.9047    1.0000 </r>
       <r>    6.2302    0.0000 </r>
       <r>    6.7470    0.0000 </r>
       <r>   14.5487    0.0000 </r>
       <r>   14.5487    0.0000 </r>
      </set>
      <set comment="kpoint 16">
       <r>   -2.2249    1.0000 </r>
       <r>   -1.9359    1.0000 </r>
       <r>    2.0347    1.0000 </r>
       <r>    2.9649    1.0000 </r>
       <r>    6.5306    0.0000 </r>
       <r>    7.7678    0.0000 </r>
       <r>   14.3309    0.0000 </r>
       <r>   14.7526    0.0000 </r>
      </set>
      <set comment="kpoint 17">
       <r>   -4.5104    1.0000 </r>
       <r>    0.7503    1.0000 </r>
       <r>    2.5718    1.0000 </r>
       <r>    3.8685    1.0000 </r>
       <r>    8.1975    0.0000 </r>
       <r>    9.4332    0.0000 </r>
       <r>    9.7268    0.0000 </r>
       <r>   11.6962    0.0000 </r>
      </set>
      <set comment="kpoint 18">
       <r>   -3.4902    1.0000 </r>
       <r>   -0.7515    1.0000 </r>
       <r>    2.0041    1.0000 </r>
       <r>    3.3452    1.0000 </r>
       <r>    8.6789    0.0000 </r>
       <r>    9.0832    0.0000 </r>
       <r>   11.0439    0.0000 </r>
       <r>   12.1475    0.0000 </r>
      </set>
      <set comment="kpoint 19">
       <r>   -2.9561    1.0000 </r>
       <r>   -1.0802    1.0000 </r>
       <r>    2.0989    1.0000 </r>
       <r>    2.5038    1.0000 </r>
       <r>    7.8371    0.0000 </r>
       <r>    8.2074    0.0000 </r>
       <r>   11.7062    0.0000 </r>
       <r>   14.1783    0.0000 </r>
      </set>
      <set comment="kpoint 20">
       <r>   -2.5309    1.0000 </r>
       <r>   -1.4690    1.0000 </r>
       <r>    1.4763    1.0000 </r>
       <r>    2.5932    1.0000 </r>
       <r>    8.3584    0.0000 </r>
       <r>   10.4489    0.0000 </r>
       <r>   11.1949    0.0000 </r>
       <r>   11.3515    0.0000 </r>
      </set>
     </set>
     <set comment="spin 2">
      <set comment="kpoint 1">
       <r>   -6.1953    1.0000 </r>
       <r>    5.6204    1.0000 </r>
       <r>    5.6204    1.0000 </r>
       <r>    5.6204    1.0000 </r>
       <r>    8.1756    0.0000 </r>
       <r>    8.1756    0.0000 </r>
       <r>    8.1756    0.0000 </r>
       <r>    8.7538    0.0000 </r>
      </set>
      <set comment="kpoint 2">
       <r>   -5.9339    1.0000 </r>
       <r>    3.7000    1.0000 </r>
       <r>    5.2708    1.0000 </r>
       <r>    5.2708    1.0000 </r>
       <r>    7.9974    0.0000 </r>
       <r>    8.6870    0.0000 </r>
       <r>    8.6870    0.0000 </r>
       <r>   10.4700    0.0000 </r>
      </set>
      <set comment="kpoint 3">
       <r>   -5.1816    1.0000 </r>
       <r>    1.1171    1.0000 </r>
       <r>    4.7631    1.0000 </r>
       <r>    4.7631    1.0000 </r>
       <r>    7.4539    0.0000 </r>
       <r>    9.1437    0.0000 </r>
       <r>    9.1438    0.0000 </r>
       <r>   12.9343    0.0000 </r>
      </set>
      <set comment="kpoint 4">
       <r>   -4.1641    1.0000 </r>
       <r>   -0.8774    1.0000 </r>
       <r>    4.4779    1.0000 </r>
       <r>    4.4779    1.0000 </r>
       <r>    7.1281    0.0000 </r>
       <r>    9.0063    0.0000 </r>
       <r>    9.0063    0.0000 </r>
       <r>   13.3785    0.0000 </r>
      </set>
      <set comment="kpoint 5">
       <r>   -5.8455    1.0000 </r>
       <r>    3.9719    1.0000 </r>
       <r>    4.6704    1.0000 </r>
       <r>    4.6704    1.0000 </r>
       <r>    7.5065    0.0000 </r>
       <r>    9.5535    0.0000 </r>
       <r>    9.5535    0.0000 </r>
       <r>    9.9105    0.0000 </r>
      </set>
      <set comment="kpoint 6">
       <r>   -5.2494    1.0000 </r>
       <r>    1.8871    1.0000 </r>
       <r>    4.0883    1.0000 </r>
       <r>    4.1370    1.0000 </r>
       <r>    7.6946    0.0000 </r>
       <r>    9.4465    0.0000 </r>
       <r>   10.1804    0.0000 </r>
       <r>   10.3318    0.0000 </r>
      </set>
      <set comment="kpoint 7">
       <r>   -4.2607    1.0000 </r>
       <r>   -0.2576    1.0000 </r>
       <r>    3.4095    1.0000 </r>
       <r>    3.9497    1.0000 </r>
       <r>    7.7512    0.0000 </r>
       <r>    9.3971    0.0000 </r>
       <r>   10.1329    0.0000 </r>
       <r>   11.3659    0.0000 </r>
      </set>
      <set comment="kpoint 8">
       <r>   -3.7165    1.0000 </r>
       <r>   -1.1025    1.0000 </r>
       <r>    3.0039    1.0000 </r>
       <r>    4.1424    1.0000 </r>
       <r>    7.8380    0.0000 </r>
       <r>    9.3208    0.0000 </r>
       <r>    9.7467    0.0000 </r>
       <r>   13.7167    0.0000 </r>
      </set>
      <set comment="kpoint 9">
       <r>   -4.6215    1.0000 </r>
       <r>    0.4095    1.0000 </r>
       <r>    3.0131    1.0000 </r>
       <r>    4.6460    1.0000 </r>
       <r>    8.2210    0.0000 </r>
       <r>    9.5039    0.0000 </r>
       <r>    9.5274    0.0000 </r>
       <r>   12.1900    0.0000 </r>
      </set>
      <set comment="kpoint 10">
       <r>   -5.5054    1.0000 </r>
       <r>    2.4970    1.0000 </r>
       <r>    3.6985    1.0000 </r>
       <r>    5.2278    1.0000 </r>
       <r>    8.6102    0.0000 </r>
       <r>    8.8967    0.0000 </r>
       <r>    9.1440    0.0000 </r>
       <r>   11.1603    0.0000 </r>
      </set>
      <set comment="kpoint 11">
       <r>   -4.8128    1.0000 </r>
       <r>    1.4686    1.0000 </r>
       <r>    3.5261    1.0000 </r>
       <r>    3.5261    1.0000 </r>
       <r>    6.5754    0.0000 </r>
       <r>    8.2464    0.0000 </r>
       <r>   11.9362    0.0000 </r>
       <r>   11.9362    0.0000 </r>
      </set>
      <set comment="kpoint 12">
       <r>   -3.9268    1.0000 </r>
       <r>   -0.0096    1.0000 </r>
       <r>    2.5680    1.0000 </r>
       <r>    3.2701    1.0000 </r>
       <r>    6.8584    0.0000 </r>
       <r>    8.3283    0.0000 </r>
       <r>   12.1442    0.0000 </r>
       <r>   12.3372    0.0000 </r>
      </set>
      <set comment="kpoint 13">
       <r>   -3.0306    1.0000 </r>
       <r>   -1.1623    1.0000 </r>
       <r>    1.6335    1.0000 </r>
       <r>    3.4351    1.0000 </r>
       <r>    7.0956    0.0000 </r>
       <r>   10.5413    0.0000 </r>
       <r>   11.8494    0.0000 </r>
       <r>   11.8780    0.0000 </r>
      </set>
      <set comment="kpoint 14">
       <r>   -3.6670    1.0000 </r>
       <r>   -0.4253    1.0000 </r>
       <r>    1.5629    1.0000 </r>
       <r>    3.9736    1.0000 </r>
       <r>    7.6862    0.0000 </r>
       <r>   11.0270    0.0000 </r>
       <r>   11.3638    0.0000 </r>
       <r>   12.1268    0.0000 </r>
      </set>
      <set comment="kpoint 15">
       <r>   -3.1551    1.0000 </r>
       <r>   -0.9934    1.0000 </r>
       <r>    2.9047    1.0000 </r>
       <r>    2.9047    1.0000 </r>
       <r>    6.2302    0.0000 </r>
       <r>    6.7470    0.0000 </r>
       <r>   14.5487    0.0000 </r>
       <r>   14.5488    0.0000 </r>
      </set>
      <set comment="kpoint 16">
       <r>   -2.2249    1.0000 </r>
       <r>   -1.9359    1.0000 </r>
       <r>    2.0347    1.0000 </r>
       <r>    2.9649    1.0000 </r>
       <r>    6.5306    0.0000 </r>
       <r>    7.7678    0.0000 </r>
       <r>   14.3295    0.0000 </r>
       <r>   14.7584    0.0000 </r>
      </set>
      <set comment="kpoint 17">
       <r>   -4.5104    1.0000 </r>
       <r>    0.7503    1.0000 </r>
       <r>    2.5718    1.0000 </r>
       <r>    3.8685    1.0000 </r>
       <r>    8.1975    0.0000 </r>
       <r>    9.4332    0.0000 </r>
       <r>    9.7268    0.0000 </r>
       <r>   11.6962    0.0000 </r>
      </set>
      <set comment="kpoint 18">
       <r>   -3.4902    1.0000 </r>
       <r>   -0.7515    1.0000 </r>
       <r>    2.0041    1.0000 </r>
       <r>    3.3452    1.0000 </r>
       <r>    8.6789    0.0000 </r>
       <r>    9.0832    0.0000 </r>
       <r>   11.0439    0.0000 </r>
       <r>   12.1476    0.0000 </r>
      </set>
      <set comment="kpoint 19">
       <r>   -2.9561    1.0000 </r>
       <r>   -1.0802    1.0000 </r>
       <r>    2.0989    1.0000 </r>
       <r>    2.5038    1.0000 </r>
       <r>    7.8371    0.0000 </r>
       <r>    8.2074    0.0000 </r>
       <r>   11.7062    0.0000 </r>
       <r>   14.1845    0.0000 </r>
      </set>
      <set comment="kpoint 20">
       <r>   -2.5309    1.0000 </r>
       <r>   -1.4690    1.0000 </r>
       <r>    1.4763    1.0000 </r>
       <r>    2.5932    1.0000 </r>
       <r>    8.3584    0.0000 </r>
       <r>   10.4489    0.0000 </r>
       <r>   11.1949    0.0000 </r>
       <r>   11.3515    0.0000 </r>
      </set>
     </set>
    </set>
   </array>
  </eigenvalues>
  <separator name="orbital magnetization" >
   <v name="MAGDIPOLOUT">      0.00000000      0.00000000      0.00000000</v>
  </separator>
  <dos>
   <i name="efermi">      5.62023388 </i>
   <total>
    <array>
     <dimension dim="1">gridpoints</dimension>
     <dimension dim="2">spin</dimension>
     <field>energy</field>
     <field>total</field>
     <field>integrated</field>
     <set>
      <set comment="spin 1">
       <r>    -7.2430     0.0000     0.0000 </r>
       <r>    -7.1662     0.0000     0.0000 </r>
       <r>    -7.0893     0.0000     0.0000 </r>
       <r>    -7.0125     0.0000     0.0000 </r>
       <r>    -6.9357     0.0000     0.0000 </r>
       <r>    -6.8588     0.0000     0.0000 </r>
       <r>    -6.7820     0.0000     0.0000 </r>
       <r>    -6.7052     0.0000     0.0000 </r>
       <r>    -6.6283     0.0000     0.0000 </r>
       <r>    -6.5515     0.0000     0.0000 </r>
       <r>    -6.4747     0.0000     0.0000 </r>
       <r>    -6.3979     0.0000     0.0000 </r>
       <r>    -6.3210     0.0000     0.0000 </r>
       <r>    -6.2442     0.0000     0.0000 </r>
       <r>    -6.1674     0.0011     0.0000 </r>
       <r>    -6.0905     0.0161     0.0006 </r>
       <r>    -6.0137     0.0483     0.0029 </r>
       <r>    -5.9369     0.0978     0.0084 </r>
       <r>    -5.8600     0.0868     0.0154 </r>
       <r>    -5.7832     0.0981     0.0225 </r>
       <r>    -5.7064     0.1106     0.0305 </r>
       <r>    -5.6296     0.1238     0.0395 </r>
       <r>    -5.5527     0.1377     0.0495 </r>
       <r>    -5.4759     0.1520     0.0607 </r>
       <r>    -5.3991     0.1633     0.0728 </r>
       <r>    -5.3222     0.1708     0.0857 </r>
       <r>    -5.2454     0.1747     0.0989 </r>
       <r>    -5.1686     0.1823     0.1126 </r>
       <r>    -5.0917     0.1919     0.1270 </r>
       <r>    -5.0149     0.2017     0.1421 </r>
       <r>    -4.9381     0.2118     0.1580 </r>
       <r>    -4.8613     0.2222     0.1747 </r>
       <r>    -4.7844     0.2329     0.1922 </r>
       <r>    -4.7076     0.2438     0.2105 </r>
       <r>    -4.6308     0.2551     0.2296 </r>
       <r>    -4.5539     0.2644     0.2496 </r>
       <r>    -4.4771     0.2765     0.2703 </r>
       <r>    -4.4003     0.2902     0.2921 </r>
       <r>    -4.3234     0.3051     0.3150 </r>
       <r>    -4.2466     0.3214     0.3390 </r>
       <r>    -4.1698     0.3461     0.3646 </r>
       <r>    -4.0929     0.3954     0.3931 </r>
       <r>    -4.0161     0.4302     0.4249 </r>
       <r>    -3.9393     0.4485     0.4588 </r>
       <r>    -3.8625     0.4502     0.4934 </r>
       <r>    -3.7856     0.4351     0.5275 </r>
       <r>    -3.7088     0.4119     0.5599 </r>
       <r>    -3.6320     0.4547     0.5933 </r>
       <r>    -3.5551     0.4583     0.6287 </r>
       <r>    -3.4783     0.4219     0.6626 </r>
       <r>    -3.4015     0.3975     0.6940 </r>
       <r>    -3.3246     0.3767     0.7238 </r>
       <r>    -3.2478     0.3597     0.7520 </r>
       <r>    -3.1710     0.3462     0.7791 </r>
       <r>    -3.0942     0.3387     0.8054 </r>
       <r>    -3.0173     0.3338     0.8312 </r>
       <r>    -2.9405     0.3283     0.8565 </r>
       <r>    -2.8637     0.3390     0.8822 </r>
       <r>    -2.7868     0.3342     0.9082 </r>
       <r>    -2.7100     0.3141     0.9332 </r>
       <r>    -2.6332     0.2784     0.9561 </r>
       <r>    -2.5563     0.2273     0.9756 </r>
       <r>    -2.4795     0.1332     0.9897 </r>
       <r>    -2.4027     0.0576     0.9955 </r>
       <r>    -2.3259     0.0277     0.9987 </r>
       <r>    -2.2490     0.0054     0.9999 </r>
       <r>    -2.1722     0.0000     1.0000 </r>
       <r>    -2.0954     0.0000     1.0000 </r>
       <r>    -2.0185     0.0000     1.0000 </r>
       <r>    -1.9417     0.0000     1.0000 </r>
       <r>    -1.8649     0.0142     1.0005 </r>
       <r>    -1.7880     0.0336     1.0023 </r>
       <r>    -1.7112     0.0572     1.0058 </r>
       <r>    -1.6344     0.0851     1.0112 </r>
       <r>    -1.5576     0.1173     1.0189 </r>
       <r>    -1.4807     0.1537     1.0293 </r>
       <r>    -1.4039     0.3420     1.0522 </r>
       <r>    -1.3271     0.3551     1.0776 </r>
       <r>    -1.2502     0.3919     1.1064 </r>
       <r>    -1.1734     0.4143     1.1374 </r>
       <r>    -1.0966     0.4825     1.1706 </r>
       <r>    -1.0197     0.7283     1.2181 </r>
       <r>    -0.9429     0.7974     1.2779 </r>
       <r>    -0.8661     0.6989     1.3360 </r>
       <r>    -0.7893     0.5659     1.3852 </r>
       <r>    -0.7124     0.4392     1.4225 </r>
       <r>    -0.6356     0.3910     1.4543 </r>
       <r>    -0.5588     0.3523     1.4828 </r>
       <r>    -0.4819     0.3229     1.5087 </r>
       <r>    -0.4051     0.3027     1.5326 </r>
       <r>    -0.3283     0.2868     1.5553 </r>
       <r>    -0.2514     0.2732     1.5768 </r>
       <r>    -0.1746     0.2609     1.5973 </r>
       <r>    -0.0978     0.2492     1.6169 </r>
       <r>    -0.0210     0.2381     1.6356 </r>
       <r>     0.0559     0.2272     1.6535 </r>
       <r>     0.1327     0.2168     1.6705 </r>
       <r>     0.2095     0.2070     1.6868 </r>
       <r>     0.2864     0.1976     1.7023 </r>
       <r>     0.3632     0.1888     1.7172 </r>
       <r>     0.4400     0.1763     1.7313 </r>
       <r>     0.5169     0.1601     1.7442 </r>
       <r>     0.5937     0.1475     1.7560 </r>
       <r>     0.6705     0.1386     1.7670 </r>
       <r>     0.7473     0.1334     1.7774 </r>
       <r>     0.8242     0.1302     1.7875 </r>
       <r>     0.9010     0.1271     1.7974 </r>
       <r>     0.9778     0.1241     1.8070 </r>
       <r>     1.0547     0.1212     1.8165 </r>
       <r>     1.1315     0.1184     1.8257 </r>
       <r>     1.2083     0.1156     1.8347 </r>
       <r>     1.2852     0.1128     1.8434 </r>
       <r>     1.3620     0.1099     1.8520 </r>
       <r>     1.4388     0.1070     1.8603 </r>
       <r>     1.5156     0.2730     1.8747 </r>
       <r>     1.5925     0.5821     1.9062 </r>
       <r>     1.6693     0.5746     1.9500 </r>
       <r>     1.7461     0.6262     1.9964 </r>
       <r>     1.8230     0.6431     2.0454 </r>
       <r>     1.8998     0.6256     2.0943 </r>
       <r>     1.9766     0.5755     2.1407 </r>
       <r>     2.0535     0.6608     2.1842 </r>
       <r>     2.1303     0.5078     2.2291 </r>
       <r>     2.2071     0.5043     2.2680 </r>
       <r>     2.2840     0.4995     2.3066 </r>
       <r>     2.3608     0.4934     2.3447 </r>
       <r>     2.4376     0.4861     2.3824 </r>
       <r>     2.5144     0.5442     2.4198 </r>
       <r>     2.5913     0.9987     2.4795 </r>
       <r>     2.6681     0.6837     2.5317 </r>
       <r>     2.7449     0.6873     2.5828 </r>
       <r>     2.8218     0.7440     2.6377 </r>
       <r>     2.8986     0.8160     2.6975 </r>
       <r>     2.9754     0.8519     2.7657 </r>
       <r>     3.0523     0.7733     2.8254 </r>
       <r>     3.1291     0.7655     2.8845 </r>
       <r>     3.2059     0.7578     2.9430 </r>
       <r>     3.2827     0.7482     3.0009 </r>
       <r>     3.3596     0.7473     3.0581 </r>
       <r>     3.4364     0.7510     3.1158 </r>
       <r>     3.5132     0.7465     3.1733 </r>
       <r>     3.5901     0.7414     3.2305 </r>
       <r>     3.6669     0.7339     3.2872 </r>
       <r>     3.7437     0.7212     3.3432 </r>
       <r>     3.8206     0.7068     3.3980 </r>
       <r>     3.8974     0.6932     3.4518 </r>
       <r>     3.9742     0.6769     3.5044 </r>
       <r>     4.0510     0.6759     3.5562 </r>
       <r>     4.1279     0.6825     3.6085 </r>
       <r>     4.2047     0.6583     3.6603 </r>
       <r>     4.2815     0.6126     3.7092 </r>
       <r>     4.3584     0.5513     3.7541 </r>
       <r>     4.4352     0.4745     3.7936 </r>
       <r>     4.5120     0.4050     3.8270 </r>
       <r>     4.5889     0.3517     3.8561 </r>
       <r>     4.6657     0.2882     3.8807 </r>
       <r>     4.7425     0.2410     3.9009 </r>
       <r>     4.8193     0.2155     3.9184 </r>
       <r>     4.8962     0.1937     3.9341 </r>
       <r>     4.9730     0.1747     3.9482 </r>
       <r>     5.0498     0.1584     3.9610 </r>
       <r>     5.1267     0.1449     3.9726 </r>
       <r>     5.2035     0.1342     3.9833 </r>
       <r>     5.2803     0.0704     3.9920 </r>
       <r>     5.3572     0.0422     3.9963 </r>
       <r>     5.4340     0.0211     3.9987 </r>
       <r>     5.5108     0.0073     3.9997 </r>
       <r>     5.5876     0.0007     4.0000 </r>
       <r>     5.6645     0.0000     4.0000 </r>
       <r>     5.7413     0.0000     4.0000 </r>
       <r>     5.8181     0.0000     4.0000 </r>
       <r>     5.8950     0.0000     4.0000 </r>
       <r>     5.9718     0.0000     4.0000 </r>
       <r>     6.0486     0.0000     4.0000 </r>
       <r>     6.1255     0.0000     4.0000 </r>
       <r>     6.2023     0.0000     4.0000 </r>
       <r>     6.2791     0.0178     4.0004 </r>
       <r>     6.3559     0.0407     4.0027 </r>
       <r>     6.4328     0.0577     4.0066 </r>
       <r>     6.5096     0.0688     4.0115 </r>
       <r>     6.5864     0.0894     4.0174 </r>
       <r>     6.6633     0.1132     4.0252 </r>
       <r>     6.7401     0.1322     4.0347 </r>
       <r>     6.8169     0.1490     4.0455 </r>
       <r>     6.8938     0.1674     4.0575 </r>
       <r>     6.9706     0.1912     4.0713 </r>
       <r>     7.0474     0.2150     4.0869 </r>
       <r>     7.1242     0.2387     4.1043 </r>
       <r>     7.2011     0.2770     4.1241 </r>
       <r>     7.2779     0.3241     4.1471 </r>
       <r>     7.3547     0.3797     4.1741 </r>
       <r>     7.4316     0.4436     4.2057 </r>
       <r>     7.5084     0.5192     4.2425 </r>
       <r>     7.5852     0.6212     4.2861 </r>
       <r>     7.6621     0.7551     4.3388 </r>
       <r>     7.7389     0.9000     4.4027 </r>
       <r>     7.8157     0.9713     4.4751 </r>
       <r>     7.8926     1.0089     4.5510 </r>
       <r>     7.9694     1.0415     4.6298 </r>
       <r>     8.0462     1.0143     4.7095 </r>
       <r>     8.1230     0.9732     4.7857 </r>
       <r>     8.1999     0.9488     4.8595 </r>
       <r>     8.2767     0.8459     4.9292 </r>
       <r>     8.3535     0.7549     4.9906 </r>
       <r>     8.4304     0.6224     5.0427 </r>
       <r>     8.5072     0.4811     5.0837 </r>
       <r>     8.5840     0.3791     5.1167 </r>
       <r>     8.6609     0.2741     5.1419 </r>
       <r>     8.7377     0.2865     5.1622 </r>
       <r>     8.8145     0.3457     5.1864 </r>
       <r>     8.8913     0.4106     5.2155 </r>
       <r>     8.9682     0.4794     5.2496 </r>
       <r>     9.0450     0.5885     5.2899 </r>
       <r>     9.1218     0.8401     5.3432 </r>
       <r>     9.1987     1.2145     5.4219 </r>
       <r>     9.2755     1.6133     5.5304 </r>
       <r>     9.3523     1.6974     5.6649 </r>
       <r>     9.4292     1.7960     5.7905 </r>
       <r>     9.5060     0.7205     5.8842 </r>
       <r>     9.5828     0.6958     5.9386 </r>
       <r>     9.6596     0.6834     5.9915 </r>
       <r>     9.7365     0.6802     6.0438 </r>
       <r>     9.8133     0.6689     6.0958 </r>
       <r>     9.8901     0.6441     6.1463 </r>
       <r>     9.9670     0.6080     6.1944 </r>
       <r>    10.0438     0.5644     6.2395 </r>
       <r>    10.1206     0.5137     6.2810 </r>
       <r>    10.1975     0.4844     6.3189 </r>
       <r>    10.2743     0.4867     6.3562 </r>
       <r>    10.3511     0.4904     6.3938 </r>
       <r>    10.4279     0.4763     6.4310 </r>
       <r>    10.5048     0.4932     6.4691 </r>
       <r>    10.5816     0.4494     6.5046 </r>
       <r>    10.6584     0.4116     6.5376 </r>
       <r>    10.7353     0.3822     6.5681 </r>
       <r>    10.8121     0.3612     6.5966 </r>
       <r>    10.8889     0.3486     6.6238 </r>
       <r>    10.9658     0.3445     6.6504 </r>
       <r>    11.0426     0.3486     6.6769 </r>
       <r>    11.1194     0.6574     6.7173 </r>
       <r>    11.1962     0.7636     6.7728 </r>
       <r>    11.2731     0.6606     6.8260 </r>
       <r>    11.3499     0.6047     6.8746 </r>
       <r>    11.4267     0.6249     6.9236 </r>
       <r>    11.5036     0.5749     6.9681 </r>
       <r>    11.5804     0.5808     7.0124 </r>
       <r>    11.6572     0.6048     7.0578 </r>
       <r>    11.7341     0.6493     7.1058 </r>
       <r>    11.8109     0.7147     7.1581 </r>
       <r>    11.8877     0.7979     7.2162 </r>
       <r>    11.9645     0.8459     7.2794 </r>
       <r>    12.0414     0.8725     7.3456 </r>
       <r>    12.1182     0.8766     7.4129 </r>
       <r>    12.1950     0.5383     7.4664 </r>
       <r>    12.2719     0.4951     7.5060 </r>
       <r>    12.3487     0.4592     7.5426 </r>
       <r>    12.4255     0.4354     7.5770 </r>
       <r>    12.5024     0.4119     7.6095 </r>
       <r>    12.5792     0.3885     7.6402 </r>
       <r>    12.6560     0.3655     7.6692 </r>
       <r>    12.7328     0.3426     7.6964 </r>
       <r>    12.8097     0.3200     7.7219 </r>
       <r>    12.8865     0.2977     7.7456 </r>
       <r>    12.9633     0.2757     7.7676 </r>
       <r>    13.0402     0.2547     7.7880 </r>
       <r>    13.1170     0.2350     7.8068 </r>
       <r>    13.1938     0.2165     7.8241 </r>
       <r>    13.2707     0.1993     7.8401 </r>
       <r>    13.3475     0.1834     7.8548 </r>
       <r>    13.4243     0.1922     7.8689 </r>
       <r>    13.5011     0.1986     7.8840 </r>
       <r>    13.5780     0.1818     7.8988 </r>
       <r>    13.6548     0.1417     7.9114 </r>
       <r>    13.7316     0.0907     7.9200 </r>
       <r>    13.8085     0.0855     7.9268 </r>
       <r>    13.8853     0.0806     7.9332 </r>
       <r>    13.9621     0.0762     7.9392 </r>
       <r>    14.0390     0.0720     7.9449 </r>
       <r>    14.1158     0.0682     7.9503 </r>
       <r>    14.1926     0.0658     7.9554 </r>
       <r>    14.2695     0.0678     7.9605 </r>
       <r>    14.3463     0.0788     7.9659 </r>
       <r>    14.4231     0.1036     7.9731 </r>
       <r>    14.4999     0.0921     7.9809 </r>
       <r>    14.5768     0.0865     7.9870 </r>
       <r>    14.6536     0.0943     7.9944 </r>
       <r>    14.7304     0.0314     7.9996 </r>
       <r>    14.8073     0.0000     8.0000 </r>
       <r>    14.8841     0.0000     8.0000 </r>
       <r>    14.9609     0.0000     8.0000 </r>
       <r>    15.0378     0.0000     8.0000 </r>
       <r>    15.1146     0.0000     8.0000 </r>
       <r>    15.1914     0.0000     8.0000 </r>
       <r>    15.2682     0.0000     8.0000 </r>
       <r>    15.3451     0.0000     8.0000 </r>
       <r>    15.4219     0.0000     8.0000 </r>
       <r>    15.4987     0.0000     8.0000 </r>
       <r>    15.5756     0.0000     8.0000 </r>
       <r>    15.6524     0.0000     8.0000 </r>
       <r>    15.7292     0.0000     8.0000 </r>
       <r>    15.8061     0.0000     8.0000 </r>
      </set>
      <set comment="spin 2">
       <r>    -7.2430     0.0000     0.0000 </r>
       <r>    -7.1662     0.0000     0.0000 </r>
       <r>    -7.0893     0.0000     0.0000 </r>
       <r>    -7.0125     0.0000     0.0000 </r>
       <r>    -6.9357     0.0000     0.0000 </r>
       <r>    -6.8588     0.0000     0.0000 </r>
       <r>    -6.7820     0.0000     0.0000 </r>
       <r>    -6.7052     0.0000     0.0000 </r>
       <r>    -6.6283     0.0000     0.0000 </r>
       <r>    -6.5515     0.0000     0.0000 </r>
       <r>    -6.4747     0.0000     0.0000 </r>
       <r>    -6.3979     0.0000     0.0000 </r>
       <r>    -6.3210     0.0000     0.0000 </r>
       <r>    -6.2442     0.0000     0.0000 </r>
       <r>    -6.1674     0.0011     0.0000 </r>
       <r>    -6.0905     0.0161     0.0006 </r>
       <r>    -6.0137     0.0483     0.0029 </r>
       <r>    -5.9369     0.0978     0.0084 </r>
       <r>    -5.8600     0.0868     0.0154 </r>
       <r>    -5.7832     0.0981     0.0225 </r>
       <r>    -5.7064     0.1106     0.0305 </r>
       <r>    -5.6296     0.1238     0.0395 </r>
       <r>    -5.5527     0.1377     0.0495 </r>
       <r>    -5.4759     0.1520     0.0607 </r>
       <r>    -5.3991     0.1633     0.0728 </r>
       <r>    -5.3222     0.1708     0.0857 </r>
       <r>    -5.2454     0.1747     0.0989 </r>
       <r>    -5.1686     0.1823     0.1126 </r>
       <r>    -5.0917     0.1919     0.1270 </r>
       <r>    -5.0149     0.2017     0.1421 </r>
       <r>    -4.9381     0.2118     0.1580 </r>
       <r>    -4.8613     0.2222     0.1747 </r>
       <r>    -4.7844     0.2329     0.1922 </r>
       <r>    -4.7076     0.2438     0.2105 </r>
       <r>    -4.6308     0.2551     0.2296 </r>
       <r>    -4.5539     0.2644     0.2496 </r>
       <r>    -4.4771     0.2765     0.2703 </r>
       <r>    -4.4003     0.2902     0.2921 </r>
       <r>    -4.3234     0.3051     0.3150 </r>
       <r>    -4.2466     0.3214     0.3390 </r>
       <r>    -4.1698     0.3461     0.3646 </r>
       <r>    -4.0929     0.3954     0.3931 </r>
       <r>    -4.0161     0.4302     0.4249 </r>
       <r>    -3.9393     0.4485     0.4588 </r>
       <r>    -3.8625     0.4502     0.4934 </r>
       <r>    -3.7856     0.4351     0.5275 </r>
       <r>    -3.7088     0.4119     0.5599 </r>
       <r>    -3.6320     0.4547     0.5933 </r>
       <r>    -3.5551     0.4583     0.6287 </r>
       <r>    -3.4783     0.4219     0.6626 </r>
       <r>    -3.4015     0.3975     0.6940 </r>
       <r>    -3.3246     0.3767     0.7238 </r>
       <r>    -3.2478     0.3597     0.7520 </r>
       <r>    -3.1710     0.3462     0.7791 </r>
       <r>    -3.0942     0.3387     0.8054 </r>
       <r>    -3.0173     0.3338     0.8312 </r>
       <r>    -2.9405     0.3283     0.8565 </r>
       <r>    -2.8637     0.3390     0.8822 </r>
       <r>    -2.7868     0.3343     0.9082 </r>
       <r>    -2.7100     0.3141     0.9332 </r>
       <r>    -2.6332     0.2784     0.9561 </r>
       <r>    -2.5563     0.2273     0.9756 </r>
       <r>    -2.4795     0.1332     0.9897 </r>
       <r>    -2.4027     0.0576     0.9955 </r>
       <r>    -2.3259     0.0277     0.9987 </r>
       <r>    -2.2490     0.0054     0.9999 </r>
       <r>    -2.1722     0.0000     1.0000 </r>
       <r>    -2.0954     0.0000     1.0000 </r>
       <r>    -2.0185     0.0000     1.0000 </r>
       <r>    -1.9417     0.0000     1.0000 </r>
       <r>    -1.8649     0.0142     1.0005 </r>
       <r>    -1.7880     0.0336     1.0023 </r>
       <r>    -1.7112     0.0572     1.0058 </r>
       <r>    -1.6344     0.0851     1.0112 </r>
       <r>    -1.5576     0.1173     1.0189 </r>
       <r>    -1.4807     0.1537     1.0293 </r>
       <r>    -1.4039     0.3420     1.0522 </r>
       <r>    -1.3271     0.3551     1.0776 </r>
       <r>    -1.2502     0.3919     1.1064 </r>
       <r>    -1.1734     0.4143     1.1374 </r>
       <r>    -1.0966     0.4825     1.1706 </r>
       <r>    -1.0197     0.7283     1.2181 </r>
       <r>    -0.9429     0.7974     1.2779 </r>
       <r>    -0.8661     0.6989     1.3360 </r>
       <r>    -0.7893     0.5659     1.3852 </r>
       <r>    -0.7124     0.4392     1.4225 </r>
       <r>    -0.6356     0.3910     1.4543 </r>
       <r>    -0.5588     0.3523     1.4828 </r>
       <r>    -0.4819     0.3229     1.5087 </r>
       <r>    -0.4051     0.3027     1.5326 </r>
       <r>    -0.3283     0.2868     1.5553 </r>
       <r>    -0.2514     0.2732     1.5768 </r>
       <r>    -0.1746     0.2609     1.5973 </r>
       <r>    -0.0978     0.2492     1.6169 </r>
       <r>    -0.0210     0.2381     1.6356 </r>
       <r>     0.0559     0.2272     1.6535 </r>
       <r>     0.1327     0.2168     1.6705 </r>
       <r>     0.2095     0.2070     1.6868 </r>
       <r>     0.2864     0.1976     1.7023 </r>
       <r>     0.3632     0.1888     1.7172 </r>
       <r>     0.4400     0.1763     1.7313 </r>
       <r>     0.5169     0.1601     1.7442 </r>
       <r>     0.5937     0.1475     1.7560 </r>
       <r>     0.6705     0.1386     1.7670 </r>
       <r>     0.7473     0.1334     1.7774 </r>
       <r>     0.8242     0.1302     1.7875 </r>
       <r>     0.9010     0.1271     1.7974 </r>
       <r>     0.9778     0.1241     1.8070 </r>
       <r>     1.0547     0.1212     1.8165 </r>
       <r>     1.1315     0.1184     1.8257 </r>
       <r>     1.2083     0.1156     1.8347 </r>
       <r>     1.2852     0.1128     1.8434 </r>
       <r>     1.3620     0.1099     1.8520 </r>
       <r>     1.4388     0.1070     1.8603 </r>
       <r>     1.5156     0.2730     1.8747 </r>
       <r>     1.5925     0.5821     1.9062 </r>
       <r>     1.6693     0.5746     1.9500 </r>
       <r>     1.7461     0.6262     1.9964 </r>
       <r>     1.8230     0.6431     2.0454 </r>
       <r>     1.8998     0.6256     2.0943 </r>
       <r>     1.9766     0.5755     2.1407 </r>
       <r>     2.0535     0.6608     2.1842 </r>
       <r>     2.1303     0.5078     2.2291 </r>
       <r>     2.2071     0.5043     2.2680 </r>
       <r>     2.2840     0.4995     2.3066 </r>
       <r>     2.3608     0.4934     2.3447 </r>
       <r>     2.4376     0.4861     2.3824 </r>
       <r>     2.5144     0.5442     2.4198 </r>
       <r>     2.5913     0.9987     2.4795 </r>
       <r>     2.6681     0.6837     2.5317 </r>
       <r>     2.7449     0.6873     2.5828 </r>
       <r>     2.8218     0.7440     2.6377 </r>
       <r>     2.8986     0.8160     2.6975 </r>
       <r>     2.9754     0.8519     2.7657 </r>
       <r>     3.0523     0.7733     2.8254 </r>
       <r>     3.1291     0.7655     2.8845 </r>
       <r>     3.2059     0.7578     2.9430 </r>
       <r>     3.2827     0.7482     3.0009 </r>
       <r>     3.3596     0.7473     3.0581 </r>
       <r>     3.4364     0.7510     3.1158 </r>
       <r>     3.5132     0.7465     3.1733 </r>
       <r>     3.5901     0.7414     3.2305 </r>
       <r>     3.6669     0.7339     3.2872 </r>
       <r>     3.7437     0.7212     3.3431 </r>
       <r>     3.8206     0.7068     3.3980 </r>
       <r>     3.8974     0.6932     3.4518 </r>
       <r>     3.9742     0.6769     3.5044 </r>
       <r>     4.0510     0.6759     3.5562 </r>
       <r>     4.1279     0.6825     3.6085 </r>
       <r>     4.2047     0.6583     3.6603 </r>
       <r>     4.2815     0.6126     3.7092 </r>
       <r>     4.3584     0.5513     3.7541 </r>
       <r>     4.4352     0.4745     3.7936 </r>
       <r>     4.5120     0.4050     3.8270 </r>
       <r>     4.5889     0.3517     3.8561 </r>
       <r>     4.6657     0.2882     3.8807 </r>
       <r>     4.7425     0.2410     3.9009 </r>
       <r>     4.8193     0.2155     3.9184 </r>
       <r>     4.8962     0.1937     3.9341 </r>
       <r>     4.9730     0.1747     3.9482 </r>
       <r>     5.0498     0.1584     3.9610 </r>
       <r>     5.1267     0.1449     3.9726 </r>
       <r>     5.2035     0.1342     3.9833 </r>
       <r>     5.2803     0.0704     3.9920 </r>
       <r>     5.3572     0.0422     3.9963 </r>
       <r>     5.4340     0.0211     3.9987 </r>
       <r>     5.5108     0.0073     3.9997 </r>
       <r>     5.5876     0.0007     4.0000 </r>
       <r>     5.6645     0.0000     4.0000 </r>
       <r>     5.7413     0.0000     4.0000 </r>
       <r>     5.8181     0.0000     4.0000 </r>
       <r>     5.8950     0.0000     4.0000 </r>
       <r>     5.9718     0.0000     4.0000 </r>
       <r>     6.0486     0.0000     4.0000 </r>
       <r>     6.1255     0.0000     4.0000 </r>
       <r>     6.2023     0.0000     4.0000 </r>
       <r>     6.2791     0.0178     4.0004 </r>
       <r>     6.3559     0.0407     4.0027 </r>
       <r>     6.4328     0.0577     4.0066 </r>
       <r>     6.5096     0.0688     4.0115 </r>
       <r>     6.5864     0.0894     4.0174 </r>
       <r>     6.6633     0.1132     4.0252 </r>
       <r>     6.7401     0.1322     4.0347 </r>
       <r>     6.8169     0.1490     4.0455 </r>
       <r>     6.8938     0.1674     4.0575 </r>
       <r>     6.9706     0.1912     4.0713 </r>
       <r>     7.0474     0.2150     4.0869 </r>
       <r>     7.1242     0.2387     4.1043 </r>
       <r>     7.2011     0.2770     4.1241 </r>
       <r>     7.2779     0.3241     4.1471 </r>
       <r>     7.3547     0.3797     4.1741 </r>
       <r>     7.4316     0.4436     4.2057 </r>
       <r>     7.5084     0.5192     4.2425 </r>
       <r>     7.5852     0.6212     4.2861 </r>
       <r>     7.6621     0.7551     4.3388 </r>
       <r>     7.7389     0.9000     4.4027 </r>
       <r>     7.8157     0.9713     4.4751 </r>
       <r>     7.8926     1.0089     4.5510 </r>
       <r>     7.9694     1.0415     4.6298 </r>
       <r>     8.0462     1.0143     4.7095 </r>
       <r>     8.1230     0.9732     4.7857 </r>
       <r>     8.1999     0.9488     4.8595 </r>
       <r>     8.2767     0.8459     4.9292 </r>
       <r>     8.3535     0.7549     4.9906 </r>
       <r>     8.4304     0.6224     5.0427 </r>
       <r>     8.5072     0.4811     5.0837 </r>
       <r>     8.5840     0.3791     5.1167 </r>
       <r>     8.6609     0.2741     5.1419 </r>
       <r>     8.7377     0.2865     5.1622 </r>
       <r>     8.8145     0.3457     5.1864 </r>
       <r>     8.8913     0.4106     5.2155 </r>
       <r>     8.9682     0.4794     5.2496 </r>
       <r>     9.0450     0.5885     5.2899 </r>
       <r>     9.1218     0.8401     5.3432 </r>
       <r>     9.1987     1.2145     5.4219 </r>
       <r>     9.2755     1.6133     5.5304 </r>
       <r>     9.3523     1.6974     5.6649 </r>
       <r>     9.4292     1.7960     5.7905 </r>
       <r>     9.5060     0.7205     5.8842 </r>
       <r>     9.5828     0.6958     5.9386 </r>
       <r>     9.6596     0.6834     5.9915 </r>
       <r>     9.7365     0.6802     6.0438 </r>
       <r>     9.8133     0.6689     6.0958 </r>
       <r>     9.8901     0.6441     6.1463 </r>
       <r>     9.9670     0.6080     6.1944 </r>
       <r>    10.0438     0.5644     6.2395 </r>
       <r>    10.1206     0.5137     6.2810 </r>
       <r>    10.1975     0.4844     6.3189 </r>
       <r>    10.2743     0.4867     6.3562 </r>
       <r>    10.3511     0.4904     6.3938 </r>
       <r>    10.4279     0.4763     6.4310 </r>
       <r>    10.5048     0.4932     6.4692 </r>
       <r>    10.5816     0.4494     6.5046 </r>
       <r>    10.6584     0.4116     6.5376 </r>
       <r>    10.7353     0.3822     6.5681 </r>
       <r>    10.8121     0.3612     6.5966 </r>
       <r>    10.8889     0.3486     6.6238 </r>
       <r>    10.9658     0.3445     6.6504 </r>
       <r>    11.0426     0.3486     6.6770 </r>
       <r>    11.1194     0.6574     6.7173 </r>
       <r>    11.1962     0.7636     6.7728 </r>
       <r>    11.2731     0.6606     6.8260 </r>
       <r>    11.3499     0.6048     6.8746 </r>
       <r>    11.4267     0.6249     6.9236 </r>
       <r>    11.5036     0.5749     6.9681 </r>
       <r>    11.5804     0.5808     7.0124 </r>
       <r>    11.6572     0.6047     7.0578 </r>
       <r>    11.7341     0.6492     7.1058 </r>
       <r>    11.8109     0.7147     7.1581 </r>
       <r>    11.8877     0.7979     7.2162 </r>
       <r>    11.9645     0.8459     7.2794 </r>
       <r>    12.0414     0.8725     7.3456 </r>
       <r>    12.1182     0.8767     7.4129 </r>
       <r>    12.1950     0.5381     7.4663 </r>
       <r>    12.2719     0.4949     7.5059 </r>
       <r>    12.3487     0.4590     7.5425 </r>
       <r>    12.4255     0.4352     7.5768 </r>
       <r>    12.5024     0.4117     7.6094 </r>
       <r>    12.5792     0.3884     7.6401 </r>
       <r>    12.6560     0.3653     7.6690 </r>
       <r>    12.7328     0.3425     7.6962 </r>
       <r>    12.8097     0.3199     7.7217 </r>
       <r>    12.8865     0.2976     7.7454 </r>
       <r>    12.9633     0.2756     7.7674 </r>
       <r>    13.0402     0.2547     7.7878 </r>
       <r>    13.1170     0.2350     7.8066 </r>
       <r>    13.1938     0.2165     7.8239 </r>
       <r>    13.2707     0.1993     7.8399 </r>
       <r>    13.3475     0.1834     7.8546 </r>
       <r>    13.4243     0.1923     7.8687 </r>
       <r>    13.5011     0.1988     7.8838 </r>
       <r>    13.5780     0.1818     7.8986 </r>
       <r>    13.6548     0.1414     7.9112 </r>
       <r>    13.7316     0.0907     7.9198 </r>
       <r>    13.8085     0.0855     7.9266 </r>
       <r>    13.8853     0.0807     7.9330 </r>
       <r>    13.9621     0.0762     7.9390 </r>
       <r>    14.0390     0.0721     7.9447 </r>
       <r>    14.1158     0.0683     7.9501 </r>
       <r>    14.1926     0.0654     7.9552 </r>
       <r>    14.2695     0.0674     7.9603 </r>
       <r>    14.3463     0.0792     7.9657 </r>
       <r>    14.4231     0.1031     7.9729 </r>
       <r>    14.4999     0.0917     7.9806 </r>
       <r>    14.5768     0.0857     7.9867 </r>
       <r>    14.6536     0.0943     7.9940 </r>
       <r>    14.7304     0.0371     7.9995 </r>
       <r>    14.8073     0.0000     8.0000 </r>
       <r>    14.8841     0.0000     8.0000 </r>
       <r>    14.9609     0.0000     8.0000 </r>
       <r>    15.0378     0.0000     8.0000 </r>
       <r>    15.1146     0.0000     8.0000 </r>
       <r>    15.1914     0.0000     8.0000 </r>
       <r>    15.2682     0.0000     8.0000 </r>
       <r>    15.3451     0.0000     8.0000 </r>
       <r>    15.4219     0.0000     8.0000 </r>
       <r>    15.4987     0.0000     8.0000 </r>
       <r>    15.5756     0.0000     8.0000 </r>
       <r>    15.6524     0.0000     8.0000 </r>
       <r>    15.7292     0.0000     8.0000 </r>
       <r>    15.8061     0.0000     8.0000 </r>
      </set>
     </set>
    </array>
   </total>
   <partial>
    <array>
     <dimension dim="1">gridpoints</dimension>
     <dimension dim="2">spin</dimension>
     <dimension dim="3">ion</dimension>
     <field>energy</field>
     <field>    s</field>
     <field>   py</field>
     <field>   pz</field>
     <field>   px</field>
     <field>  dxy</field>
     <field>  dyz</field>
     <field>  dz2</field>
     <field>  dxz</field>
     <field>x2-y2</field>
     <set>
      <set comment="ion 1">
       <set comment="spin 1">
        <r>    -7.2430     0.0000     0.0000     0.0000     0.0000     0.0000     0.0000     0.0000     0.0000     0.0000 </r>
        <r>    -7.1662     0.0000     0.0000     0.0000     0.0000     0.0000     0.0000     0.0000     0.0000     0.0000 </r>
        <r>    -7.0893     0.0000     0.0000     0.0000     0.0000     0.0000     0.0000     0.0000     0.0000     0.0000 </r>
        <r>    -7.0125     0.0000     0.0000     0.0000     0.0000     0.0000     0.0000     0.0000     0.0000     0.0000 </r>
        <r>    -6.9357     0.0000     0.0000     0.0000     0.0000     0.0000     0.0000     0.0000     0.0000     0.0000 </r>
        <r>    -6.8588     0.0000     0.0000     0.0000     0.0000     0.0000     0.0000     0.0000     0.0000     0.0000 </r>
        <r>    -6.7820     0.0000     0.0000     0.0000     0.0000     0.0000     0.0000     0.0000     0.0000     0.0000 </r>
        <r>    -6.7052     0.0000     0.0000     0.0000     0.0000     0.0000     0.0000     0.0000     0.0000     0.0000 </r>
        <r>    -6.6283     0.0000     0.0000     0.0000     0.0000     0.0000     0.0000     0.0000     0.0000     0.0000 </r>
        <r>    -6.5515     0.0000     0.0000     0.0000     0.0000     0.0000     0.0000     0.0000     0.0000     0.0000 </r>
        <r>    -6.4747     0.0000     0.0000     0.0000     0.0000     0.0000     0.0000     0.0000     0.0000     0.0000 </r>
        <r>    -6.3979     0.0000     0.0000     0.0000     0.0000     0.0000     0.0000     0.0000     0.0000     0.0000 </r>
        <r>    -6.3210     0.0000     0.0000     0.0000     0.0000     0.0000     0.0000     0.0000     0.0000     0.0000 </r>
        <r>    -6.2442     0.0000     0.0000     0.0000     0.0000     0.0000     0.0000     0.0000     0.0000     0.0000 </r>
        <r>    -6.1674     0.0002     0.0000     0.0000     0.0000     0.0000     0.0000     0.0000     0.0000     0.0000 </r>
        <r>    -6.0905     0.0034     0.0000     0.0000     0.0000     0.0000     0.0000     0.0000     0.0000     0.0000 </r>
        <r>    -6.0137     0.0102     0.0000     0.0000     0.0000     0.0000     0.0000     0.0000     0.0000     0.0000 </r>
        <r>    -5.9369     0.0206     0.0001     0.0001     0.0001     0.0000     0.0000     0.0000     0.0000     0.0000 </r>
        <r>    -5.8600     0.0182     0.0001     0.0001     0.0001     0.0000     0.0000     0.0000     0.0000     0.0000 </r>
        <r>    -5.7832     0.0206     0.0002     0.0002     0.0002     0.0000     0.0000     0.0000     0.0000     0.0000 </r>
        <r>    -5.7064     0.0232     0.0002     0.0002     0.0002     0.0000     0.0000     0.0000     0.0000     0.0000 </r>
        <r>    -5.6296     0.0259     0.0003     0.0003     0.0003     0.0000     0.0000     0.0000     0.0000     0.0000 </r>
        <r>    -5.5527     0.0288     0.0003     0.0003     0.0003     0.0000     0.0000     0.0000     0.0000     0.0000 </r>
        <r>    -5.4759     0.0318     0.0004     0.0004     0.0004     0.0000     0.0000     0.0000     0.0000     0.0000 </r>
        <r>    -5.3991     0.0341     0.0004     0.0004     0.0004     0.0000     0.0000     0.0000     0.0000     0.0000 </r>
        <r>    -5.3222     0.0356     0.0005     0.0005     0.0005     0.0000     0.0000     0.0000     0.0000     0.0000 </r>
        <r>    -5.2454     0.0364     0.0006     0.0006     0.0006     0.0000     0.0000     0.0000     0.0000     0.0000 </r>
        <r>    -5.1686     0.0380     0.0007     0.0007     0.0007     0.0000     0.0000     0.0000     0.0000     0.0000 </r>
        <r>    -5.0917     0.0399     0.0008     0.0008     0.0008     0.0000     0.0000     0.0000     0.0000     0.0000 </r>
        <r>    -5.0149     0.0420     0.0008     0.0008     0.0008     0.0000     0.0000     0.0000     0.0000     0.0000 </r>
        <r>    -4.9381     0.0441     0.0009     0.0009     0.0009     0.0000     0.0000     0.0000     0.0000     0.0000 </r>
        <r>    -4.8613     0.0462     0.0010     0.0010     0.0010     0.0000     0.0000     0.0000     0.0000     0.0000 </r>
        <r>    -4.7844     0.0485     0.0011     0.0011     0.0011     0.0000     0.0000     0.0000     0.0000     0.0000 </r>
        <r>    -4.7076     0.0508     0.0012     0.0012     0.0012     0.0000     0.0000     0.0000     0.0000     0.0000 </r>
        <r>    -4.6308     0.0531     0.0012     0.0012     0.0012     0.0000     0.0000     0.0000     0.0000     0.0000 </r>
        <r>    -4.5539     0.0551     0.0014     0.0014     0.0014     0.0000     0.0000     0.0000     0.0000     0.0000 </r>
        <r>    -4.4771     0.0577     0.0015     0.0015     0.0015     0.0000     0.0000     0.0000     0.0000     0.0000 </r>
        <r>    -4.4003     0.0606     0.0016     0.0016     0.0016     0.0000     0.0000     0.0000     0.0000     0.0000 </r>
        <r>    -4.3234     0.0638     0.0018     0.0018     0.0018     0.0000     0.0000     0.0000     0.0000     0.0000 </r>
        <r>    -4.2466     0.0674     0.0019     0.0019     0.0019     0.0000     0.0000     0.0000     0.0000     0.0000 </r>
        <r>    -4.1698     0.0727     0.0021     0.0021     0.0021     0.0000     0.0000     0.0000     0.0000     0.0000 </r>
        <r>    -4.0929     0.0835     0.0025     0.0025     0.0025     0.0000     0.0000     0.0000     0.0000     0.0000 </r>
        <r>    -4.0161     0.0910     0.0027     0.0027     0.0027     0.0000     0.0000     0.0000     0.0000     0.0000 </r>
        <r>    -3.9393     0.0950     0.0029     0.0029     0.0029     0.0000     0.0000     0.0000     0.0000     0.0000 </r>
        <r>    -3.8625     0.0953     0.0029     0.0029     0.0029     0.0000     0.0000     0.0000     0.0000     0.0000 </r>
        <r>    -3.7856     0.0920     0.0029     0.0029     0.0029     0.0000     0.0000     0.0000     0.0000     0.0000 </r>
        <r>    -3.7088     0.0869     0.0029     0.0029     0.0029     0.0000     0.0000     0.0000     0.0000     0.0000 </r>
        <r>    -3.6320     0.0961     0.0033     0.0033     0.0033     0.0000     0.0000     0.0000     0.0000     0.0000 </r>
        <r>    -3.5551     0.0969     0.0035     0.0035     0.0035     0.0000     0.0000     0.0000     0.0000     0.0000 </r>
[...]
       </set>
       <set comment="band 5">
        <r>  0.1056  0.0323  0.0000  0.0646  0.0000  0.0000  0.0000  0.0000  0.0000 </r>
        <r>  0.1056  0.0323  0.0000  0.0646  0.0000  0.0000  0.0000  0.0000  0.0000 </r>
       </set>
       <set comment="band 6">
        <r>  0.0000  0.0000  0.1495  0.0000  0.0000  0.0000  0.0000  0.0000  0.0000 </r>
        <r>  0.0000  0.0000  0.1495  0.0000  0.0000  0.0000  0.0000  0.0000  0.0000 </r>
       </set>
       <set comment="band 7">
        <r>  0.0273  0.0526  0.0000  0.0733  0.0000  0.0000  0.0000  0.0000  0.0000 </r>
        <r>  0.0273  0.0526  0.0000  0.0733  0.0000  0.0000  0.0000  0.0000  0.0000 </r>
       </set>
       <set comment="band 8">
        <r>  0.0832  0.0711  0.0000  0.0361  0.0000  0.0000  0.0000  0.0000  0.0000 </r>
        <r>  0.0832  0.0711  0.0000  0.0361  0.0000  0.0000  0.0000  0.0000  0.0000 </r>
       </set>
      </set>
      <set comment="kpoint 11">
       <set comment="band 1">
        <r>  0.2053  0.0050  0.0000  0.0099  0.0000  0.0000  0.0000  0.0000  0.0000 </r>
        <r>  0.2053  0.0050  0.0000  0.0099  0.0000  0.0000  0.0000  0.0000  0.0000 </r>
       </set>
       <set comment="band 2">
        <r>  0.1658  0.0292  0.0000  0.0583  0.0000  0.0000  0.0000  0.0000  0.0000 </r>
        <r>  0.1658  0.0292  0.0000  0.0583  0.0000  0.0000  0.0000  0.0000  0.0000 </r>
       </set>
       <set comment="band 3">
        <r>  0.0000  0.1305  0.0000  0.0652  0.0000  0.0000  0.0000  0.0000  0.0000 </r>
        <r>  0.0000  0.1305  0.0000  0.0652  0.0000  0.0000  0.0000  0.0000  0.0000 </r>
       </set>
       <set comment="band 4">
        <r>  0.0000  0.0000  0.1957  0.0000  0.0000  0.0000  0.0000  0.0000  0.0000 </r>
        <r>  0.0000  0.0000  0.1957  0.0000  0.0000  0.0000  0.0000  0.0000  0.0000 </r>
       </set>
       <set comment="band 5">
        <r>  0.0460  0.0228  0.0000  0.0456  0.0000  0.0000  0.0000  0.0000  0.0000 </r>
        <r>  0.0460  0.0228  0.0000  0.0456  0.0000  0.0000  0.0000  0.0000  0.0000 </r>
       </set>
       <set comment="band 6">
        <r>  0.0459  0.0120  0.0000  0.0240  0.0000  0.0000  0.0000  0.0000  0.0000 </r>
        <r>  0.0459  0.0120  0.0000  0.0240  0.0000  0.0000  0.0000  0.0000  0.0000 </r>
       </set>
       <set comment="band 7">
        <r>  0.0000  0.0947  0.0244  0.0474  0.0000  0.0000  0.0000  0.0000  0.0000 </r>
        <r>  0.0000  0.0947  0.0244  0.0474  0.0000  0.0000  0.0000  0.0000  0.0000 </r>
       </set>
       <set comment="band 8">
        <r>  0.0000  0.0164  0.1421  0.0080  0.0000  0.0000  0.0000  0.0000  0.0000 </r>
        <r>  0.0000  0.0163  0.1421  0.0081  0.0000  0.0000  0.0000  0.0000  0.0000 </r>
       </set>
      </set>
      <set comment="kpoint 12">
       <set comment="band 1">
        <r>  0.2036  0.0043  0.0000  0.0190  0.0000  0.0000  0.0000  0.0000  0.0000 </r>
        <r>  0.2036  0.0043  0.0000  0.0190  0.0000  0.0000  0.0000  0.0000  0.0000 </r>
       </set>
       <set comment="band 2">
        <r>  0.1742  0.0123  0.0000  0.0593  0.0000  0.0000  0.0000  0.0000  0.0000 </r>
        <r>  0.1742  0.0123  0.0000  0.0593  0.0000  0.0000  0.0000  0.0000  0.0000 </r>
       </set>
       <set comment="band 3">
        <r>  0.0102  0.1215  0.0000  0.0456  0.0000  0.0000  0.0000  0.0000  0.0000 </r>
        <r>  0.0102  0.1215  0.0000  0.0456  0.0000  0.0000  0.0000  0.0000  0.0000 </r>
       </set>
       <set comment="band 4">
        <r>  0.0000  0.0000  0.1965  0.0000  0.0000  0.0000  0.0000  0.0000  0.0000 </r>
        <r>  0.0000  0.0000  0.1965  0.0000  0.0000  0.0000  0.0000  0.0000  0.0000 </r>
       </set>
       <set comment="band 5">
        <r>  0.0461  0.0428  0.0000  0.0155  0.0000  0.0000  0.0000  0.0000  0.0000 </r>
        <r>  0.0461  0.0428  0.0000  0.0155  0.0000  0.0000  0.0000  0.0000  0.0000 </r>
       </set>
       <set comment="band 6">
        <r>  0.0376  0.0229  0.0000  0.0369  0.0000  0.0000  0.0000  0.0000  0.0000 </r>
        <r>  0.0376  0.0229  0.0000  0.0369  0.0000  0.0000  0.0000  0.0000  0.0000 </r>
       </set>
       <set comment="band 7">
        <r>  0.0411  0.1342  0.0000  0.0060  0.0000  0.0000  0.0000  0.0000  0.0000 </r>
        <r>  0.0411  0.1342  0.0000  0.0060  0.0000  0.0000  0.0000  0.0000  0.0000 </r>
       </set>
       <set comment="band 8">
        <r>  0.0000  0.0000  0.1331  0.0000  0.0000  0.0000  0.0000  0.0000  0.0000 </r>
        <r>  0.0000  0.0000  0.1331  0.0000  0.0000  0.0000  0.0000  0.0000  0.0000 </r>
       </set>
      </set>
      <set comment="kpoint 13">
       <set comment="band 1">
        <r>  0.2138  0.0094  0.0000  0.0170  0.0000  0.0000  0.0000  0.0000  0.0000 </r>
        <r>  0.2138  0.0094  0.0000  0.0170  0.0000  0.0000  0.0000  0.0000  0.0000 </r>
       </set>
       <set comment="band 2">
        <r>  0.1656  0.0094  0.0000  0.0555  0.0000  0.0000  0.0000  0.0000  0.0000 </r>
        <r>  0.1656  0.0094  0.0000  0.0555  0.0000  0.0000  0.0000  0.0000  0.0000 </r>
       </set>
       <set comment="band 3">
        <r>  0.0140  0.1077  0.0000  0.0424  0.0000  0.0000  0.0000  0.0000  0.0000 </r>
        <r>  0.0140  0.1077  0.0000  0.0424  0.0000  0.0000  0.0000  0.0000  0.0000 </r>
       </set>
       <set comment="band 4">
        <r>  0.0000  0.0000  0.1995  0.0000  0.0000  0.0000  0.0000  0.0000  0.0000 </r>
        <r>  0.0000  0.0000  0.1995  0.0000  0.0000  0.0000  0.0000  0.0000  0.0000 </r>
       </set>
       <set comment="band 5">
        <r>  0.0524  0.0235  0.0000  0.0232  0.0000  0.0000  0.0000  0.0000  0.0000 </r>
        <r>  0.0524  0.0235  0.0000  0.0232  0.0000  0.0000  0.0000  0.0000  0.0000 </r>
       </set>
       <set comment="band 6">
        <r>  0.0162  0.0543  0.0000  0.0302  0.0000  0.0000  0.0000  0.0000  0.0000 </r>
        <r>  0.0162  0.0543  0.0000  0.0302  0.0000  0.0000  0.0000  0.0000  0.0000 </r>
       </set>
       <set comment="band 7">
        <r>  0.0000  0.0000  0.1201  0.0000  0.0000  0.0000  0.0000  0.0000  0.0000 </r>
        <r>  0.0000  0.0000  0.1201  0.0000  0.0000  0.0000  0.0000  0.0000  0.0000 </r>
       </set>
       <set comment="band 8">
        <r>  0.0606  0.1198  0.0000  0.0126  0.0000  0.0000  0.0000  0.0000  0.0000 </r>
        <r>  0.0607  0.1197  0.0000  0.0125  0.0000  0.0000  0.0000  0.0000  0.0000 </r>
       </set>
      </set>
      <set comment="kpoint 14">
       <set comment="band 1">
        <r>  0.2101  0.0133  0.0000  0.0090  0.0000  0.0000  0.0000  0.0000  0.0000 </r>
        <r>  0.2101  0.0133  0.0000  0.0090  0.0000  0.0000  0.0000  0.0000  0.0000 </r>
       </set>
       <set comment="band 2">
        <r>  0.1653  0.0345  0.0000  0.0371  0.0000  0.0000  0.0000  0.0000  0.0000 </r>
        <r>  0.1653  0.0345  0.0000  0.0371  0.0000  0.0000  0.0000  0.0000  0.0000 </r>
       </set>
       <set comment="band 3">
        <r>  0.0099  0.0760  0.0000  0.0741  0.0000  0.0000  0.0000  0.0000  0.0000 </r>
        <r>  0.0099  0.0760  0.0000  0.0741  0.0000  0.0000  0.0000  0.0000  0.0000 </r>
       </set>
       <set comment="band 4">
        <r>  0.0000  0.0000  0.2052  0.0000  0.0000  0.0000  0.0000  0.0000  0.0000 </r>
        <r>  0.0000  0.0000  0.2052  0.0000  0.0000  0.0000  0.0000  0.0000  0.0000 </r>
       </set>
       <set comment="band 5">
        <r>  0.0587  0.0195  0.0000  0.0361  0.0000  0.0000  0.0000  0.0000  0.0000 </r>
        <r>  0.0587  0.0195  0.0000  0.0361  0.0000  0.0000  0.0000  0.0000  0.0000 </r>
       </set>
       <set comment="band 6">
        <r>  0.0000  0.0000  0.1498  0.0000  0.0000  0.0000  0.0000  0.0000  0.0000 </r>
        <r>  0.0000  0.0000  0.1498  0.0000  0.0000  0.0000  0.0000  0.0000  0.0000 </r>
       </set>
       <set comment="band 7">
        <r>  0.0257  0.0315  0.0000  0.0627  0.0000  0.0000  0.0000  0.0000  0.0000 </r>
        <r>  0.0257  0.0315  0.0000  0.0628  0.0000  0.0000  0.0000  0.0000  0.0000 </r>
       </set>
       <set comment="band 8">
        <r>  0.0713  0.0804  0.0000  0.0555  0.0000  0.0000  0.0000  0.0000  0.0000 </r>
        <r>  0.0715  0.0799  0.0000  0.0551  0.0000  0.0000  0.0000  0.0000  0.0000 </r>
       </set>
      </set>
      <set comment="kpoint 15">
       <set comment="band 1">
        <r>  0.1979  0.0109  0.0000  0.0218  0.0000  0.0000  0.0000  0.0000  0.0000 </r>
        <r>  0.1979  0.0109  0.0000  0.0218  0.0000  0.0000  0.0000  0.0000  0.0000 </r>
       </set>
       <set comment="band 2">
        <r>  0.1872  0.0189  0.0000  0.0378  0.0000  0.0000  0.0000  0.0000  0.0000 </r>
        <r>  0.1872  0.0189  0.0000  0.0378  0.0000  0.0000  0.0000  0.0000  0.0000 </r>
       </set>
       <set comment="band 3">
        <r>  0.0000  0.1300  0.0000  0.0650  0.0000  0.0000  0.0000  0.0000  0.0000 </r>
        <r>  0.0000  0.1300  0.0000  0.0650  0.0000  0.0000  0.0000  0.0000  0.0000 </r>
       </set>
       <set comment="band 4">
        <r>  0.0000  0.0000  0.1950  0.0000  0.0000  0.0000  0.0000  0.0000  0.0000 </r>
        <r>  0.0000  0.0000  0.1950  0.0000  0.0000  0.0000  0.0000  0.0000  0.0000 </r>
       </set>
       <set comment="band 5">
        <r>  0.0525  0.0145  0.0000  0.0289  0.0000  0.0000  0.0000  0.0000  0.0000 </r>
        <r>  0.0525  0.0145  0.0000  0.0289  0.0000  0.0000  0.0000  0.0000  0.0000 </r>
       </set>
       <set comment="band 6">
        <r>  0.0479  0.0108  0.0000  0.0215  0.0000  0.0000  0.0000  0.0000  0.0000 </r>
        <r>  0.0479  0.0108  0.0000  0.0215  0.0000  0.0000  0.0000  0.0000  0.0000 </r>
       </set>
       <set comment="band 7">
        <r>  0.0000  0.0230  0.1394  0.0115  0.0000  0.0000  0.0000  0.0000  0.0000 </r>
        <r>  0.0000  0.0230  0.1395  0.0115  0.0000  0.0000  0.0000  0.0000  0.0000 </r>
       </set>
       <set comment="band 8">
        <r>  0.0000  0.0929  0.0346  0.0466  0.0000  0.0000  0.0000  0.0000  0.0000 </r>
        <r>  0.0000  0.0933  0.0346  0.0462  0.0000  0.0000  0.0000  0.0000  0.0000 </r>
       </set>
      </set>
      <set comment="kpoint 16">
       <set comment="band 1">
        <r>  0.2023  0.0139  0.0000  0.0252  0.0000  0.0000  0.0000  0.0000  0.0000 </r>
        <r>  0.2023  0.0139  0.0000  0.0252  0.0000  0.0000  0.0000  0.0000  0.0000 </r>
       </set>
       <set comment="band 2">
        <r>  0.1901  0.0169  0.0000  0.0302  0.0000  0.0000  0.0000  0.0000  0.0000 </r>
        <r>  0.1901  0.0169  0.0000  0.0302  0.0000  0.0000  0.0000  0.0000  0.0000 </r>
       </set>
       <set comment="band 3">
        <r>  0.0021  0.1041  0.0000  0.0620  0.0000  0.0000  0.0000  0.0000  0.0000 </r>
        <r>  0.0021  0.1041  0.0000  0.0620  0.0000  0.0000  0.0000  0.0000  0.0000 </r>
       </set>
       <set comment="band 4">
        <r>  0.0000  0.0000  0.1959  0.0000  0.0000  0.0000  0.0000  0.0000  0.0000 </r>
        <r>  0.0000  0.0000  0.1959  0.0000  0.0000  0.0000  0.0000  0.0000  0.0000 </r>
       </set>
       <set comment="band 5">
        <r>  0.0514  0.0128  0.0000  0.0251  0.0000  0.0000  0.0000  0.0000  0.0000 </r>
        <r>  0.0514  0.0128  0.0000  0.0251  0.0000  0.0000  0.0000  0.0000  0.0000 </r>
       </set>
       <set comment="band 6">
        <r>  0.0377  0.0383  0.0000  0.0311  0.0000  0.0000  0.0000  0.0000  0.0000 </r>
        <r>  0.0377  0.0383  0.0000  0.0311  0.0000  0.0000  0.0000  0.0000  0.0000 </r>
       </set>
       <set comment="band 7">
        <r>  0.0000  0.0000  0.1804  0.0001  0.0000  0.0000  0.0000  0.0000  0.0000 </r>
        <r>  0.0000  0.0000  0.1782  0.0001  0.0000  0.0000  0.0000  0.0000  0.0000 </r>
       </set>
       <set comment="band 8">
        <r>  0.0302  0.1536  0.0001  0.0425  0.0000  0.0000  0.0000  0.0000  0.0000 </r>
        <r>  0.0238  0.1535  0.0000  0.0479  0.0000  0.0000  0.0000  0.0000  0.0000 </r>
       </set>
      </set>
      <set comment="kpoint 17">
       <set comment="band 1">
        <r>  0.2064  0.0017  0.0017  0.0134  0.0000  0.0000  0.0000  0.0000  0.0000 </r>
        <r>  0.2064  0.0017  0.0017  0.0134  0.0000  0.0000  0.0000  0.0000  0.0000 </r>
       </set>
       <set comment="band 2">
        <r>  0.1566  0.0121  0.0200  0.0540  0.0000  0.0000  0.0000  0.0000  0.0000 </r>
        <r>  0.1566  0.0121  0.0200  0.0540  0.0000  0.0000  0.0000  0.0000  0.0000 </r>
       </set>
       <set comment="band 3">
        <r>  0.0114  0.0328  0.0712  0.0590  0.0000  0.0000  0.0000  0.0000  0.0000 </r>
        <r>  0.0114  0.0328  0.0712  0.0590  0.0000  0.0000  0.0000  0.0000  0.0000 </r>
       </set>
       <set comment="band 4">
        <r>  0.0064  0.1150  0.0665  0.0095  0.0000  0.0000  0.0000  0.0000  0.0000 </r>
        <r>  0.0064  0.1150  0.0665  0.0095  0.0000  0.0000  0.0000  0.0000  0.0000 </r>
       </set>
       <set comment="band 5">
        <r>  0.0284  0.0590  0.0268  0.0191  0.0000  0.0000  0.0000  0.0000  0.0000 </r>
        <r>  0.0284  0.0590  0.0268  0.0191  0.0000  0.0000  0.0000  0.0000  0.0000 </r>
       </set>
       <set comment="band 6">
        <r>  0.0633  0.0092  0.0152  0.0360  0.0000  0.0000  0.0000  0.0000  0.0000 </r>
        <r>  0.0633  0.0092  0.0152  0.0360  0.0000  0.0000  0.0000  0.0000  0.0000 </r>
       </set>
       <set comment="band 7">
        <r>  0.0285  0.0442  0.0477  0.0084  0.0000  0.0000  0.0000  0.0000  0.0000 </r>
        <r>  0.0285  0.0442  0.0477  0.0084  0.0000  0.0000  0.0000  0.0000  0.0000 </r>
       </set>
       <set comment="band 8">
        <r>  0.0065  0.0674  0.0696  0.0139  0.0000  0.0000  0.0000  0.0000  0.0000 </r>
        <r>  0.0064  0.0674  0.0696  0.0139  0.0000  0.0000  0.0000  0.0000  0.0000 </r>
       </set>
      </set>
      <set comment="kpoint 18">
       <set comment="band 1">
        <r>  0.2115  0.0036  0.0021  0.0175  0.0000  0.0000  0.0000  0.0000  0.0000 </r>
        <r>  0.2115  0.0036  0.0021  0.0175  0.0000  0.0000  0.0000  0.0000  0.0000 </r>
       </set>
       <set comment="band 2">
        <r>  0.1540  0.0107  0.0035  0.0593  0.0000  0.0000  0.0000  0.0000  0.0000 </r>
        <r>  0.1540  0.0107  0.0035  0.0593  0.0000  0.0000  0.0000  0.0000  0.0000 </r>
       </set>
       <set comment="band 3">
        <r>  0.0265  0.0614  0.0512  0.0370  0.0000  0.0000  0.0000  0.0000  0.0000 </r>
        <r>  0.0265  0.0614  0.0512  0.0370  0.0000  0.0000  0.0000  0.0000  0.0000 </r>
       </set>
       <set comment="band 4">
        <r>  0.0021  0.0709  0.1038  0.0101  0.0000  0.0000  0.0000  0.0000  0.0000 </r>
        <r>  0.0021  0.0709  0.1038  0.0101  0.0000  0.0000  0.0000  0.0000  0.0000 </r>
       </set>
       <set comment="band 5">
        <r>  0.0380  0.0286  0.0429  0.0132  0.0000  0.0000  0.0000  0.0000  0.0000 </r>
        <r>  0.0380  0.0286  0.0429  0.0132  0.0000  0.0000  0.0000  0.0000  0.0000 </r>
       </set>
       <set comment="band 6">
        <r>  0.0403  0.0443  0.0400  0.0030  0.0000  0.0000  0.0000  0.0000  0.0000 </r>
        <r>  0.0403  0.0443  0.0400  0.0030  0.0000  0.0000  0.0000  0.0000  0.0000 </r>
       </set>
       <set comment="band 7">
        <r>  0.0321  0.0560  0.0006  0.0390  0.0000  0.0000  0.0000  0.0000  0.0000 </r>
        <r>  0.0321  0.0560  0.0006  0.0391  0.0000  0.0000  0.0000  0.0000  0.0000 </r>
       </set>
       <set comment="band 8">
        <r>  0.0165  0.0618  0.0597  0.0007  0.0000  0.0000  0.0000  0.0000  0.0000 </r>
        <r>  0.0166  0.0616  0.0595  0.0007  0.0000  0.0000  0.0000  0.0000  0.0000 </r>
       </set>
      </set>
      <set comment="kpoint 19">
       <set comment="band 1">
        <r>  0.2027  0.0077  0.0020  0.0226  0.0000  0.0000  0.0000  0.0000  0.0000 </r>
        <r>  0.2027  0.0077  0.0020  0.0226  0.0000  0.0000  0.0000  0.0000  0.0000 </r>
       </set>
       <set comment="band 2">
        <r>  0.1921  0.0146  0.0060  0.0337  0.0000  0.0000  0.0000  0.0000  0.0000 </r>
        <r>  0.1921  0.0146  0.0060  0.0337  0.0000  0.0000  0.0000  0.0000  0.0000 </r>
       </set>
       <set comment="band 3">
        <r>  0.0062  0.0314  0.0728  0.0594  0.0000  0.0000  0.0000  0.0000  0.0000 </r>
        <r>  0.0062  0.0314  0.0728  0.0594  0.0000  0.0000  0.0000  0.0000  0.0000 </r>
       </set>
       <set comment="band 4">
        <r>  0.0000  0.0894  0.0732  0.0104  0.0000  0.0000  0.0000  0.0000  0.0000 </r>
        <r>  0.0000  0.0894  0.0732  0.0104  0.0000  0.0000  0.0000  0.0000  0.0000 </r>
       </set>
       <set comment="band 5">
        <r>  0.0362  0.0467  0.0249  0.0088  0.0000  0.0000  0.0000  0.0000  0.0000 </r>
        <r>  0.0362  0.0467  0.0249  0.0088  0.0000  0.0000  0.0000  0.0000  0.0000 </r>
       </set>
       <set comment="band 6">
        <r>  0.0369  0.0046  0.0209  0.0372  0.0000  0.0000  0.0000  0.0000  0.0000 </r>
        <r>  0.0369  0.0046  0.0209  0.0372  0.0000  0.0000  0.0000  0.0000  0.0000 </r>
       </set>
       <set comment="band 7">
        <r>  0.0317  0.0628  0.0447  0.0073  0.0000  0.0000  0.0000  0.0000  0.0000 </r>
        <r>  0.0317  0.0627  0.0447  0.0073  0.0000  0.0000  0.0000  0.0000  0.0000 </r>
       </set>
       <set comment="band 8">
        <r>  0.0163  0.0300  0.0731  0.0590  0.0000  0.0000  0.0000  0.0000  0.0000 </r>
        <r>  0.0164  0.0229  0.0659  0.0731  0.0000  0.0000  0.0000  0.0000  0.0000 </r>
       </set>
      </set>
      <set comment="kpoint 20">
       <set comment="band 1">
        <r>  0.2110  0.0139  0.0032  0.0154  0.0000  0.0000  0.0000  0.0000  0.0000 </r>
        <r>  0.2110  0.0139  0.0032  0.0154  0.0000  0.0000  0.0000  0.0000  0.0000 </r>
       </set>
       <set comment="band 2">
        <r>  0.1905  0.0210  0.0029  0.0277  0.0000  0.0000  0.0000  0.0000  0.0000 </r>
        <r>  0.1905  0.0210  0.0029  0.0277  0.0000  0.0000  0.0000  0.0000  0.0000 </r>
       </set>
       <set comment="band 3">
        <r>  0.0008  0.0855  0.0005  0.0682  0.0000  0.0000  0.0000  0.0000  0.0000 </r>
        <r>  0.0008  0.0855  0.0005  0.0682  0.0000  0.0000  0.0000  0.0000  0.0000 </r>
       </set>
       <set comment="band 4">
        <r>  0.0027  0.0074  0.1499  0.0146  0.0000  0.0000  0.0000  0.0000  0.0000 </r>
        <r>  0.0027  0.0074  0.1499  0.0146  0.0000  0.0000  0.0000  0.0000  0.0000 </r>
       </set>
       <set comment="band 5">
        <r>  0.0357  0.0112  0.0457  0.0191  0.0000  0.0000  0.0000  0.0000  0.0000 </r>
        <r>  0.0357  0.0112  0.0457  0.0191  0.0000  0.0000  0.0000  0.0000  0.0000 </r>
       </set>
       <set comment="band 6">
        <r>  0.0033  0.0415  0.0228  0.0212  0.0000  0.0000  0.0000  0.0000  0.0000 </r>
        <r>  0.0033  0.0415  0.0228  0.0212  0.0000  0.0000  0.0000  0.0000  0.0000 </r>
       </set>
       <set comment="band 7">
        <r>  0.0457  0.0271  0.0561  0.0396  0.0000  0.0000  0.0000  0.0000  0.0000 </r>
        <r>  0.0457  0.0271  0.0561  0.0395  0.0000  0.0000  0.0000  0.0000  0.0000 </r>
       </set>
       <set comment="band 8">
        <r>  0.0381  0.0531  0.0011  0.0415  0.0000  0.0000  0.0000  0.0000  0.0000 </r>
        <r>  0.0381  0.0531  0.0011  0.0415  0.0000  0.0000  0.0000  0.0000  0.0000 </r>
       </set>
      </set>
     </set>
    </set>
   </array>
  </projected>
 </calculation>
 <structure name="finalpos" >
  <crystal>
   <varray name="basis" >
    <v>       3.34889800       0.00000000       1.93348700 </v>
    <v>       1.11629900       3.15737200       1.93348700 </v>
    <v>       0.00000000       0.00000000       3.86697500 </v>
   </varray>
   <i name="volume">     40.88829843 </i>
   <varray name="rec_basis" >
    <v>       0.29860569      -0.10557300       0.00000000 </v>
    <v>       0.00000000       0.31671909       0.00000000 </v>
    <v>      -0.14930281      -0.10557302       0.25860007 </v>
   </varray>
  </crystal>
  <varray name="positions" >
   <v>       0.25000000       0.25000000       0.25000000 </v>
   <v>       0.00000000       0.00000000       0.00000000 </v>
  </varray>
 </structure>
</modeling>
