 vasp.6.1.2 22Jul20 (build Dec 10 2020 10:33:42) complex                        
  
 executed on             LinuxIFC date 2022.08.31  16:06:27
 running on  144 total cores
 distrk:  each k-point on  144 cores,    1 groups
 distr:  one band on NCORE=   1 cores,  144 groups


--------------------------------------------------------------------------------------------------------


 INCAR:
 POTCAR:    PAW_PBE Si 05Jan2001                  
 WARNING: For LVTOT=.TRUE., VASP.5.x writes the TOTAL local potential to the
     file LOCPOT. If you want only the Hartree contributions, use LVHAR=.TRUE.
     instead. 

 -----------------------------------------------------------------------------
|                                                                             |
|           W    W    AA    RRRRR   N    N  II  N    N   GGGG   !!!           |
|           W    W   A  A   R    R  NN   N  II  NN   N  G    G  !!!           |
|           W    W  A    A  R    R  N N  N  II  N N  N  G       !!!           |
|           W WW W  AAAAAA  RRRRR   N  N N  II  N  N N  G  GGG   !            |
|           WW  WW  A    A  R   R   N   NN  II  N   NN  G    G                |
|           W    W  A    A  R    R  N    N  II  N    N   GGGG   !!!           |
|                                                                             |
|     For optimal performance we recommend to set                             |
|       NCORE = 4 - approx SQRT(number of cores).                             |
|     NCORE specifies how many cores store one orbital (NPAR=cpu/NCORE).      |
|     This setting can greatly improve the performance of VASP for DFT.       |
|     The default, NCORE=1 might be grossly inefficient on modern             |
|     multi-core architectures or massively parallel machines. Do your        |
|     own testing!!!!                                                         |
|     Unfortunately you need to use the default for GW and RPA                |
|     calculations (for HF NCORE is supported but not extensively tested      |
|     yet).                                                                   |
|                                                                             |
 -----------------------------------------------------------------------------

 POTCAR:    PAW_PBE Si 05Jan2001                  
   VRHFIN =Si: s2p2                                                                                 
   LEXCH  = PE                                                                                      
   EATOM  =   103.0669 eV,    7.5752 Ry                                                             
                                                                                                    
   TITEL  = PAW_PBE Si 05Jan2001                                                                    
   LULTRA =        F    use ultrasoft PP ?                                                          
   IUNSCR =        1    unscreen: 0-lin 1-nonlin 2-no                                               
   RPACOR =    1.500    partial core radius                                                         
   POMASS =   28.085; ZVAL   =    4.000    mass and valenz                                          
   RCORE  =    1.900    outmost cutoff radius                                                       
   RWIGS  =    2.480; RWIGS  =    1.312    wigner-seitz radius (au A)                               
   ENMAX  =  245.345; ENMIN  =  184.009 eV                                                          
   ICORE  =        2    local potential                                                             
   LCOR   =        T    correct aug charges                                                         
   LPAW   =        T    paw PP                                                                      
   EAUG   =  322.069                                                                                
   DEXC   =    0.000                                                                                
   RMAX   =    1.950    core radius for proj-oper                                                   
   RAUG   =    1.300    factor for augmentation sphere                                              
   RDEP   =    1.993    radius for radial grids                                                     
   RDEPT  =    1.837    core radius for aug-charge                                                  
                                                                                                    
   Atomic configuration                                                                             
    6 entries                                                                                       
     n  l   j            E        occ.                                                              
     1  0  0.50     -1785.8828   2.0000                                                             
     2  0  0.50      -139.4969   2.0000                                                             
     2  1  1.50       -95.5546   6.0000                                                             
     3  0  0.50       -10.8127   2.0000                                                             
     3  1  0.50        -4.0811   2.0000                                                             
     3  2  1.50        -4.0817   0.0000                                                             
   Description                                                                                      
     l       E           TYP  RCUT    TYP  RCUT                                                     
     0    -10.8127223     23  1.900                                                                 
     0     -7.6451159     23  1.900                                                                 
     1     -4.0811372     23  1.900                                                                 
     1      2.4879257     23  1.900                                                                 
     2     -4.0817478      7  1.900                                                                 
  local pseudopotential read in
  partial core-charges read in
  partial kinetic energy density read in
  atomic valenz-charges read in
  non local Contribution for L=           0  read in
    real space projection operators read in
  non local Contribution for L=           0  read in
    real space projection operators read in
  non local Contribution for L=           1  read in
    real space projection operators read in
  non local Contribution for L=           1  read in
    real space projection operators read in
    PAW grid and wavefunctions read in
 
   number of l-projection  operators is LMAX  =           4
   number of lm-projection operators is LMMAX =           8
 
 -----------------------------------------------------------------------------
|                                                                             |
|               ----> ADVICE to this user running VASP <----                  |
|                                                                             |
|     You enforced a specific xc type in the INCAR file but a different       |
|     type was found in the POTCAR file.                                      |
|     I HOPE YOU KNOW WHAT YOU ARE DOING!                                     |
|                                                                             |
 -----------------------------------------------------------------------------

  PAW_PBE Si 05Jan2001                  :
 energy of atom  1       EATOM= -103.0669
 kinetic energy error for atom=    0.0003 (will be added to EATOM!!)
 
 
 POSCAR: Si2
  positions in direct lattice
  No initial velocities read in
 exchange correlation table for  LEXCH =       14
   RHO(1)=    0.500       N(1)  =     2000
   RHO(2)=  100.500       N(2)  =     4000

 VTST: version 3.2, (02/03/18)

 CHAIN: initializing optimizer
 
 OPT: Using VASP Conjugate-Gradient optimizer
 CHAIN: Read ICHAIN            0
 
 POSCAR: Si2
  positions in direct lattice
  No initial velocities read in
 


--------------------------------------------------------------------------------------------------------


 ion  position               nearest neighbor table
   1  0.000  0.000  0.000-   2 2.35   2 2.35   2 2.35   2 2.35
   2  0.250  0.250  0.250-   1 2.35   1 2.35   1 2.35   1 2.35
 
  LATTYP: Found a face centered cubic cell.
 ALAT       =     5.4357260000
  
  Lattice vectors:
  
 A1 = (   0.0000000000,   2.7178630000,   2.7178630000)
 A2 = (   2.7178630000,   0.0000000000,   2.7178630000)
 A3 = (   2.7178630000,   2.7178630000,   0.0000000000)


Analysis of symmetry for initial positions (statically):
=====================================================================
 Subroutine PRICEL returns:
 Original cell was already a primitive cell.
 

 Routine SETGRP: Setting up the symmetry group for a 
 face centered cubic supercell.


 Subroutine GETGRP returns: Found 48 space group operations
 (whereof 24 operations were pure point group operations)
 out of a pool of 48 trial point group operations.


The static configuration has the point symmetry T_d .
 The point group associated with its full space group is O_h .


Analysis of symmetry for dynamics (positions and initial velocities):
=====================================================================
 Subroutine PRICEL returns:
 Original cell was already a primitive cell.
 

 Routine SETGRP: Setting up the symmetry group for a 
 face centered cubic supercell.


 Subroutine GETGRP returns: Found 48 space group operations
 (whereof 24 operations were pure point group operations)
 out of a pool of 48 trial point group operations.


The dynamic configuration has the point symmetry T_d .
 The point group associated with its full space group is O_h .


Analysis of structural, dynamic, and magnetic symmetry:
=====================================================================
 Subroutine PRICEL returns:
 Original cell was already a primitive cell.
 

 Routine SETGRP: Setting up the symmetry group for a 
 face centered cubic supercell.


 Subroutine GETGRP returns: Found 48 space group operations
 (whereof 24 operations were pure point group operations)
 out of a pool of 48 trial point group operations.


The magnetic configuration has the point symmetry T_d .
 The point group associated with its full space group is O_h .


 Subroutine INISYM returns: Found 48 space group operations
 (whereof 24 operations are pure point group operations),
 and found     1 'primitive' translations


----------------------------------------------------------------------------------------

                                     Primitive cell                                     

  volume of cell :      40.1525

  direct lattice vectors                    reciprocal lattice vectors
     0.000000000  2.717863000  2.717863000    -0.183968066  0.183968066  0.183968066
     2.717863000  0.000000000  2.717863000     0.183968066 -0.183968066  0.183968066
     2.717863000  2.717863000  0.000000000     0.183968066  0.183968066 -0.183968066

  length of vectors
     3.843638715  3.843638715  3.843638715     0.318642037  0.318642037  0.318642037

  position of ions in fractional coordinates (direct lattice)
     0.000000000  0.000000000  0.000000000
     0.250000000  0.250000000  0.250000000

  ion indices of the primitive-cell ions
   primitive index   ion index
                 1           1
                 2           2

----------------------------------------------------------------------------------------

 
 

Automatic generation of k-mesh.
 generate k-points for:    8    8    8
Space group operators:
 irot       det(A)        alpha          n_x          n_y          n_z        tau_x        tau_y        tau_z
    1     1.000000     0.000000     1.000000     0.000000     0.000000     0.000000     0.000000     0.000000
    2     1.000000   120.000000    -0.577350    -0.577350    -0.577350     0.000000     0.000000     0.000000
    3     1.000000   120.000000     0.577350     0.577350     0.577350     0.000000     0.000000     0.000000
    4    -1.000000    90.000000    -0.000000    -0.000000    -1.000000     0.000000     0.000000     0.000000
    5    -1.000000   180.000000    -0.000000     0.707107     0.707107     0.000000     0.000000     0.000000
    6    -1.000000    90.000000    -0.000000     1.000000    -0.000000     0.000000     0.000000     0.000000
    7     1.000000   180.000000     0.000000     0.000000    -1.000000     0.000000     0.000000     0.000000
    8     1.000000   120.000000    -0.577350     0.577350     0.577350     0.000000     0.000000     0.000000
    9     1.000000   120.000000    -0.577350     0.577350    -0.577350     0.000000     0.000000     0.000000
   10    -1.000000    90.000000     0.000000     0.000000     1.000000     0.000000     0.000000     0.000000
   11    -1.000000    90.000000    -1.000000     0.000000     0.000000     0.000000     0.000000     0.000000
   12    -1.000000   180.000000     0.707107     0.000000     0.707107     0.000000     0.000000     0.000000
   13     1.000000   120.000000     0.577350    -0.577350     0.577350     0.000000     0.000000     0.000000
   14     1.000000   120.000000    -0.577350    -0.577350     0.577350     0.000000     0.000000     0.000000
   15     1.000000   180.000000     1.000000     0.000000     0.000000     0.000000     0.000000     0.000000
   16    -1.000000    90.000000     0.000000    -1.000000     0.000000     0.000000     0.000000     0.000000
   17    -1.000000   180.000000     0.707107     0.707107    -0.000000     0.000000     0.000000     0.000000
   18    -1.000000    90.000000     1.000000     0.000000     0.000000     0.000000     0.000000     0.000000
   19     1.000000   120.000000     0.577350    -0.577350    -0.577350     0.000000     0.000000     0.000000
   20     1.000000   180.000000    -0.000000    -1.000000     0.000000     0.000000     0.000000     0.000000
   21     1.000000   120.000000     0.577350     0.577350    -0.577350     0.000000     0.000000     0.000000
   22    -1.000000   180.000000    -0.000000    -0.707107     0.707107     0.000000     0.000000     0.000000
   23    -1.000000   180.000000     0.707107    -0.707107     0.000000     0.000000     0.000000     0.000000
   24    -1.000000   180.000000     0.707107     0.000000    -0.707107     0.000000     0.000000     0.000000
   25    -1.000000     0.000000     1.000000     0.000000     0.000000     0.250000     0.250000     0.250000
   26    -1.000000   120.000000    -0.577350    -0.577350    -0.577350     0.250000     0.250000     0.250000
   27    -1.000000   120.000000     0.577350     0.577350     0.577350     0.250000     0.250000     0.250000
   28     1.000000    90.000000    -0.000000    -0.000000    -1.000000     0.250000     0.250000     0.250000
   29     1.000000   180.000000    -0.000000     0.707107     0.707107     0.250000     0.250000     0.250000
   30     1.000000    90.000000    -0.000000     1.000000    -0.000000     0.250000     0.250000     0.250000
   31    -1.000000   180.000000     0.000000     0.000000    -1.000000     0.250000     0.250000     0.250000
   32    -1.000000   120.000000    -0.577350     0.577350     0.577350     0.250000     0.250000     0.250000
   33    -1.000000   120.000000    -0.577350     0.577350    -0.577350     0.250000     0.250000     0.250000
   34     1.000000    90.000000     0.000000     0.000000     1.000000     0.250000     0.250000     0.250000
   35     1.000000    90.000000    -1.000000     0.000000     0.000000     0.250000     0.250000     0.250000
   36     1.000000   180.000000     0.707107     0.000000     0.707107     0.250000     0.250000     0.250000
   37    -1.000000   120.000000     0.577350    -0.577350     0.577350     0.250000     0.250000     0.250000
   38    -1.000000   120.000000    -0.577350    -0.577350     0.577350     0.250000     0.250000     0.250000
   39    -1.000000   180.000000     1.000000     0.000000     0.000000     0.250000     0.250000     0.250000
   40     1.000000    90.000000     0.000000    -1.000000     0.000000     0.250000     0.250000     0.250000
   41     1.000000   180.000000     0.707107     0.707107    -0.000000     0.250000     0.250000     0.250000
   42     1.000000    90.000000     1.000000     0.000000     0.000000     0.250000     0.250000     0.250000
   43    -1.000000   120.000000     0.577350    -0.577350    -0.577350     0.250000     0.250000     0.250000
   44    -1.000000   180.000000    -0.000000    -1.000000     0.000000     0.250000     0.250000     0.250000
   45    -1.000000   120.000000     0.577350     0.577350    -0.577350     0.250000     0.250000     0.250000
   46     1.000000   180.000000    -0.000000    -0.707107     0.707107     0.250000     0.250000     0.250000
   47     1.000000   180.000000     0.707107    -0.707107     0.000000     0.250000     0.250000     0.250000
   48     1.000000   180.000000     0.707107     0.000000    -0.707107     0.250000     0.250000     0.250000
 TETIRR: Found     76 inequivalent tetrahedra from     3072
 
 Subroutine IBZKPT returns following result:
 ===========================================
 
 Found     29 irreducible k-points:
 
 Following reciprocal coordinates:
            Coordinates               Weight
  0.000000  0.000000  0.000000      1.000000
  0.125000 -0.000000 -0.000000      8.000000
  0.250000 -0.000000 -0.000000      8.000000
  0.375000 -0.000000 -0.000000      8.000000
  0.500000 -0.000000 -0.000000      4.000000
  0.125000  0.125000 -0.000000      6.000000
  0.250000  0.125000 -0.000000     24.000000
  0.375000  0.125000 -0.000000     24.000000
  0.500000  0.125000 -0.000000     24.000000
 -0.375000  0.125000  0.000000     24.000000
 -0.250000  0.125000  0.000000     24.000000
 -0.125000  0.125000  0.000000     12.000000
  0.250000  0.250000 -0.000000      6.000000
  0.375000  0.250000  0.000000     24.000000
  0.500000  0.250000 -0.000000     24.000000
 -0.375000  0.250000  0.000000     24.000000
 -0.250000  0.250000  0.000000     12.000000
  0.375000  0.375000 -0.000000      6.000000
  0.500000  0.375000 -0.000000     24.000000
 -0.375000  0.375000 -0.000000     12.000000
  0.500000  0.500000 -0.000000      3.000000
  0.375000  0.250000  0.125000     24.000000
  0.500000  0.250000  0.125000     48.000000
 -0.375000  0.250000  0.125000     24.000000
  0.500000  0.375000  0.125000     24.000000
 -0.375000  0.375000  0.125000     48.000000
 -0.250000  0.375000  0.125000     24.000000
 -0.375000  0.500000  0.125000     12.000000
 -0.250000  0.500000  0.250000      6.000000
 
 Following cartesian coordinates:
            Coordinates               Weight
  0.000000  0.000000  0.000000      1.000000
 -0.022996  0.022996  0.022996      8.000000
 -0.045992  0.045992  0.045992      8.000000
 -0.068988  0.068988  0.068988      8.000000
 -0.091984  0.091984  0.091984      4.000000
 -0.000000 -0.000000  0.045992      6.000000
 -0.022996  0.022996  0.068988     24.000000
 -0.045992  0.045992  0.091984     24.000000
 -0.068988  0.068988  0.114980     24.000000
  0.091984 -0.091984 -0.045992     24.000000
  0.068988 -0.068988 -0.022996     24.000000
  0.045992 -0.045992 -0.000000     12.000000
 -0.000000 -0.000000  0.091984      6.000000
 -0.022996  0.022996  0.114980     24.000000
 -0.045992  0.045992  0.137976     24.000000
  0.114980 -0.114980 -0.022996     24.000000
  0.091984 -0.091984 -0.000000     12.000000
 -0.000000 -0.000000  0.137976      6.000000
 -0.022996  0.022996  0.160972     24.000000
  0.137976 -0.137976  0.000000     12.000000
 -0.000000 -0.000000  0.183968      3.000000
 -0.000000  0.045992  0.091984     24.000000
 -0.022996  0.068988  0.114980     48.000000
  0.137976 -0.091984 -0.045992     24.000000
  0.000000  0.045992  0.137976     24.000000
  0.160972 -0.114980 -0.022996     48.000000
  0.137976 -0.091984 -0.000000     24.000000
  0.183968 -0.137976 -0.000000     12.000000
  0.183968 -0.091984 -0.000000      6.000000
 


--------------------------------------------------------------------------------------------------------




 Dimension of arrays:
   k-points           NKPTS =     29   k-points in BZ     NKDIM =     29   number of bands    NBANDS=    144
   number of dos      NEDOS =    301   number of ions     NIONS =      2
   non local maximal  LDIM  =      4   non local SUM 2l+1 LMDIM =      8
   total plane-waves  NPLWV =  46656
   max r-space proj   IRMAX =      1   max aug-charges    IRDMAX=  39045
   dimension x,y,z NGX =    36 NGY =   36 NGZ =   36
   dimension x,y,z NGXF=    72 NGYF=   72 NGZF=   72
   support grid    NGXF=    72 NGYF=   72 NGZF=   72
   ions per type =               2
   NGX,Y,Z   is equivalent  to a cutoff of  15.57, 15.57, 15.57 a.u.
   NGXF,Y,Z  is equivalent  to a cutoff of  31.14, 31.14, 31.14 a.u.

 SYSTEM =  unknown system                          
 POSCAR =  Si2                                     

 Startparameter for this run:
   NWRITE =      2    write-flag & timer
   PREC   = accura    normal or accurate (medium, high low for compatibility)
   ISTART =      0    job   : 0-new  1-cont  2-samecut
   ICHARG =      2    charge: 1-file 2-atom 10-const
   ISPIN  =      2    spin polarized calculation?
   LNONCOLLINEAR =      F non collinear calculations
   LSORBIT =      F    spin-orbit coupling
   INIWAV =      1    electr: 0-lowe 1-rand  2-diag
   LASPH  =      T    aspherical Exc in radial PAW
   METAGGA=      F    non-selfconsistent MetaGGA calc.

 Electronic Relaxation 1
   ENCUT  =  700.0 eV  51.45 Ry    7.17 a.u.   8.29  8.29  8.29*2*pi/ulx,y,z
   ENINI  =  700.0     initial cutoff
   ENAUG  = 1360.0 eV  augmentation charge cutoff
   NELM   =    200;   NELMIN=  2; NELMDL= -5     # of ELM steps 
   EDIFF  = 0.1E-06   stopping-criterion for ELM
   LREAL  =      F    real-space projection
   NLSPLINE    = F    spline interpolate recip. space projectors
   LCOMPAT=      F    compatible to vasp.4.4
   GGA_COMPAT  = T    GGA compatible to vasp.4.4-vasp.4.6
   LMAXPAW     = -100 max onsite density
   LMAXMIX     =    2 max onsite mixed and CHGCAR
   VOSKOWN=      0    Vosko Wilk Nusair interpolation
   ROPT   =    0.00000
 Ionic relaxation
   EDIFFG = -.1E-02   stopping-criterion for IOM
   NSW    =     99    number of steps for IOM
   NBLOCK =      1;   KBLOCK =     99    inner block; outer block 
   IBRION =      2    ionic relax: 0-MD 1-quasi-New 2-CG
   NFREE  =      1    steps in history (QN), initial steepest desc. (CG)
   ISIF   =      3    stress and relaxation
   IWAVPR =     11    prediction:  0-non 1-charg 2-wave 3-comb
   ISYM   =      2    0-nonsym 1-usesym 2-fastsym
   LCORR  =      T    Harris-Foulkes like correction to forces

   POTIM  = 0.5000    time-step for ionic-motion
   TEIN   =    0.0    initial temperature
   TEBEG  =    0.0;   TEEND  =   0.0 temperature during run
   SMASS  =  -3.00    Nose mass-parameter (am)
   estimated Nose-frequenzy (Omega)   =  0.10E-29 period in steps = 0.13E+47 mass=  -0.338E-27a.u.
   SCALEE = 1.0000    scale energy and forces
   NPACO  =    256;   APACO  = 16.0  distance and # of slots for P.C.
   PSTRESS=    0.0 pullay stress

  Mass of Ions in am
   POMASS =  28.09
  Ionic Valenz
   ZVAL   =   4.00
  Atomic Wigner-Seitz radii
   RWIGS  =  -1.00
  virtual crystal weights 
   VCA    =   1.00
   NELECT =       8.0000    total number of electrons
   NUPDOWN=      -1.0000    fix difference up-down

 DOS related values:
   EMIN   =  10.00;   EMAX   =-10.00  energy-range for DOS
   EFERMI =   0.00
   ISMEAR =    -5;   SIGMA  =   0.05  broadening in eV -4-tet -1-fermi 0-gaus

 Electronic relaxation 2 (details)
   IALGO  =     68    algorithm
   LDIAG  =      T    sub-space diagonalisation (order eigenvalues)
   LSUBROT=      F    optimize rotation matrix (better conditioning)
   TURBO    =      0    0=normal 1=particle mesh
   IRESTART =      0    0=no restart 2=restart with 2 vectors
   NREBOOT  =      0    no. of reboots
   NMIN     =      0    reboot dimension
   EREF     =   0.00    reference energy to select bands
   IMIX   =      4    mixing-type and parameters
     AMIX     =   0.40;   BMIX     =  1.00
     AMIX_MAG =   1.60;   BMIX_MAG =  1.00
     AMIN     =   0.10
     WC   =   100.;   INIMIX=   1;  MIXPRE=   1;  MAXMIX= -45

 Intra band minimization:
   WEIMIN = 0.0010     energy-eigenvalue tresh-hold
   EBREAK =  0.17E-09  absolut break condition
   DEPER  =   0.30     relativ break condition  

   TIME   =   0.40     timestep for ELM

  volume/ion in A,a.u.               =      20.08       135.48
  Fermi-wavevector in a.u.,A,eV,Ry     =   0.956167  1.806894 12.439209  0.914256
  Thomas-Fermi vector in A             =   2.085071
 
 Write flags
   LWAVE        =      F    write WAVECAR
   LDOWNSAMPLE  =      F    k-point downsampling of WAVECAR
   LCHARG       =      F    write CHGCAR
   LVTOT        =      T    write LOCPOT, total local potential
   LVHAR        =      F    write LOCPOT, Hartree potential only
   LELF         =      F    write electronic localiz. function (ELF)
   LORBIT       =     11    0 simple, 1 ext, 2 COOP (PROOUT), +10 PAW based schemes


 Dipole corrections
   LMONO  =      F    monopole corrections only (constant potential shift)
   LDIPOL =      F    correct potential (dipole corrections)
   IDIPOL =      0    1-x, 2-y, 3-z, 4-all directions 
   EPSILON=  1.0000000 bulk dielectric constant

 Exchange correlation treatment:
   GGA     =    PS    GGA type
   LEXCH   =    14    internal setting for exchange type
   VOSKOWN=      0    Vosko Wilk Nusair interpolation
   LHFCALC =     F    Hartree Fock is set to
   LHFONE  =     F    Hartree Fock one center treatment
   AEXX    =    0.0000 exact exchange contribution

 Linear response parameters
   LEPSILON=     F    determine dielectric tensor
   LRPA    =     F    only Hartree local field effects (RPA)
   LNABLA  =     F    use nabla operator in PAW spheres
   LVEL    =     F    velocity operator in full k-point grid
   LINTERFAST=   F  fast interpolation
   KINTER  =     0    interpolate to denser k-point grid
   CSHIFT  =0.1000    complex shift for real part using Kramers Kronig
   OMEGAMAX=  -1.0    maximum frequency
   DEG_THRESHOLD= 0.2000000E-02 threshold for treating states as degnerate
   RTIME   =   -0.100 relaxation time in fs
  (WPLASMAI=    0.000 imaginary part of plasma frequency in eV, 0.658/RTIME)
   DFIELD  = 0.0000000 0.0000000 0.0000000 field for delta impulse in time
 
 Orbital magnetization related:
   ORBITALMAG=     F  switch on orbital magnetization
   LCHIMAG   =     F  perturbation theory with respect to B field
   DQ        =  0.001000  dq finite difference perturbation B field
   LLRAUG    =     F  two centre corrections for induced B field



--------------------------------------------------------------------------------------------------------


 conjugate gradient relaxation of ions
 charge density and potential will be updated during run
 spin polarized calculation
 RMM-DIIS sequential band-by-band and
  variant of blocked Davidson during initial phase
 perform sub-space diagonalisation
    before iterative eigenvector-optimisation
 modified Broyden-mixing scheme, WC =      100.0
 initial mixing is a Kerker type mixing with AMIX =  0.4000 and BMIX =      1.0000
 Hartree-type preconditioning will be used
 using additional bands          140
 reciprocal scheme for non local part
 use partial core corrections
 calculate Harris-corrections to forces 
   (improved forces if not selfconsistent)
 use gradient corrections 
 use of overlap-Matrix (Vanderbilt PP)
 Fermi weights with tetrahedron method with Bloechl corrections


--------------------------------------------------------------------------------------------------------


  energy-cutoff  :      700.00
  volume of cell :       40.15
      direct lattice vectors                 reciprocal lattice vectors
     0.000000000  2.717863000  2.717863000    -0.183968066  0.183968066  0.183968066
     2.717863000  0.000000000  2.717863000     0.183968066 -0.183968066  0.183968066
     2.717863000  2.717863000  0.000000000     0.183968066  0.183968066 -0.183968066

  length of vectors
     3.843638715  3.843638715  3.843638715     0.318642037  0.318642037  0.318642037


 
 k-points in units of 2pi/SCALE and weight: read from INCAR                         
   0.00000000  0.00000000  0.00000000       0.002
  -0.02299601  0.02299601  0.02299601       0.016
  -0.04599202  0.04599202  0.04599202       0.016
  -0.06898802  0.06898802  0.06898802       0.016
  -0.09198403  0.09198403  0.09198403       0.008
  -0.00000000 -0.00000000  0.04599202       0.012
  -0.02299601  0.02299601  0.06898802       0.047
  -0.04599202  0.04599202  0.09198403       0.047
  -0.06898802  0.06898802  0.11498004       0.047
   0.09198403 -0.09198403 -0.04599202       0.047
   0.06898802 -0.06898802 -0.02299601       0.047
   0.04599202 -0.04599202 -0.00000000       0.023
  -0.00000000 -0.00000000  0.09198403       0.012
  -0.02299601  0.02299601  0.11498004       0.047
  -0.04599202  0.04599202  0.13797605       0.047
   0.11498004 -0.11498004 -0.02299601       0.047
   0.09198403 -0.09198403 -0.00000000       0.023
  -0.00000000 -0.00000000  0.13797605       0.012
  -0.02299601  0.02299601  0.16097206       0.047
   0.13797605 -0.13797605  0.00000000       0.023
  -0.00000000 -0.00000000  0.18396807       0.006
  -0.00000000  0.04599202  0.09198403       0.047
  -0.02299601  0.06898802  0.11498004       0.094
   0.13797605 -0.09198403 -0.04599202       0.047
  -0.00000000  0.04599202  0.13797605       0.047
   0.16097206 -0.11498004 -0.02299601       0.094
   0.13797605 -0.09198403 -0.00000000       0.047
   0.18396807 -0.13797605 -0.00000000       0.023
   0.18396807 -0.09198403 -0.00000000       0.012
 
 k-points in reciprocal lattice and weights: read from INCAR                         
   0.00000000  0.00000000  0.00000000       0.002
   0.12500000 -0.00000000 -0.00000000       0.016
   0.25000000 -0.00000000 -0.00000000       0.016
   0.37500000 -0.00000000 -0.00000000       0.016
   0.50000000 -0.00000000 -0.00000000       0.008
   0.12500000  0.12500000 -0.00000000       0.012
   0.25000000  0.12500000 -0.00000000       0.047
   0.37500000  0.12500000 -0.00000000       0.047
   0.50000000  0.12500000 -0.00000000       0.047
  -0.37500000  0.12500000  0.00000000       0.047
  -0.25000000  0.12500000  0.00000000       0.047
  -0.12500000  0.12500000  0.00000000       0.023
   0.25000000  0.25000000 -0.00000000       0.012
   0.37500000  0.25000000  0.00000000       0.047
   0.50000000  0.25000000 -0.00000000       0.047
  -0.37500000  0.25000000  0.00000000       0.047
  -0.25000000  0.25000000  0.00000000       0.023
   0.37500000  0.37500000 -0.00000000       0.012
   0.50000000  0.37500000 -0.00000000       0.047
  -0.37500000  0.37500000 -0.00000000       0.023
   0.50000000  0.50000000 -0.00000000       0.006
   0.37500000  0.25000000  0.12500000       0.047
   0.50000000  0.25000000  0.12500000       0.094
  -0.37500000  0.25000000  0.12500000       0.047
   0.50000000  0.37500000  0.12500000       0.047
  -0.37500000  0.37500000  0.12500000       0.094
  -0.25000000  0.37500000  0.12500000       0.047
  -0.37500000  0.50000000  0.12500000       0.023
  -0.25000000  0.50000000  0.25000000       0.012
 
 position of ions in fractional coordinates (direct lattice) 
   0.00000000  0.00000000  0.00000000
   0.25000000  0.25000000  0.25000000
 
 position of ions in cartesian coordinates  (Angst):
   0.00000000  0.00000000  0.00000000
   1.35893150  1.35893150  1.35893150
 


--------------------------------------------------------------------------------------------------------


 k-point   1 :   0.0000 0.0000 0.0000  plane waves:    1687
 k-point   2 :   0.1250-0.0000-0.0000  plane waves:    1705
 k-point   3 :   0.2500-0.0000-0.0000  plane waves:    1679
 k-point   4 :   0.3750-0.0000-0.0000  plane waves:    1679
 k-point   5 :   0.5000-0.0000-0.0000  plane waves:    1694
 k-point   6 :   0.1250 0.1250-0.0000  plane waves:    1703
 k-point   7 :   0.2500 0.1250-0.0000  plane waves:    1689
 k-point   8 :   0.3750 0.1250-0.0000  plane waves:    1689
 k-point   9 :   0.5000 0.1250-0.0000  plane waves:    1695
 k-point  10 :  -0.3750 0.1250 0.0000  plane waves:    1680
 k-point  11 :  -0.2500 0.1250 0.0000  plane waves:    1684
 k-point  12 :  -0.1250 0.1250 0.0000  plane waves:    1699
 k-point  13 :   0.2500 0.2500-0.0000  plane waves:    1700
 k-point  14 :   0.3750 0.2500 0.0000  plane waves:    1687
 k-point  15 :   0.5000 0.2500-0.0000  plane waves:    1689
 k-point  16 :  -0.3750 0.2500 0.0000  plane waves:    1694
 k-point  17 :  -0.2500 0.2500 0.0000  plane waves:    1696
 k-point  18 :   0.3750 0.3750-0.0000  plane waves:    1684
 k-point  19 :   0.5000 0.3750-0.0000  plane waves:    1687
 k-point  20 :  -0.3750 0.3750-0.0000  plane waves:    1682
 k-point  21 :   0.5000 0.5000-0.0000  plane waves:    1692
 k-point  22 :   0.3750 0.2500 0.1250  plane waves:    1686
 k-point  23 :   0.5000 0.2500 0.1250  plane waves:    1687
 k-point  24 :  -0.3750 0.2500 0.1250  plane waves:    1688
 k-point  25 :   0.5000 0.3750 0.1250  plane waves:    1683
 k-point  26 :  -0.3750 0.3750 0.1250  plane waves:    1686
 k-point  27 :  -0.2500 0.3750 0.1250  plane waves:    1691
 k-point  28 :  -0.3750 0.5000 0.1250  plane waves:    1678
 k-point  29 :  -0.2500 0.5000 0.2500  plane waves:    1708

 maximum and minimum number of plane-waves per node :      1708     1678

 maximum number of plane-waves:      1708
 maximum index in each direction: 
   IXMAX=    8   IYMAX=    8   IZMAX=    8
   IXMIN=   -8   IYMIN=   -8   IZMIN=   -8


 serial   3D FFT for wavefunctions
 parallel 3D FFT for charge:
    minimum data exchange during FFTs selected (reduces bandwidth)


 total amount of memory used by VASP MPI-rank0    39560. kBytes
=======================================================================

   base      :      30000. kBytes
   nonl-proj :       3262. kBytes
   fftplans  :        394. kBytes
   grid      :       4155. kBytes
   one-center:         12. kBytes
   wavefun   :       1737. kBytes
 
     INWAV:  cpu time    0.0000: real time    0.0000
 Broyden mixing: mesh for mixing (old mesh)
   NGX = 17   NGY = 17   NGZ = 17
  (NGX  = 72   NGY  = 72   NGZ  = 72)
  gives a total of   4913 points

 initial charge density was supplied:
 charge density of overlapping atoms calculated
 number of electron       8.0000000 magnetization       0.0000000
 keeping initial charge density in first step


--------------------------------------------------------------------------------------------------------


 Maximum index for augmentation-charges         1261 (set IRDMAX)


--------------------------------------------------------------------------------------------------------


 First call to EWALD:  gamma=   0.518
 Maximum number of real-space cells 3x 3x 3
 Maximum number of reciprocal cells 3x 3x 3

    FEWALD:  cpu time    0.0022: real time    0.0022


--------------------------------------- Iteration      1(   1)  ---------------------------------------


    POTLOK:  cpu time    0.0205: real time    0.0262
    SETDIJ:  cpu time    0.1759: real time    0.1763
     EDDAV:  cpu time   22.0439: real time   22.0498
 BZINTS: Fermi energy:    6.122807;    8.000000 electrons
         Band energy: 0.271068E+01;  BLOECHL correction:    0.000000
       DOS:  cpu time    0.0213: real time    0.0216
    --------------------------------------------
      LOOP:  cpu time   22.2617: real time   22.2738

 eigenvalue-minimisations  : 23904
 total energy-change (2. order) :-0.1104551E+02  (-0.4154757E+03)
 number of electron       8.0000000 magnetization       0.0000000
 augmentation part        8.0000000 magnetization       0.0000000

 Free energy of the ion-electron system (eV)
  ---------------------------------------------------
  alpha Z        PSCENC =         3.35352707
  Ewald energy   TEWEN  =      -228.32275585
  -Hartree energ DENC   =       -11.04858530
  -exchange      EXHF   =         0.00000000
  -V(xc)+E(xc)   XCENC  =       -17.46650382
  PAW double counting   =       174.95707044     -140.38057629
  entropy T*S    EENTRO =         0.00000000
  eigenvalues    EBANDS =         2.71068464
  atomic energy  EATOM  =       205.15162554
  Solvation  Ediel_sol  =         0.00000000
  ---------------------------------------------------
  free energy    TOTEN  =       -11.04551358 eV

  energy without entropy =      -11.04551358  energy(sigma->0) =      -11.04551358


--------------------------------------------------------------------------------------------------------




--------------------------------------- Iteration      1(   2)  ---------------------------------------


     EDDAV:  cpu time   26.9982: real time   26.9963
 BZINTS: Fermi energy:    6.078725;    8.000000 electrons
         Band energy: 0.204449E+01;  BLOECHL correction:    0.000000
       DOS:  cpu time    0.0225: real time    0.0225
    --------------------------------------------
      LOOP:  cpu time   27.0207: real time   27.0188

 eigenvalue-minimisations  : 25632
 total energy-change (2. order) :-0.6661930E+00  (-0.6661930E+00)
 number of electron       8.0000000 magnetization       0.0000000
 augmentation part        8.0000000 magnetization       0.0000000

 Free energy of the ion-electron system (eV)
  ---------------------------------------------------
  alpha Z        PSCENC =         3.35352707
  Ewald energy   TEWEN  =      -228.32275585
  -Hartree energ DENC   =       -11.04858530
  -exchange      EXHF   =         0.00000000
  -V(xc)+E(xc)   XCENC  =       -17.46650382
  PAW double counting   =       174.95707044     -140.38057629
  entropy T*S    EENTRO =         0.00000000
  eigenvalues    EBANDS =         2.04449164
  atomic energy  EATOM  =       205.15162554
  Solvation  Ediel_sol  =         0.00000000
  ---------------------------------------------------
  free energy    TOTEN  =       -11.71170658 eV

  energy without entropy =      -11.71170658  energy(sigma->0) =      -11.71170658


--------------------------------------------------------------------------------------------------------




--------------------------------------- Iteration      1(   3)  ---------------------------------------


     EDDAV:  cpu time   14.8810: real time   14.8809
 BZINTS: Fermi energy:    6.078678;    8.000000 electrons
         Band energy: 0.204448E+01;  BLOECHL correction:    0.000000
       DOS:  cpu time    0.0227: real time    0.0227
    --------------------------------------------
      LOOP:  cpu time   14.9036: real time   14.9035

 eigenvalue-minimisations  : 18720
 total energy-change (2. order) :-0.1134992E-04  (-0.1134992E-04)
 number of electron       8.0000000 magnetization       0.0000000
 augmentation part        8.0000000 magnetization       0.0000000

 Free energy of the ion-electron system (eV)
  ---------------------------------------------------
  alpha Z        PSCENC =         3.35352707
  Ewald energy   TEWEN  =      -228.32275585
  -Hartree energ DENC   =       -11.04858530
  -exchange      EXHF   =         0.00000000
  -V(xc)+E(xc)   XCENC  =       -17.46650382
  PAW double counting   =       174.95707044     -140.38057629
  entropy T*S    EENTRO =         0.00000000
  eigenvalues    EBANDS =         2.04448029
  atomic energy  EATOM  =       205.15162554
  Solvation  Ediel_sol  =         0.00000000
  ---------------------------------------------------
  free energy    TOTEN  =       -11.71171793 eV

  energy without entropy =      -11.71171793  energy(sigma->0) =      -11.71171793


--------------------------------------------------------------------------------------------------------




--------------------------------------- Iteration      1(   4)  ---------------------------------------


     EDDAV:  cpu time   43.7317: real time   43.7272
 BZINTS: Fermi energy:    6.078856;    8.000000 electrons
         Band energy: 0.204448E+01;  BLOECHL correction:   -0.000000
       DOS:  cpu time    0.0225: real time    0.0225
    --------------------------------------------
      LOOP:  cpu time   43.7542: real time   43.7497

 eigenvalue-minimisations  : 31104
 total energy-change (2. order) :-0.1811401E-08  (-0.1351737E-09)
 number of electron       8.0000000 magnetization       0.0000000
 augmentation part        8.0000000 magnetization       0.0000000

 Free energy of the ion-electron system (eV)
  ---------------------------------------------------
  alpha Z        PSCENC =         3.35352707
  Ewald energy   TEWEN  =      -228.32275585
  -Hartree energ DENC   =       -11.04858530
  -exchange      EXHF   =         0.00000000
  -V(xc)+E(xc)   XCENC  =       -17.46650382
  PAW double counting   =       174.95707044     -140.38057629
  entropy T*S    EENTRO =         0.00000000
  eigenvalues    EBANDS =         2.04448029
  atomic energy  EATOM  =       205.15162554
  Solvation  Ediel_sol  =         0.00000000
  ---------------------------------------------------
  free energy    TOTEN  =       -11.71171793 eV

  energy without entropy =      -11.71171793  energy(sigma->0) =      -11.71171793


--------------------------------------------------------------------------------------------------------




--------------------------------------- Iteration      1(   5)  ---------------------------------------


     EDDAV:  cpu time   15.0658: real time   15.0650
 BZINTS: Fermi energy:    6.078684;    8.000000 electrons
         Band energy: 0.204448E+01;  BLOECHL correction:    0.000000
       DOS:  cpu time    0.0226: real time    0.0226
    CHARGE:  cpu time    0.0336: real time    0.0340
    MIXING:  cpu time    0.0014: real time    0.0021
    --------------------------------------------
      LOOP:  cpu time   15.1234: real time   15.1238

 eigenvalue-minimisations  : 18720
 total energy-change (2. order) : 0.1677506E-08  ( 0.8403627E-12)
 number of electron       8.0000000 magnetization       0.0000000
 augmentation part       -0.4675979 magnetization      -0.0000000

 Broyden mixing:
  rms(total) = 0.49510E+00    rms(broyden)= 0.49510E+00
  rms(prec ) = 0.94075E+00
  weight for this iteration     100.00

 Free energy of the ion-electron system (eV)
  ---------------------------------------------------
  alpha Z        PSCENC =         3.35352707
  Ewald energy   TEWEN  =      -228.32275585
  -Hartree energ DENC   =       -11.04858530
  -exchange      EXHF   =         0.00000000
  -V(xc)+E(xc)   XCENC  =       -17.46650382
  PAW double counting   =       174.95707044     -140.38057629
  entropy T*S    EENTRO =         0.00000000
  eigenvalues    EBANDS =         2.04448029
  atomic energy  EATOM  =       205.15162554
  Solvation  Ediel_sol  =         0.00000000
  ---------------------------------------------------
  free energy    TOTEN  =       -11.71171793 eV

  energy without entropy =      -11.71171793  energy(sigma->0) =      -11.71171793


--------------------------------------------------------------------------------------------------------




--------------------------------------- Iteration      1(   6)  ---------------------------------------


    POTLOK:  cpu time    0.0155: real time    0.0160
    SETDIJ:  cpu time    0.1916: real time    0.1916
    EDDIAG:  cpu time    0.9464: real time    0.9495
  RMM-DIIS:  cpu time    0.1846: real time    0.1829
    ORTHCH:  cpu time    0.1316: real time    0.1316
 BZINTS: Fermi energy:    6.147292;    8.000000 electrons
         Band energy: 0.350813E+01;  BLOECHL correction:    0.000000
       DOS:  cpu time    0.0225: real time    0.0225
    CHARGE:  cpu time    0.0323: real time    0.0323
    MIXING:  cpu time    0.0009: real time    0.0010
    --------------------------------------------
      LOOP:  cpu time    1.5253: real time    1.5273

 eigenvalue-minimisations  : 16704
 total energy-change (2. order) : 0.1531665E+00  (-0.3148947E-04)
 number of electron       8.0000000 magnetization      -0.0000000
 augmentation part       -0.4624626 magnetization      -0.0000000

 Broyden mixing:
  rms(total) = 0.29791E+00    rms(broyden)= 0.29791E+00
  rms(prec ) = 0.54798E+00
  weight for this iteration     100.00

 eigenvalues of (default mixing * dielectric matrix)
  average eigenvalue GAMMA=   2.5012
  2.5012

 Free energy of the ion-electron system (eV)
  ---------------------------------------------------
  alpha Z        PSCENC =         3.35352707
  Ewald energy   TEWEN  =      -228.32275585
  -Hartree energ DENC   =       -12.48467474
  -exchange      EXHF   =         0.00000000
  -V(xc)+E(xc)   XCENC  =       -17.24027475
  PAW double counting   =       383.76709027     -349.29122156
  entropy T*S    EENTRO =         0.00000000
  eigenvalues    EBANDS =         3.50813262
  atomic energy  EATOM  =       205.15162554
  Solvation  Ediel_sol  =         0.00000000
  ---------------------------------------------------
  free energy    TOTEN  =       -11.55855141 eV

  energy without entropy =      -11.55855141  energy(sigma->0) =      -11.55855141


--------------------------------------------------------------------------------------------------------




--------------------------------------- Iteration      1(   7)  ---------------------------------------


    POTLOK:  cpu time    0.0129: real time    0.0135
    SETDIJ:  cpu time    0.1920: real time    0.1920
    EDDIAG:  cpu time    0.8822: real time    0.8821
  RMM-DIIS:  cpu time    0.1884: real time    0.1836
    ORTHCH:  cpu time    0.1316: real time    0.1316
 BZINTS: Fermi energy:    6.262323;    8.000000 electrons
         Band energy: 0.554567E+01;  BLOECHL correction:    0.000000
       DOS:  cpu time    0.0225: real time    0.0225
    CHARGE:  cpu time    0.0316: real time    0.0316
    MIXING:  cpu time    0.0005: real time    0.0005
    --------------------------------------------
      LOOP:  cpu time    1.4616: real time    1.4574

 eigenvalue-minimisations  : 16704
 total energy-change (2. order) : 0.6972725E-01  (-0.7951089E-04)
 number of electron       8.0000000 magnetization       0.0000000
 augmentation part       -0.4567073 magnetization      -0.0000000

 Broyden mixing:
  rms(total) = 0.18749E-01    rms(broyden)= 0.18749E-01
  rms(prec ) = 0.41108E-01
  weight for this iteration     100.00

 eigenvalues of (default mixing * dielectric matrix)
  average eigenvalue GAMMA=   2.0579
  1.8980  2.2178

 Free energy of the ion-electron system (eV)
  ---------------------------------------------------
  alpha Z        PSCENC =         3.35352707
  Ewald energy   TEWEN  =      -228.32275585
  -Hartree energ DENC   =       -14.69133158
  -exchange      EXHF   =         0.00000000
  -V(xc)+E(xc)   XCENC  =       -16.87187976
  PAW double counting   =       860.61004780     -826.26372792
  entropy T*S    EENTRO =         0.00000000
  eigenvalues    EBANDS =         5.54567054
  atomic energy  EATOM  =       205.15162554
  Solvation  Ediel_sol  =         0.00000000
  ---------------------------------------------------
  free energy    TOTEN  =       -11.48882416 eV

  energy without entropy =      -11.48882416  energy(sigma->0) =      -11.48882416


--------------------------------------------------------------------------------------------------------




--------------------------------------- Iteration      1(   8)  ---------------------------------------


    POTLOK:  cpu time    0.0128: real time    0.0142
    SETDIJ:  cpu time    0.1918: real time    0.1917
    EDDIAG:  cpu time    0.8803: real time    0.8802
  RMM-DIIS:  cpu time    0.1833: real time    0.1806
    ORTHCH:  cpu time    0.1314: real time    0.1314
 BZINTS: Fermi energy:    6.265071;    8.000000 electrons
         Band energy: 0.544937E+01;  BLOECHL correction:   -0.000000
       DOS:  cpu time    0.0225: real time    0.0225
    CHARGE:  cpu time    0.0313: real time    0.0313
    MIXING:  cpu time    0.0005: real time    0.0005
    --------------------------------------------
      LOOP:  cpu time    1.4538: real time    1.4523

 eigenvalue-minimisations  : 16704
 total energy-change (2. order) :-0.1992301E-03  (-0.3335795E-05)
 number of electron       8.0000000 magnetization      -0.0000000
 augmentation part       -0.4577223 magnetization      -0.0000000

 Broyden mixing:
  rms(total) = 0.56528E-02    rms(broyden)= 0.56528E-02
  rms(prec ) = 0.11196E-01
  weight for this iteration     100.00

 eigenvalues of (default mixing * dielectric matrix)
  average eigenvalue GAMMA=   2.1237
  2.6534  1.8589  1.8589

 Free energy of the ion-electron system (eV)
  ---------------------------------------------------
  alpha Z        PSCENC =         3.35352707
  Ewald energy   TEWEN  =      -228.32275585
  -Hartree energ DENC   =       -14.61481189
  -exchange      EXHF   =         0.00000000
  -V(xc)+E(xc)   XCENC  =       -16.86872041
  PAW double counting   =       872.32726994     -837.96453063
  entropy T*S    EENTRO =         0.00000000
  eigenvalues    EBANDS =         5.44937284
  atomic energy  EATOM  =       205.15162554
  Solvation  Ediel_sol  =         0.00000000
  ---------------------------------------------------
  free energy    TOTEN  =       -11.48902339 eV

  energy without entropy =      -11.48902339  energy(sigma->0) =      -11.48902339


--------------------------------------------------------------------------------------------------------




--------------------------------------- Iteration      1(   9)  ---------------------------------------


    POTLOK:  cpu time    0.0127: real time    0.0153
    SETDIJ:  cpu time    0.1920: real time    0.1919
    EDDIAG:  cpu time    0.8788: real time    0.8787
  RMM-DIIS:  cpu time    0.1908: real time    0.1842
    ORTHCH:  cpu time    0.1312: real time    0.1311
 BZINTS: Fermi energy:    6.269210;    8.000000 electrons
         Band energy: 0.547470E+01;  BLOECHL correction:    0.000000
       DOS:  cpu time    0.0225: real time    0.0225
    CHARGE:  cpu time    0.0320: real time    0.0320
    MIXING:  cpu time    0.0005: real time    0.0005
    --------------------------------------------
      LOOP:  cpu time    1.4604: real time    1.4563

 eigenvalue-minimisations  : 16704
 total energy-change (2. order) :-0.7219863E-04  (-0.3219986E-06)
 number of electron       8.0000000 magnetization       0.0000000
 augmentation part       -0.4577778 magnetization      -0.0000000

 Broyden mixing:
  rms(total) = 0.40558E-02    rms(broyden)= 0.40558E-02
  rms(prec ) = 0.46951E-02
  weight for this iteration     100.00

 eigenvalues of (default mixing * dielectric matrix)
  average eigenvalue GAMMA=   2.1031
  1.0822  2.6524  2.6524  2.0253

 Free energy of the ion-electron system (eV)
  ---------------------------------------------------
  alpha Z        PSCENC =         3.35352707
  Ewald energy   TEWEN  =      -228.32275585
  -Hartree energ DENC   =       -14.64878881
  -exchange      EXHF   =         0.00000000
  -V(xc)+E(xc)   XCENC  =       -16.86076556
  PAW double counting   =       872.43165682     -838.06829216
  entropy T*S    EENTRO =         0.00000000
  eigenvalues    EBANDS =         5.47469735
  atomic energy  EATOM  =       205.15162554
  Solvation  Ediel_sol  =         0.00000000
  ---------------------------------------------------
  free energy    TOTEN  =       -11.48909559 eV

  energy without entropy =      -11.48909559  energy(sigma->0) =      -11.48909559


--------------------------------------------------------------------------------------------------------




--------------------------------------- Iteration      1(  10)  ---------------------------------------


    POTLOK:  cpu time    0.0125: real time    0.0155
    SETDIJ:  cpu time    0.1918: real time    0.1918
    EDDIAG:  cpu time    0.8781: real time    0.8780
  RMM-DIIS:  cpu time    0.1895: real time    0.1837
    ORTHCH:  cpu time    0.1306: real time    0.1306
 BZINTS: Fermi energy:    6.270668;    8.000000 electrons
         Band energy: 0.547729E+01;  BLOECHL correction:   -0.000000
       DOS:  cpu time    0.0226: real time    0.0226
    CHARGE:  cpu time    0.0313: real time    0.0313
    MIXING:  cpu time    0.0005: real time    0.0005
    --------------------------------------------
      LOOP:  cpu time    1.4568: real time    1.4540

 eigenvalue-minimisations  : 16704
 total energy-change (2. order) :-0.8730563E-05  (-0.4083203E-07)
 number of electron       8.0000000 magnetization      -0.0000000
 augmentation part       -0.4577793 magnetization       0.0000000

 Broyden mixing:
  rms(total) = 0.23999E-03    rms(broyden)= 0.23999E-03
  rms(prec ) = 0.49292E-03
  weight for this iteration     100.00

 eigenvalues of (default mixing * dielectric matrix)
  average eigenvalue GAMMA=   2.0823
  1.0035  2.9112  2.4537  2.0216  2.0216

 Free energy of the ion-electron system (eV)
  ---------------------------------------------------
  alpha Z        PSCENC =         3.35352707
  Ewald energy   TEWEN  =      -228.32275585
  -Hartree energ DENC   =       -14.65207502
  -exchange      EXHF   =         0.00000000
  -V(xc)+E(xc)   XCENC  =       -16.86045576
  PAW double counting   =       863.51518116     -829.15144069
  entropy T*S    EENTRO =         0.00000000
  eigenvalues    EBANDS =         5.47728923
  atomic energy  EATOM  =       205.15162554
  Solvation  Ediel_sol  =         0.00000000
  ---------------------------------------------------
  free energy    TOTEN  =       -11.48910432 eV

  energy without entropy =      -11.48910432  energy(sigma->0) =      -11.48910432


--------------------------------------------------------------------------------------------------------




--------------------------------------- Iteration      1(  11)  ---------------------------------------


    POTLOK:  cpu time    0.0138: real time    0.0140
    SETDIJ:  cpu time    0.1918: real time    0.1918
    EDDIAG:  cpu time    0.9092: real time    0.9091
  RMM-DIIS:  cpu time    0.1871: real time    0.1848
    ORTHCH:  cpu time    0.1312: real time    0.1312
 BZINTS: Fermi energy:    6.270814;    8.000000 electrons
         Band energy: 0.547839E+01;  BLOECHL correction:   -0.000000
       DOS:  cpu time    0.0225: real time    0.0225
    CHARGE:  cpu time    0.0314: real time    0.0314
    MIXING:  cpu time    0.0005: real time    0.0004
    --------------------------------------------
      LOOP:  cpu time    1.4874: real time    1.4851

 eigenvalue-minimisations  : 16654
 total energy-change (2. order) :-0.2740182E-06  (-0.1899036E-08)
 number of electron       8.0000000 magnetization       0.0000000
 augmentation part       -0.4577727 magnetization      -0.0000000

 Broyden mixing:
  rms(total) = 0.16684E-03    rms(broyden)= 0.16684E-03
  rms(prec ) = 0.18478E-03
  weight for this iteration     100.00

 eigenvalues of (default mixing * dielectric matrix)
  average eigenvalue GAMMA=   2.0244
  3.0382  2.6227  2.3639  2.1574  0.9820  0.9820

 Free energy of the ion-electron system (eV)
  ---------------------------------------------------
  alpha Z        PSCENC =         3.35352707
  Ewald energy   TEWEN  =      -228.32275585
  -Hartree energ DENC   =       -14.65324726
  -exchange      EXHF   =         0.00000000
  -V(xc)+E(xc)   XCENC  =       -16.86041688
  PAW double counting   =       863.34817093     -828.98439509
  entropy T*S    EENTRO =         0.00000000
  eigenvalues    EBANDS =         5.47838695
  atomic energy  EATOM  =       205.15162554
  Solvation  Ediel_sol  =         0.00000000
  ---------------------------------------------------
  free energy    TOTEN  =       -11.48910459 eV

  energy without entropy =      -11.48910459  energy(sigma->0) =      -11.48910459


--------------------------------------------------------------------------------------------------------




--------------------------------------- Iteration      1(  12)  ---------------------------------------


    POTLOK:  cpu time    0.0134: real time    0.0146
    SETDIJ:  cpu time    0.1917: real time    0.1917
    EDDIAG:  cpu time    0.9045: real time    0.9042
  RMM-DIIS:  cpu time    0.1821: real time    0.1791
    ORTHCH:  cpu time    0.1318: real time    0.1318
 BZINTS: Fermi energy:    6.270853;    8.000000 electrons
         Band energy: 0.547875E+01;  BLOECHL correction:   -0.000000
       DOS:  cpu time    0.0224: real time    0.0224
    --------------------------------------------
      LOOP:  cpu time    1.4461: real time    1.4439

 eigenvalue-minimisations  : 13355
 total energy-change (2. order) :-0.2473155E-07  (-0.8930072E-10)
 number of electron       8.0000000 magnetization       0.0000000
 augmentation part       -0.4577727 magnetization      -0.0000000

 Free energy of the ion-electron system (eV)
  ---------------------------------------------------
  alpha Z        PSCENC =         3.35352707
  Ewald energy   TEWEN  =      -228.32275585
  -Hartree energ DENC   =       -14.65363463
  -exchange      EXHF   =         0.00000000
  -V(xc)+E(xc)   XCENC  =       -16.86039407
  PAW double counting   =       863.68205193     -829.31827232
  entropy T*S    EENTRO =         0.00000000
  eigenvalues    EBANDS =         5.47874771
  atomic energy  EATOM  =       205.15162554
  Solvation  Ediel_sol  =         0.00000000
  ---------------------------------------------------
  free energy    TOTEN  =       -11.48910462 eV

  energy without entropy =      -11.48910462  energy(sigma->0) =      -11.48910462


--------------------------------------------------------------------------------------------------------




 average (electrostatic) potential at core
  the test charge radii are     0.9892
  (the norm of the test charge is              1.0000)
       1 -83.0660       2 -83.0660
 
 
 
 E-fermi :   6.2709     XC(G=0):  -9.5421     alpha+bet :-11.9467


 spin component 1

 k-point     1 :       0.0000    0.0000    0.0000
  band No.  band energies     occupation 
      1      -6.2080      1.00000
      2       5.7636      1.00000
      3       5.7636      1.00000
      4       5.7636      1.00000
      5       8.2791      0.00000
      6       8.2791      0.00000
      7       8.2791      0.00000
      8       9.0563      0.00000
      9      13.4497      0.00000
     10      13.4497      0.00000
     11      13.4623      0.00000
     12      16.8505      0.00000
     13      16.8505      0.00000
     14      16.8505      0.00000
     15      20.8317      0.00000
     16      28.7306      0.00000
     17      28.7306      0.00000
     18      28.7306      0.00000
     19      29.8953      0.00000
     20      29.8953      0.00000
     21      31.4198      0.00000
     22      31.4198      0.00000
     23      31.4198      0.00000
     24      34.9228      0.00000
     25      34.9228      0.00000
     26      34.9228      0.00000
     27      40.4934      0.00000
     28      40.4934      0.00000
     29      40.4934      0.00000
     30      43.8041      0.00000
     31      44.2972      0.00000
     32      44.2972      0.00000
     33      46.2335      0.00000
     34      46.2335      0.00000
     35      47.8125      0.00000
     36      47.8125      0.00000
     37      47.8125      0.00000
     38      49.5564      0.00000
     39      49.5564      0.00000
     40      49.5564      0.00000
     41      50.1048      0.00000
     42      50.5551      0.00000
     43      50.5551      0.00000
     44      50.5551      0.00000
     45      50.6577      0.00000
     46      50.6577      0.00000
     47      50.6577      0.00000
     48      52.0251      0.00000
     49      52.0251      0.00000
     50      52.0251      0.00000
     51      55.8671      0.00000
     52      57.0590      0.00000
     53      57.0590      0.00000
     54      57.0590      0.00000
     55      57.2846      0.00000
     56      57.2846      0.00000
     57      57.2846      0.00000
     58      62.2313      0.00000
     59      63.3372      0.00000
     60      72.0045      0.00000
     61      72.0045      0.00000
     62      75.0546      0.00000
     63      75.0546      0.00000
     64      75.0546      0.00000
     65      77.7020      0.00000
     66      77.7020      0.00000
     67      77.9409      0.00000
     68      77.9409      0.00000
     69      77.9409      0.00000
     70      78.1635      0.00000
     71      78.3764      0.00000
     72      78.3764      0.00000
     73      78.3764      0.00000
     74      82.4085      0.00000
     75      82.4085      0.00000
     76      82.4085      0.00000
     77      88.3145      0.00000
     78      88.3145      0.00000
     79      88.3145      0.00000
     80      88.5814      0.00000
     81      88.5814      0.00000
     82      89.0871      0.00000
     83      89.0871      0.00000
     84      89.0871      0.00000
     85      90.2865      0.00000
     86      90.2865      0.00000
     87      90.2865      0.00000
     88      90.5868      0.00000
     89      92.0233      0.00000
     90      92.0233      0.00000
     91      92.5363      0.00000
     92      92.5363      0.00000
     93      92.5363      0.00000
     94      95.7670      0.00000
     95      95.7670      0.00000
     96      95.7670      0.00000
     97      96.7539      0.00000
     98      96.9967      0.00000
     99      96.9967      0.00000
    100      96.9967      0.00000
    101      97.7880      0.00000
    102      97.7880      0.00000
    103      97.7880      0.00000
    104      97.8625      0.00000
    105      97.8625      0.00000
    106      97.8625      0.00000
    107      98.4667      0.00000
    108      99.3720      0.00000
    109      99.3720      0.00000
    110      99.3720      0.00000
    111      99.4900      0.00000
    112      99.4900      0.00000
    113     105.1462      0.00000
    114     106.5005      0.00000
    115     106.5005      0.00000
    116     106.5005      0.00000
    117     109.0246      0.00000
    118     109.0246      0.00000
    119     109.1186      0.00000
    120     110.2848      0.00000
    121     110.2848      0.00000
    122     110.2848      0.00000
    123     113.8202      0.00000
    124     113.8202      0.00000
    125     113.8203      0.00000
    126     114.1094      0.00000
    127     114.1094      0.00000
    128     114.1094      0.00000
    129     114.9277      0.00000
    130     114.9277      0.00000
    131     114.9277      0.00000
    132     115.7203      0.00000
    133     115.7203      0.00000
    134     115.7203      0.00000
    135     115.8191      0.00000
    136     116.5766      0.00000
    137     116.5766      0.00000
    138     125.5596      0.00000
    139     125.5596      0.00000
    140     126.2648      0.00000
    141     126.8120      0.00000
    142     126.8120      0.00000
    143     126.8120      0.00000
    144     127.5142      0.00000

 k-point     2 :       0.1250   -0.0000   -0.0000
  band No.  band energies     occupation 
      1      -6.0035      1.00000
      2       4.1516      1.00000
      3       5.4718      1.00000
      4       5.4718      1.00000
      5       8.2010      0.00000
      6       8.7060      0.00000
      7       8.7060      0.00000
      8      10.4084      0.00000
      9      12.9459      0.00000
     10      12.9459      0.00000
     11      14.2682      0.00000
     12      16.2661      0.00000
     13      18.0382      0.00000
     14      18.0382      0.00000
     15      22.0968      0.00000
     16      26.7323      0.00000
     17      26.7323      0.00000
     18      27.0220      0.00000
     19      29.5290      0.00000
     20      29.5290      0.00000
     21      31.9541      0.00000
     22      31.9541      0.00000
     23      32.8355      0.00000
     24      35.1089      0.00000
     25      37.0892      0.00000
     26      37.0892      0.00000
     27      38.1001      0.00000
     28      39.9662      0.00000
     29      39.9662      0.00000
     30      42.3936      0.00000
     31      42.3936      0.00000
     32      44.2772      0.00000
     33      44.2772      0.00000
     34      44.3778      0.00000
     35      47.4573      0.00000
     36      47.4573      0.00000
     37      47.4881      0.00000
     38      47.8423      0.00000
     39      48.9508      0.00000
     40      49.5576      0.00000
     41      49.5576      0.00000
     42      50.0016      0.00000
     43      50.4059      0.00000
     44      50.4059      0.00000
     45      51.7945      0.00000
     46      52.7130      0.00000
     47      52.8654      0.00000
     48      52.8654      0.00000
     49      55.1069      0.00000
     50      55.1069      0.00000
     51      55.3598      0.00000
     52      56.7247      0.00000
     53      56.7247      0.00000
     54      56.7850      0.00000
     55      59.8371      0.00000
     56      59.8371      0.00000
     57      60.8726      0.00000
     58      63.9911      0.00000
     59      65.3965      0.00000
     60      69.0044      0.00000
     61      69.0044      0.00000
     62      71.6267      0.00000
     63      73.6715      0.00000
     64      73.6715      0.00000
     65      75.0611      0.00000
     66      76.1232      0.00000
     67      76.1232      0.00000
     68      78.1369      0.00000
     69      78.1369      0.00000
     70      78.9278      0.00000
     71      78.9278      0.00000
     72      79.2077      0.00000
     73      81.7226      0.00000
     74      82.1061      0.00000
     75      83.9029      0.00000
     76      83.9029      0.00000
     77      84.6031      0.00000
     78      84.6031      0.00000
     79      86.3464      0.00000
     80      87.3375      0.00000
     81      87.3375      0.00000
     82      88.6556      0.00000
     83      89.4815      0.00000
     84      89.4815      0.00000
     85      89.9330      0.00000
     86      90.1473      0.00000
     87      90.2391      0.00000
     88      90.2391      0.00000
     89      91.3298      0.00000
     90      91.5240      0.00000
     91      91.5240      0.00000
     92      93.2105      0.00000
     93      94.2175      0.00000
     94      94.2175      0.00000
     95      94.6312      0.00000
     96      95.0106      0.00000
     97      95.0106      0.00000
     98      95.8440      0.00000
     99      95.8440      0.00000
    100      96.3429      0.00000
    101      98.4270      0.00000
    102      98.4270      0.00000
    103      98.5656      0.00000
    104      99.8927      0.00000
    105      99.8927      0.00000
    106     100.4009      0.00000
    107     100.5634      0.00000
    108     102.3074      0.00000
    109     102.3074      0.00000
    110     102.9423      0.00000
    111     103.6607      0.00000
    112     103.6607      0.00000
    113     104.8609      0.00000
    114     104.8609      0.00000
    115     105.2614      0.00000
    116     106.6544      0.00000
    117     106.6544      0.00000
    118     107.0755      0.00000
    119     108.9936      0.00000
    120     108.9936      0.00000
    121     109.0401      0.00000
    122     109.6150      0.00000
    123     111.3556      0.00000
    124     111.3556      0.00000
    125     112.3282      0.00000
    126     113.7488      0.00000
    127     113.7668      0.00000
    128     113.7668      0.00000
    129     116.5261      0.00000
    130     116.5261      0.00000
    131     117.7919      0.00000
    132     118.2458      0.00000
    133     118.9704      0.00000
    134     118.9704      0.00000
    135     119.6259      0.00000
    136     119.6345      0.00000
    137     119.9711      0.00000
    138     119.9711      0.00000
    139     121.9224      0.00000
    140     122.1248      0.00000
    141     122.1248      0.00000
    142     122.8397      0.00000
    143     124.3045      0.00000
    144     124.3056      0.00000

 k-point     3 :       0.2500   -0.0000   -0.0000
  band No.  band energies     occupation 
      1      -5.4067      1.00000
      2       1.8163      1.00000
      3       4.9999      1.00000
      4       4.9999      1.00000
      5       7.7150      0.00000
      6       9.2189      0.00000
      7       9.2189      0.00000
      8      12.5891      0.00000
      9      12.8925      0.00000
     10      12.8925      0.00000
     11      14.5378      0.00000
     12      17.4132      0.00000
     13      20.3006      0.00000
     14      20.3006      0.00000
     15      23.5083      0.00000
     16      23.5083      0.00000
     17      23.6078      0.00000
     18      25.5846      0.00000
     19      29.7021      0.00000
     20      29.7021      0.00000
     21      32.3144      0.00000
     22      32.3144      0.00000
     23      33.5164      0.00000
     24      35.0424      0.00000
     25      35.6321      0.00000
     26      37.4795      0.00000
     27      37.4795      0.00000
     28      39.1000      0.00000
     29      39.1000      0.00000
     30      40.0519      0.00000
     31      40.0519      0.00000
     32      43.8795      0.00000
     33      43.8795      0.00000
     34      43.9055      0.00000
     35      44.3802      0.00000
     36      45.0172      0.00000
     37      46.8628      0.00000
     38      46.8628      0.00000
     39      49.0712      0.00000
     40      49.5213      0.00000
     41      49.5213      0.00000
     42      49.8495      0.00000
     43      50.1950      0.00000
     44      52.6614      0.00000
     45      52.6614      0.00000
     46      55.1440      0.00000
     47      55.1440      0.00000
     48      56.3231      0.00000
     49      56.4705      0.00000
     50      56.4705      0.00000
     51      58.1880      0.00000
     52      59.7755      0.00000
     53      62.6686      0.00000
     54      62.6686      0.00000
     55      63.1490      0.00000
     56      63.1490      0.00000
     57      63.2049      0.00000
     58      65.4485      0.00000
     59      65.4485      0.00000
     60      66.1425      0.00000
     61      67.1694      0.00000
     62      68.2828      0.00000
     63      68.2828      0.00000
     64      71.7264      0.00000
     65      71.9508      0.00000
     66      72.3736      0.00000
     67      72.3736      0.00000
     68      75.9137      0.00000
     69      75.9137      0.00000
     70      77.9261      0.00000
     71      80.6127      0.00000
     72      81.1923      0.00000
     73      81.1923      0.00000
     74      81.5899      0.00000
     75      81.8853      0.00000
     76      81.8853      0.00000
     77      83.9331      0.00000
     78      83.9331      0.00000
     79      84.2961      0.00000
     80      85.5696      0.00000
     81      85.5696      0.00000
     82      85.9444      0.00000
     83      87.5062      0.00000
     84      87.5062      0.00000
     85      88.2513      0.00000
     86      89.4754      0.00000
     87      90.3204      0.00000
     88      90.3204      0.00000
     89      90.8251      0.00000
     90      91.2375      0.00000
     91      91.2375      0.00000
     92      93.6039      0.00000
     93      94.7474      0.00000
     94      94.7474      0.00000
     95      95.2778      0.00000
     96      95.2778      0.00000
     97      95.4707      0.00000
     98      95.7058      0.00000
     99      97.5850      0.00000
    100      97.5850      0.00000
    101      98.3897      0.00000
    102      99.5618      0.00000
    103      99.5618      0.00000
    104     101.6050      0.00000
    105     101.6050      0.00000
    106     102.5480      0.00000
    107     102.5842      0.00000
    108     102.5842      0.00000
    109     103.2559      0.00000
    110     103.7439      0.00000
    111     103.7439      0.00000
    112     105.4716      0.00000
    113     105.7646      0.00000
    114     105.7646      0.00000
    115     106.0116      0.00000
    116     107.5464      0.00000
    117     108.6100      0.00000
    118     110.3607      0.00000
    119     110.3607      0.00000
    120     111.2203      0.00000
    121     111.2203      0.00000
    122     111.8302      0.00000
    123     112.7067      0.00000
    124     112.8948      0.00000
    125     112.8948      0.00000
    126     113.4305      0.00000
    127     113.8515      0.00000
    128     113.8515      0.00000
    129     114.3675      0.00000
    130     115.4658      0.00000
    131     115.4658      0.00000
    132     115.8690      0.00000
    133     116.4697      0.00000
    134     116.4697      0.00000
    135     118.0764      0.00000
    136     119.6184      0.00000
    137     119.6184      0.00000
    138     120.3232      0.00000
    139     121.1450      0.00000
    140     121.1450      0.00000
    141     121.8208      0.00000
    142     123.1479      0.00000
    143     123.1479      0.00000
    144     123.4237      0.00000

 k-point     4 :       0.3750   -0.0000   -0.0000
  band No.  band energies     occupation 
      1      -4.5093      1.00000
      2      -0.2095      1.00000
      3       4.6737      1.00000
      4       4.6737      1.00000
      5       7.3477      0.00000
      6       9.1523      0.00000
      7       9.1523      0.00000
      8      13.4445      0.00000
      9      14.2832      0.00000
     10      14.2832      0.00000
     11      15.3087      0.00000
     12      19.4554      0.00000
     13      19.4554      0.00000
     14      19.6860      0.00000
     15      22.3152      0.00000
     16      24.1659      0.00000
     17      24.1659      0.00000
     18      28.4667      0.00000
     19      29.5050      0.00000
     20      29.5307      0.00000
     21      29.5307      0.00000
     22      32.4792      0.00000
     23      32.4792      0.00000
     24      33.9915      0.00000
     25      33.9915      0.00000
     26      35.4329      0.00000
     27      36.3297      0.00000
     28      38.1785      0.00000
     29      38.1785      0.00000
     30      39.1553      0.00000
     31      39.1553      0.00000
     32      40.2855      0.00000
     33      42.9256      0.00000
     34      43.1295      0.00000
     35      46.4099      0.00000
     36      46.4099      0.00000
     37      47.4527      0.00000
     38      47.4527      0.00000
     39      48.5230      0.00000
     40      49.5774      0.00000
     41      49.7306      0.00000
     42      49.7306      0.00000
     43      52.5786      0.00000
     44      54.4563      0.00000
     45      54.4563      0.00000
     46      56.8965      0.00000
     47      56.8965      0.00000
     48      58.5602      0.00000
     49      59.8795      0.00000
     50      60.3375      0.00000
     51      60.3375      0.00000
     52      61.7931      0.00000
     53      61.7931      0.00000
     54      63.2536      0.00000
     55      63.2536      0.00000
     56      64.4513      0.00000
     57      64.6789      0.00000
     58      66.2442      0.00000
     59      66.9896      0.00000
     60      67.0031      0.00000
     61      67.0031      0.00000
     62      68.3192      0.00000
     63      68.3192      0.00000
     64      69.9999      0.00000
     65      69.9999      0.00000
     66      71.7086      0.00000
     67      71.9056      0.00000
     68      71.9056      0.00000
     69      74.3266      0.00000
     70      75.7261      0.00000
     71      76.2107      0.00000
     72      77.6537      0.00000
     73      77.6537      0.00000
     74      79.8339      0.00000
     75      79.8339      0.00000
     76      80.0928      0.00000
     77      82.4182      0.00000
     78      82.5755      0.00000
     79      83.0895      0.00000
     80      83.0895      0.00000
     81      85.7400      0.00000
     82      85.7400      0.00000
     83      87.1760      0.00000
     84      87.1760      0.00000
     85      89.8596      0.00000
     86      90.0600      0.00000
     87      90.2195      0.00000
     88      90.2195      0.00000
     89      90.7214      0.00000
     90      90.7214      0.00000
     91      92.4546      0.00000
     92      93.0237      0.00000
     93      93.0237      0.00000
     94      93.2099      0.00000
     95      95.6447      0.00000
     96      95.6447      0.00000
     97      95.8166      0.00000
     98      96.2898      0.00000
     99      98.4569      0.00000
    100      98.4569      0.00000
    101      99.4438      0.00000
    102     100.6699      0.00000
    103     100.6699      0.00000
    104     101.8315      0.00000
    105     101.9631      0.00000
    106     102.5822      0.00000
    107     102.5822      0.00000
    108     104.5114      0.00000
    109     104.5114      0.00000
    110     104.5231      0.00000
    111     105.5510      0.00000
    112     105.5510      0.00000
    113     106.7969      0.00000
    114     106.7969      0.00000
    115     106.8064      0.00000
    116     107.4585      0.00000
    117     109.4700      0.00000
    118     110.0781      0.00000
    119     110.4779      0.00000
    120     110.4779      0.00000
    121     112.1882      0.00000
    122     112.1882      0.00000
    123     112.3668      0.00000
    124     113.2989      0.00000
    125     113.2989      0.00000
    126     114.0589      0.00000
    127     114.0643      0.00000
    128     114.0643      0.00000
    129     115.3184      0.00000
    130     116.1462      0.00000
    131     116.1462      0.00000
    132     116.1935      0.00000
    133     118.8243      0.00000
    134     118.8243      0.00000
    135     119.9590      0.00000
    136     119.9590      0.00000
    137     120.9543      0.00000
    138     121.2637      0.00000
    139     121.3716      0.00000
    140     121.3716      0.00000
    141     121.6116      0.00000
    142     122.1693      0.00000
    143     122.8167      0.00000
    144     122.8167      0.00000

 k-point     5 :       0.5000   -0.0000   -0.0000
  band No.  band energies     occupation 
      1      -3.8651      1.00000
      2      -1.2388      1.00000
      3       4.5624      1.00000
      4       4.5624      1.00000
      5       7.2191      0.00000
      6       9.0370      0.00000
      7       9.0370      0.00000
      8      13.2729      0.00000
      9      16.2660      0.00000
     10      16.2660      0.00000
     11      16.9618      0.00000
     12      17.0251      0.00000
     13      17.0251      0.00000
     14      18.6612      0.00000
     15      25.0031      0.00000
     16      25.5854      0.00000
     17      27.2495      0.00000
     18      27.2495      0.00000
     19      27.4869      0.00000
     20      27.4869      0.00000
     21      31.2141      0.00000
     22      32.0831      0.00000
     23      32.0831      0.00000
     24      33.1288      0.00000
     25      33.1288      0.00000
     26      33.8460      0.00000
     27      36.7185      0.00000
     28      37.9573      0.00000
     29      37.9573      0.00000
     30      38.5015      0.00000
     31      38.5015      0.00000
     32      39.5088      0.00000
     33      42.0710      0.00000
     34      42.3121      0.00000
     35      46.4174      0.00000
     36      46.4174      0.00000
     37      48.2771      0.00000
     38      48.2771      0.00000
     39      48.3934      0.00000
     40      49.4423      0.00000
     41      52.2364      0.00000
     42      52.2364      0.00000
     43      54.0219      0.00000
     44      54.0219      0.00000
     45      54.8073      0.00000
     46      58.0960      0.00000
     47      58.2468      0.00000
     48      58.2468      0.00000
     49      59.6087      0.00000
     50      59.6087      0.00000
     51      59.6911      0.00000
     52      61.5032      0.00000
     53      61.5032      0.00000
     54      64.0424      0.00000
     55      64.0424      0.00000
     56      64.8160      0.00000
     57      65.2308      0.00000
     58      65.2308      0.00000
     59      66.8894      0.00000
[...]
      3       2.3120      1.00000
      4       2.3120      1.00000
      5       7.6346      0.00000
      6       7.6346      0.00000
      7      13.5356      0.00000
      8      13.5356      0.00000
      9      16.2746      0.00000
     10      16.2746      0.00000
     11      18.5645      0.00000
     12      18.5645      0.00000
     13      21.2499      0.00000
     14      21.2499      0.00000
     15      22.9822      0.00000
     16      22.9822      0.00000
     17      24.6542      0.00000
     18      24.6542      0.00000
     19      27.3484      0.00000
     20      27.3484      0.00000
     21      28.6628      0.00000
     22      28.6628      0.00000
     23      29.6825      0.00000
     24      29.6825      0.00000
     25      35.9630      0.00000
     26      35.9630      0.00000
     27      37.6890      0.00000
     28      37.6890      0.00000
     29      38.0929      0.00000
     30      38.0929      0.00000
     31      41.9034      0.00000
     32      41.9034      0.00000
     33      43.6084      0.00000
     34      43.6084      0.00000
     35      45.6593      0.00000
     36      45.6593      0.00000
     37      47.4887      0.00000
     38      47.4887      0.00000
     39      48.5521      0.00000
     40      48.5521      0.00000
     41      52.7782      0.00000
     42      52.7782      0.00000
     43      53.5090      0.00000
     44      53.5090      0.00000
     45      56.5740      0.00000
     46      56.5740      0.00000
     47      57.7076      0.00000
     48      57.7076      0.00000
     49      59.9185      0.00000
     50      59.9185      0.00000
     51      61.1013      0.00000
     52      61.1013      0.00000
     53      62.8752      0.00000
     54      62.8752      0.00000
     55      64.4860      0.00000
     56      64.4860      0.00000
     57      65.1066      0.00000
     58      65.1066      0.00000
     59      67.8616      0.00000
     60      67.8616      0.00000
     61      70.2835      0.00000
     62      70.2835      0.00000
     63      71.0915      0.00000
     64      71.0915      0.00000
     65      71.6450      0.00000
     66      71.6450      0.00000
     67      73.2642      0.00000
     68      73.2642      0.00000
     69      73.9036      0.00000
     70      73.9036      0.00000
     71      76.9120      0.00000
     72      76.9120      0.00000
     73      78.0980      0.00000
     74      78.0980      0.00000
     75      80.9064      0.00000
     76      80.9064      0.00000
     77      81.2031      0.00000
     78      81.2031      0.00000
     79      83.0981      0.00000
     80      83.0981      0.00000
     81      84.1220      0.00000
     82      84.1220      0.00000
     83      84.6483      0.00000
     84      84.6483      0.00000
     85      86.7103      0.00000
     86      86.7103      0.00000
     87      87.5275      0.00000
     88      87.5275      0.00000
     89      89.6911      0.00000
     90      89.6911      0.00000
     91      90.2286      0.00000
     92      90.2286      0.00000
     93      90.7445      0.00000
     94      90.7445      0.00000
     95      91.5148      0.00000
     96      91.5148      0.00000
     97      92.9293      0.00000
     98      92.9293      0.00000
     99      95.9683      0.00000
    100      95.9683      0.00000
    101      98.1836      0.00000
    102      98.1836      0.00000
    103     100.3164      0.00000
    104     100.3164      0.00000
    105     102.5630      0.00000
    106     102.5630      0.00000
    107     102.9156      0.00000
    108     102.9156      0.00000
    109     105.6628      0.00000
    110     105.6628      0.00000
    111     106.3752      0.00000
    112     106.3752      0.00000
    113     108.2973      0.00000
    114     108.2973      0.00000
    115     110.4800      0.00000
    116     110.4800      0.00000
    117     111.9796      0.00000
    118     111.9796      0.00000
    119     113.2870      0.00000
    120     113.2870      0.00000
    121     113.8228      0.00000
    122     113.8228      0.00000
    123     115.1380      0.00000
    124     115.1380      0.00000
    125     115.7732      0.00000
    126     115.7732      0.00000
    127     117.1551      0.00000
    128     117.1551      0.00000
    129     118.5622      0.00000
    130     118.5622      0.00000
    131     120.7948      0.00000
    132     120.7948      0.00000
    133     121.2326      0.00000
    134     121.2326      0.00000
    135     121.5799      0.00000
    136     121.5799      0.00000
    137     122.9215      0.00000
    138     122.9215      0.00000
    139     124.9409      0.00000
    140     124.9409      0.00000
    141     125.7089      0.00000
    142     125.7089      0.00000
    143     126.0605      0.00000
    144     126.0605      0.00000

 k-point    29 :      -0.2500    0.5000    0.2500
  band No.  band energies     occupation 
      1      -1.8892      1.00000
      2      -1.8892      1.00000
      3       1.8658      1.00000
      4       1.8658      1.00000
      5       9.9342      0.00000
      6       9.9342      0.00000
      7      10.6969      0.00000
      8      10.6969      0.00000
      9      16.2791      0.00000
     10      16.2791      0.00000
     11      18.7247      0.00000
     12      18.7247      0.00000
     13      22.0242      0.00000
     14      22.0242      0.00000
     15      24.1559      0.00000
     16      24.1559      0.00000
     17      24.6010      0.00000
     18      24.6010      0.00000
     19      25.5114      0.00000
     20      25.5114      0.00000
     21      29.2787      0.00000
     22      29.2787      0.00000
     23      33.0512      0.00000
     24      33.0512      0.00000
     25      33.2359      0.00000
     26      33.2359      0.00000
     27      35.0661      0.00000
     28      35.0661      0.00000
     29      38.3045      0.00000
     30      38.3045      0.00000
     31      42.3852      0.00000
     32      42.3852      0.00000
     33      43.5604      0.00000
     34      43.5604      0.00000
     35      45.8275      0.00000
     36      45.8275      0.00000
     37      48.8248      0.00000
     38      48.8248      0.00000
     39      50.0148      0.00000
     40      50.0148      0.00000
     41      52.9220      0.00000
     42      52.9220      0.00000
     43      54.1520      0.00000
     44      54.1520      0.00000
     45      54.3233      0.00000
     46      54.3233      0.00000
     47      57.1914      0.00000
     48      57.1914      0.00000
     49      60.9224      0.00000
     50      60.9224      0.00000
     51      61.5246      0.00000
     52      61.5246      0.00000
     53      62.4480      0.00000
     54      62.4480      0.00000
     55      64.9809      0.00000
     56      64.9809      0.00000
     57      65.2095      0.00000
     58      65.2095      0.00000
     59      67.2779      0.00000
     60      67.2779      0.00000
     61      68.3783      0.00000
     62      68.3783      0.00000
     63      70.2310      0.00000
     64      70.2310      0.00000
     65      71.2236      0.00000
     66      71.2236      0.00000
     67      72.9473      0.00000
     68      72.9473      0.00000
     69      75.8801      0.00000
     70      75.8801      0.00000
     71      78.1382      0.00000
     72      78.1382      0.00000
     73      80.0719      0.00000
     74      80.0719      0.00000
     75      80.4887      0.00000
     76      80.4887      0.00000
     77      80.9150      0.00000
     78      80.9150      0.00000
     79      82.0931      0.00000
     80      82.0931      0.00000
     81      82.7899      0.00000
     82      82.7899      0.00000
     83      85.4716      0.00000
     84      85.4716      0.00000
     85      86.7012      0.00000
     86      86.7012      0.00000
     87      86.9519      0.00000
     88      86.9519      0.00000
     89      88.4162      0.00000
     90      88.4162      0.00000
     91      90.5033      0.00000
     92      90.5033      0.00000
     93      91.3595      0.00000
     94      91.3595      0.00000
     95      93.4722      0.00000
     96      93.4722      0.00000
     97      94.0526      0.00000
     98      94.0526      0.00000
     99      95.3368      0.00000
    100      95.3368      0.00000
    101      97.5068      0.00000
    102      97.5068      0.00000
    103      99.3237      0.00000
    104      99.3237      0.00000
    105     100.9561      0.00000
    106     100.9561      0.00000
    107     101.5374      0.00000
    108     101.5374      0.00000
    109     106.3264      0.00000
    110     106.3264      0.00000
    111     108.3210      0.00000
    112     108.3210      0.00000
    113     108.5047      0.00000
    114     108.5047      0.00000
    115     110.6367      0.00000
    116     110.6367      0.00000
    117     112.3429      0.00000
    118     112.3429      0.00000
    119     113.1384      0.00000
    120     113.1384      0.00000
    121     115.5296      0.00000
    122     115.5296      0.00000
    123     116.9418      0.00000
    124     116.9418      0.00000
    125     117.0738      0.00000
    126     117.0738      0.00000
    127     117.2788      0.00000
    128     117.2788      0.00000
    129     119.2565      0.00000
    130     119.2565      0.00000
    131     119.9079      0.00000
    132     119.9079      0.00000
    133     120.6916      0.00000
    134     120.6916      0.00000
    135     121.6431      0.00000
    136     121.6431      0.00000
    137     122.6219      0.00000
    138     122.6219      0.00000
    139     123.7044      0.00000
    140     123.7044      0.00000
    141     124.2098      0.00000
    142     124.2098      0.00000
    143     124.7491      0.00000
    144     124.7491      0.00000


--------------------------------------------------------------------------------------------------------


 soft charge-density along one line, spin component           1
         0         1         2         3         4         5         6         7         8         9
 total charge-density along one line
 
 soft charge-density along one line, spin component           2
         0         1         2         3         4         5         6         7         8         9
 total charge-density along one line
 
 pseudopotential strength for first ion, spin component:           1
 18.405  25.677  -0.000  -0.000  -0.000  -0.000  -0.000  -0.000
 25.677  35.826  -0.000  -0.000  -0.000  -0.000  -0.000  -0.000
 -0.000  -0.000   4.177   0.000   0.000   7.782   0.000   0.000
 -0.000  -0.000   0.000   4.177   0.000   0.000   7.782   0.000
 -0.000  -0.000   0.000   0.000   4.177   0.000   0.000   7.782
 -0.000  -0.000   7.782   0.000   0.000  14.509   0.000   0.000
 -0.000  -0.000   0.000   7.782   0.000   0.000  14.509   0.000
 -0.000  -0.000   0.000   0.000   7.782   0.000   0.000  14.509
 pseudopotential strength for first ion, spin component:           2
 18.405  25.677  -0.000  -0.000  -0.000  -0.000  -0.000  -0.000
 25.677  35.826  -0.000  -0.000  -0.000  -0.000  -0.000  -0.000
 -0.000  -0.000   4.177   0.000   0.000   7.782   0.000   0.000
 -0.000  -0.000   0.000   4.177   0.000   0.000   7.782   0.000
 -0.000  -0.000   0.000   0.000   4.177   0.000   0.000   7.782
 -0.000  -0.000   7.782   0.000   0.000  14.509   0.000   0.000
 -0.000  -0.000   0.000   7.782   0.000   0.000  14.509   0.000
 -0.000  -0.000   0.000   0.000   7.782   0.000   0.000  14.509
 total augmentation occupancy for first ion, spin component:           1
  5.894  -2.260  -0.000   0.000  -0.000  -0.000  -0.000  -0.000
 -2.260   0.977  -0.000  -0.000  -0.000   0.000   0.000   0.000
  0.000  -0.000   2.927   0.000  -0.000  -0.653  -0.000   0.000
  0.000   0.000   0.000   2.927  -0.000  -0.000  -0.653   0.000
  0.000  -0.000  -0.000  -0.000   2.927   0.000   0.000  -0.653
 -0.000   0.000  -0.653  -0.000   0.000   0.155   0.000  -0.000
  0.000   0.000  -0.000  -0.653   0.000   0.000   0.155   0.000
 -0.000   0.000   0.000   0.000  -0.653  -0.000   0.000   0.155
 total augmentation occupancy for first ion, spin component:           2
 -0.000   0.000   0.000   0.000   0.000  -0.000   0.000   0.000
  0.000  -0.000  -0.000  -0.000   0.000   0.000   0.000   0.000
  0.000  -0.000  -0.000  -0.000   0.000   0.000   0.000  -0.000
  0.000  -0.000  -0.000  -0.000   0.000   0.000   0.000  -0.000
  0.000   0.000   0.000   0.000  -0.000  -0.000  -0.000   0.000
 -0.000   0.000   0.000   0.000  -0.000  -0.000  -0.000   0.000
  0.000   0.000   0.000   0.000  -0.000  -0.000  -0.000  -0.000
  0.000   0.000  -0.000  -0.000   0.000   0.000  -0.000  -0.000


------------------------ aborting loop because EDIFF is reached ----------------------------------------


 


 total charge     
 
# of ion       s       p       d       tot
------------------------------------------
    1        0.752   0.937   0.000   1.689
    2        0.752   0.937   0.000   1.689
--------------------------------------------------
tot          1.503   1.874   0.000   3.378
 


 magnetization (x)
 
# of ion       s       p       d       tot
------------------------------------------
    1        0.000   0.000   0.000   0.000
    2        0.000   0.000   0.000   0.000
--------------------------------------------------
tot          0.000   0.000   0.000   0.000
 
    CHARGE:  cpu time    0.0319: real time    0.0319
    FORLOC:  cpu time    0.0002: real time    0.0002
    FORNL :  cpu time    0.0140: real time    0.0140
    STRESS:  cpu time    0.1922: real time    0.1922
    FORCOR:  cpu time    0.0092: real time    0.0092
    FORHAR:  cpu time    0.0010: real time    0.0010
    MIXING:  cpu time    0.0002: real time    0.0002
    OFIELD:  cpu time    0.0000: real time    0.0000

  FORCE on cell =-STRESS in cart. coord.  units (eV):
  Direction    XX          YY          ZZ          XY          YZ          ZX
  --------------------------------------------------------------------------------------
  Alpha Z     3.35302     3.35302     3.35302
  Ewald     -76.10379   -76.10379   -76.10379     0.00000     0.00000    -0.00000
  Hartree     4.88500     4.88500     4.88500     0.00000     0.00000     0.00000
  E(xc)     -25.53493   -25.53493   -25.53493    -0.00000    -0.00000    -0.00000
  Local     -29.07438   -29.07438   -29.07438     0.00000     0.00000     0.00000
  n-local    78.68182    79.82252    74.13378     2.29322    -1.21649     0.60870
  augment   -11.50989   -11.50989   -11.50989    -0.00000    -0.00000    -0.00000
  Kinetic    58.48519    55.89986    54.92886     3.52055    -0.68400     0.97041
  Fock        0.00000     0.00000     0.00000     0.00000     0.00000     0.00000
  -------------------------------------------------------------------------------------
  Total      -0.00096    -0.00096    -0.00096     0.00000    -0.00000    -0.00000
  in kB      -0.03815    -0.03815    -0.03815     0.00000    -0.00000    -0.00000
  external pressure =       -0.04 kB  Pullay stress =        0.00 kB


 VOLUME and BASIS-vectors are now :
 -----------------------------------------------------------------------------
  energy-cutoff  :      700.00
  volume of cell :       40.16
      direct lattice vectors                 reciprocal lattice vectors
     0.000000000  2.717999873  2.717999873    -0.183958802  0.183958802  0.183958802
     2.717999873 -0.000000000  2.717999873     0.183958802 -0.183958802  0.183958802
     2.717999873  2.717999873  0.000000000     0.183958802  0.183958802 -0.183958802

  length of vectors
     3.843832284  3.843832284  3.843832284     0.318625991  0.318625991  0.318625991


 FORCES acting on ions
    electron-ion (+dipol)            ewald-force                    non-local-force                 convergence-correction
 -----------------------------------------------------------------------------------------------
   0.536E-08 0.536E-08 0.423E-08   -.456E-14 0.870E-14 -.543E-14   0.208E-16 0.486E-16 0.803E-16   0.474E-10 0.474E-10 0.474E-10
   -.536E-08 -.536E-08 -.423E-08   0.438E-14 -.852E-14 0.602E-14   -.208E-16 -.416E-16 -.851E-16   -.474E-10 -.474E-10 -.474E-10
 -----------------------------------------------------------------------------------------------
   0.859E-13 0.244E-13 -.938E-14   -.178E-15 0.179E-15 0.595E-15   0.816E-19 0.702E-17 -.477E-17   -.135E-15 0.391E-14 0.916E-15
 
 
 POSITION                                       TOTAL-FORCE (eV/Angst)
 -----------------------------------------------------------------------------------
     -0.00000      0.00000      0.00000        -0.000000     -0.000000     -0.000000
      1.35900      1.35900      1.35900         0.000000      0.000000      0.000000
 -----------------------------------------------------------------------------------
    total drift:                                0.000000      0.000000     -0.000000


--------------------------------------------------------------------------------------------------------



  FREE ENERGIE OF THE ION-ELECTRON SYSTEM (eV)
  ---------------------------------------------------
  free  energy   TOTEN  =       -11.48910469 eV

  energy  without entropy=      -11.48910469  energy(sigma->0) =      -11.48910469
 
 d Force = 0.0000000E+00[ 0.000E+00, 0.000E+00]  d Energy = 0.1705745E-06-0.171E-06
 d Force = 0.0000000E+00[ 0.000E+00, 0.000E+00]  d Ewald  = 0.8037570E-02-0.804E-02


--------------------------------------------------------------------------------------------------------


    POTLOK:  cpu time    0.2029: real time    0.2029


--------------------------------------------------------------------------------------------------------


 stress matrix after NEB project (eV)
     -0.00096      0.00000     -0.00000
      0.00000     -0.00096      0.00000
     -0.00000     -0.00000     -0.00096
  FORCES: max atom, RMS     0.000000    0.000000
  FORCE total and by dimension    0.000000    0.000000
  Stress total and by dimension    0.001656    0.000956


--------------------------------------------------------------------------------------------------------


  
 reached required accuracy - stopping structural energy minimisation
     LOOP+:  cpu time   25.9489: real time   25.9490
    4ORBIT:  cpu time    0.0000: real time    0.0000
 


 total charge     
 
# of ion       s       p       d       tot
------------------------------------------
    1        0.752   0.937   0.000   1.689
    2        0.752   0.937   0.000   1.689
--------------------------------------------------
tot          1.503   1.874   0.000   3.378
 


 magnetization (x)
 
# of ion       s       p       d       tot
------------------------------------------
    1        0.000   0.000   0.000   0.000
    2        0.000   0.000   0.000   0.000
--------------------------------------------------
tot          0.000   0.000   0.000   0.000
 
 BZINTS: Fermi energy:    6.269556;    8.000000 electrons
         Band energy: 0.547094E+01;  BLOECHL correction:   -0.000000

 total amount of memory used by VASP MPI-rank0    39560. kBytes
=======================================================================

   base      :      30000. kBytes
   nonl-proj :       3262. kBytes
   fftplans  :        394. kBytes
   grid      :       4155. kBytes
   one-center:         12. kBytes
   wavefun   :       1737. kBytes
 
  
  
 General timing and accounting informations for this job:
 ========================================================
  
                  Total CPU time used (sec):      194.205
                            User time (sec):      192.374
                          System time (sec):        1.832
                         Elapsed time (sec):      195.017
  
                   Maximum memory used (kb):      507612.
                   Average memory used (kb):           0.
  
                          Minor page faults:        70146
                          Major page faults:            0
                 Voluntary context switches:         4164
