<?xml version="1.0" encoding="ISO-8859-1"?>
<modeling>
 <generator>
  <i name="program" type="string">vasp </i>
  <i name="version" type="string">6.1.2  </i>
  <i name="subversion" type="string">22Jul20 (build Dec 10 2020 10:33:42) complex                          parallel </i>
  <i name="platform" type="string">LinuxIFC </i>
  <i name="date" type="string">2022 08 31 </i>
  <i name="time" type="string">16:06:27 </i>
 </generator>
 <incar>
  <i type="string" name="PREC"> Accurate</i>
  <i type="string" name="ALGO"> Fast</i>
  <i type="int" name="ISPIN">     2</i>
  <i type="int" name="NELM">   200</i>
  <i type="int" name="IBRION">     2</i>
  <i name="EDIFF">      0.00000010</i>
  <i name="EDIFFG">     -0.00100000</i>
  <i type="int" name="NSW">    99</i>
  <i type="int" name="ISIF">     3</i>
  <i name="ENCUT">    700.00000000</i>
  <i name="ENAUG">   1360.00000000</i>
  <v name="MAGMOM">      0.00000000      0.00000000</v>
  <i type="logical" name="LREAL"> F  </i>
  <i type="int" name="ISMEAR">    -5</i>
  <i name="SIGMA">      0.05000000</i>
  <i name="KSPACING">      0.28227718</i>
  <i type="logical" name="LWAVE"> F  </i>
  <i type="logical" name="LCHARG"> F  </i>
  <i type="logical" name="LVTOT"> T  </i>
  <i type="logical" name="LELF"> F  </i>
  <i type="logical" name="LASPH"> T  </i>
  <i type="logical" name="LAECHG"> F  </i>
  <i type="string" name="ALGO"> Fast</i>
  <i type="int" name="NELM">   200</i>
  <i type="string" name="GGA"> Ps</i>
  <i name="EDIFF">      0.00000010</i>
  <i type="logical" name="LASPH"> T  </i>
  <i type="logical" name="LMIXTAU"> T  </i>
  <i type="int" name="ISPIN">     2</i>
 </incar>
 <structure name="primitive_cell" >
  <crystal>
   <varray name="basis" >
    <v>       0.00000000       2.71786300       2.71786300 </v>
    <v>       2.71786300       0.00000000       2.71786300 </v>
    <v>       2.71786300       2.71786300       0.00000000 </v>
   </varray>
   <i name="volume">     40.15250823 </i>
   <varray name="rec_basis" >
    <v>      -0.18396807       0.18396807       0.18396807 </v>
    <v>       0.18396807      -0.18396807       0.18396807 </v>
    <v>       0.18396807       0.18396807      -0.18396807 </v>
   </varray>
  </crystal>
  <varray name="positions" >
   <v>       0.00000000       0.00000000       0.00000000 </v>
   <v>       0.25000000       0.25000000       0.25000000 </v>
  </varray>
 </structure>
 <varray name="primitive_index" >
  <v type="int" >        1 </v>
  <v type="int" >        2 </v>
 </varray>
 <kpoints>
  <generation param="Gamma">
   <v type="int" name="divisions">       8        8        8 </v>
   <v name="usershift">      0.00000000       0.00000000       0.00000000 </v>
   <v name="genvec1">      0.12500000       0.00000000      -0.00000000 </v>
   <v name="genvec2">      0.00000000       0.12500000       0.00000000 </v>
   <v name="genvec3">     -0.00000000      -0.00000000       0.12500000 </v>
   <v name="shift">      0.00000000       0.00000000       0.00000000 </v>
  </generation>
  <varray name="kpointlist" >
   <v>       0.00000000       0.00000000       0.00000000 </v>
   <v>       0.12500000      -0.00000000      -0.00000000 </v>
   <v>       0.25000000      -0.00000000      -0.00000000 </v>
   <v>       0.37500000      -0.00000000      -0.00000000 </v>
   <v>       0.50000000      -0.00000000      -0.00000000 </v>
   <v>       0.12500000       0.12500000      -0.00000000 </v>
   <v>       0.25000000       0.12500000      -0.00000000 </v>
   <v>       0.37500000       0.12500000      -0.00000000 </v>
   <v>       0.50000000       0.12500000      -0.00000000 </v>
   <v>      -0.37500000       0.12500000       0.00000000 </v>
   <v>      -0.25000000       0.12500000       0.00000000 </v>
   <v>      -0.12500000       0.12500000       0.00000000 </v>
   <v>       0.25000000       0.25000000      -0.00000000 </v>
   <v>       0.37500000       0.25000000       0.00000000 </v>
   <v>       0.50000000       0.25000000      -0.00000000 </v>
   <v>      -0.37500000       0.25000000       0.00000000 </v>
   <v>      -0.25000000       0.25000000       0.00000000 </v>
   <v>       0.37500000       0.37500000      -0.00000000 </v>
   <v>       0.50000000       0.37500000      -0.00000000 </v>
   <v>      -0.37500000       0.37500000      -0.00000000 </v>
   <v>       0.50000000       0.50000000      -0.00000000 </v>
   <v>       0.37500000       0.25000000       0.12500000 </v>
   <v>       0.50000000       0.25000000       0.12500000 </v>
   <v>      -0.37500000       0.25000000       0.12500000 </v>
   <v>       0.50000000       0.37500000       0.12500000 </v>
   <v>      -0.37500000       0.37500000       0.12500000 </v>
   <v>      -0.25000000       0.37500000       0.12500000 </v>
   <v>      -0.37500000       0.50000000       0.12500000 </v>
   <v>      -0.25000000       0.50000000       0.25000000 </v>
  </varray>
  <varray name="weights" >
   <v>       0.00195312 </v>
   <v>       0.01562500 </v>
   <v>       0.01562500 </v>
   <v>       0.01562500 </v>
   <v>       0.00781250 </v>
   <v>       0.01171875 </v>
   <v>       0.04687500 </v>
   <v>       0.04687500 </v>
   <v>       0.04687500 </v>
   <v>       0.04687500 </v>
   <v>       0.04687500 </v>
   <v>       0.02343750 </v>
   <v>       0.01171875 </v>
   <v>       0.04687500 </v>
   <v>       0.04687500 </v>
   <v>       0.04687500 </v>
   <v>       0.02343750 </v>
   <v>       0.01171875 </v>
   <v>       0.04687500 </v>
   <v>       0.02343750 </v>
   <v>       0.00585938 </v>
   <v>       0.04687500 </v>
   <v>       0.09375000 </v>
   <v>       0.04687500 </v>
   <v>       0.04687500 </v>
   <v>       0.09375000 </v>
   <v>       0.04687500 </v>
   <v>       0.02343750 </v>
   <v>       0.01171875 </v>
  </varray>
  <varray name="tetrahedronlist"  type="int" >
   <v type="int" >       24        1        2        2        6 </v>
   <v type="int" >       48        2        6        7       12 </v>
   <v type="int" >       48        2        3        7       12 </v>
   <v type="int" >       24        2        2        6       12 </v>
   <v type="int" >       48        3        7        8       11 </v>
   <v type="int" >       48        3        4        8       11 </v>
   <v type="int" >       48        3        7       11       12 </v>
   <v type="int" >       48        4        8        9       10 </v>
   <v type="int" >       48        4        5        9       10 </v>
   <v type="int" >       48        4        8       10       11 </v>
   <v type="int" >       48        5        9        9       10 </v>
   <v type="int" >       24        6        7        7       13 </v>
   <v type="int" >       24        6        7        7       12 </v>
   <v type="int" >       48        7       13       14       22 </v>
   <v type="int" >       48        7        8       14       22 </v>
   <v type="int" >       48        7        8       11       22 </v>
   <v type="int" >       24        7        7       13       22 </v>
   <v type="int" >       24        7        7       12       22 </v>
   <v type="int" >       48        7       11       12       22 </v>
   <v type="int" >       48        8       14       15       23 </v>
   <v type="int" >       48        8        9       15       23 </v>
   <v type="int" >       48        8        9       10       23 </v>
   <v type="int" >       48        8       14       22       23 </v>
   <v type="int" >       48        8       11       22       23 </v>
   <v type="int" >       48        8       10       11       23 </v>
   <v type="int" >       48        9       15       16       24 </v>
   <v type="int" >       48        9       10       16       24 </v>
   <v type="int" >       48        9        9       10       24 </v>
   <v type="int" >       48        9       15       23       24 </v>
   <v type="int" >       48        9       10       23       24 </v>
   <v type="int" >       48       10       16       17       23 </v>
   <v type="int" >       48       10       11       17       23 </v>
   <v type="int" >       48       10       16       23       24 </v>
   <v type="int" >       24       11       11       17       22 </v>
   <v type="int" >       24       11       11       12       22 </v>
   <v type="int" >       48       11       17       22       23 </v>
   <v type="int" >       24       13       14       14       18 </v>
   <v type="int" >       24       13       14       14       22 </v>
   <v type="int" >       48       14       18       19       25 </v>
   <v type="int" >       48       14       15       19       25 </v>
   <v type="int" >       48       14       15       23       25 </v>
   <v type="int" >       24       14       14       18       25 </v>
   <v type="int" >       24       14       14       22       25 </v>
   <v type="int" >       48       14       22       23       25 </v>
   <v type="int" >       48       15       19       20       26 </v>
   <v type="int" >       48       15       16       20       26 </v>
   <v type="int" >       48       15       16       24       26 </v>
   <v type="int" >       48       15       19       25       26 </v>
   <v type="int" >       48       15       23       25       26 </v>
   <v type="int" >       48       15       23       24       26 </v>
   <v type="int" >       24       16       16       20       27 </v>
   <v type="int" >       24       16       16       17       27 </v>
   <v type="int" >       48       16       17       23       27 </v>
   <v type="int" >       48       16       20       26       27 </v>
   <v type="int" >       48       16       24       26       27 </v>
   <v type="int" >       48       16       23       24       27 </v>
   <v type="int" >       24       17       23       23       27 </v>
   <v type="int" >       24       17       22       23       23 </v>
   <v type="int" >       24       18       19       19       21 </v>
   <v type="int" >       24       18       19       19       25 </v>
   <v type="int" >       48       19       19       21       28 </v>
   <v type="int" >       24       19       19       20       28 </v>
   <v type="int" >       48       19       20       26       28 </v>
   <v type="int" >       24       19       19       25       28 </v>
   <v type="int" >       48       19       25       26       28 </v>
   <v type="int" >       24       20       26       26       28 </v>
   <v type="int" >       24       20       26       26       27 </v>
   <v type="int" >       24       22       23       23       25 </v>
   <v type="int" >       48       23       25       26       27 </v>
   <v type="int" >       48       23       24       26       27 </v>
   <v type="int" >       24       23       23       25       27 </v>
   <v type="int" >       48       24       26       26       27 </v>
   <v type="int" >       24       25       26       26       28 </v>
   <v type="int" >       24       25       26       26       27 </v>
   <v type="int" >       48       26       26       28       29 </v>
   <v type="int" >       96       26       26       27       29 </v>
  </varray>
  <i name="volumeweight">      0.00032552 </i>
 </kpoints>
 <parameters>
  <separator name="general" >
   <i type="string" name="SYSTEM">unknown system</i>
   <i type="logical" name="LCOMPAT"> F  </i>
  </separator>
  <separator name="electronic" >
   <i type="string" name="PREC">accura</i>
   <i name="ENMAX">    700.00000000</i>
   <i name="ENAUG">   1360.00000000</i>
   <i name="EDIFF">      0.00000010</i>
   <i type="int" name="IALGO">    68</i>
   <i type="int" name="IWAVPR">    11</i>
   <i type="int" name="NBANDS">   144</i>
   <i type="int" name="NBANDSLOW">    -1</i>
   <i type="int" name="NBANDSHIGH">    -1</i>
   <i name="NELECT">      8.00000000</i>
   <i type="int" name="TURBO">     0</i>
   <i type="int" name="IRESTART">     0</i>
   <i type="int" name="NREBOOT">     0</i>
   <i type="int" name="NMIN">     0</i>
   <i name="EREF">      0.00000000</i>
   <separator name="electronic smearing" >
    <i type="int" name="ISMEAR">    -5</i>
    <i name="SIGMA">      0.05000000</i>
    <i name="KSPACING">      0.28227718</i>
    <i type="logical" name="KGAMMA"> T  </i>
    <i type="logical" name="KBLOWUP"> T  </i>
   </separator>
   <separator name="electronic projectors" >
    <i type="logical" name="LREAL"> F  </i>
    <v name="ROPT">      0.00000000</v>
    <i type="int" name="LMAXPAW">  -100</i>
    <i type="int" name="LMAXMIX">     2</i>
    <i type="logical" name="NLSPLINE"> F  </i>
   </separator>
   <separator name="electronic startup" >
    <i type="int" name="ISTART">     0</i>
    <i type="int" name="ICHARG">     2</i>
    <i type="int" name="INIWAV">     1</i>
   </separator>
   <separator name="electronic spin" >
    <i type="int" name="ISPIN">     2</i>
    <i type="logical" name="LNONCOLLINEAR"> F  </i>
    <v name="MAGMOM">      0.00000000      0.00000000</v>
    <i name="NUPDOWN">     -1.00000000</i>
    <i type="logical" name="LSORBIT"> F  </i>
    <v name="SAXIS">      0.00000000      0.00000000      1.00000000</v>
    <i type="logical" name="LSPIRAL"> F  </i>
    <v name="QSPIRAL">      0.00000000      0.00000000      0.00000000</v>
    <i type="logical" name="LZEROZ"> F  </i>
   </separator>
   <separator name="electronic exchange-correlation" >
    <i type="logical" name="LASPH"> T  </i>
    <i type="logical" name="LMETAGGA"> F  </i>
   </separator>
   <separator name="electronic convergence" >
    <i type="int" name="NELM">   200</i>
    <i type="int" name="NELMDL">    -5</i>
    <i type="int" name="NELMIN">     2</i>
    <i name="ENINI">    700.00000000</i>
    <separator name="electronic convergence detail" >
     <i type="logical" name="LDIAG"> T  </i>
     <i type="logical" name="LSUBROT"> F  </i>
     <i name="WEIMIN">      0.00100000</i>
     <i name="EBREAK">      0.00000000</i>
     <i name="DEPER">      0.30000000</i>
     <i type="int" name="NRMM">     4</i>
     <i name="TIME">      0.40000000</i>
    </separator>
   </separator>
   <separator name="electronic mixer" >
    <i name="AMIX">      0.40000000</i>
    <i name="BMIX">      1.00000000</i>
    <i name="AMIN">      0.10000000</i>
    <i name="AMIX_MAG">      1.60000000</i>
    <i name="BMIX_MAG">      1.00000000</i>
    <separator name="electronic mixer details" >
     <i type="int" name="IMIX">     4</i>
     <i type="logical" name="MIXFIRST"> F  </i>
     <i type="int" name="MAXMIX">   -45</i>
     <i name="WC">    100.00000000</i>
     <i type="int" name="INIMIX">     1</i>
     <i type="int" name="MIXPRE">     1</i>
     <i type="int" name="MREMOVE">     5</i>
    </separator>
   </separator>
   <separator name="electronic dipolcorrection" >
    <i type="logical" name="LDIPOL"> F  </i>
    <i type="logical" name="LMONO"> F  </i>
    <i type="int" name="IDIPOL">     0</i>
    <i name="EPSILON">      1.00000000</i>
    <v name="DIPOL">   -100.00000000   -100.00000000   -100.00000000</v>
    <i name="EFIELD">      0.00000000</i>
   </separator>
  </separator>
  <separator name="grids" >
   <i type="int" name="NGX">    36</i>
   <i type="int" name="NGY">    36</i>
   <i type="int" name="NGZ">    36</i>
   <i type="int" name="NGXF">    72</i>
   <i type="int" name="NGYF">    72</i>
   <i type="int" name="NGZF">    72</i>
   <i type="logical" name="ADDGRID"> F  </i>
  </separator>
  <separator name="ionic" >
   <i type="int" name="NSW">    99</i>
   <i type="int" name="IBRION">     2</i>
   <i type="int" name="MDALGO">     0</i>
   <i type="int" name="ISIF">     3</i>
   <i name="PSTRESS">      0.00000000</i>
   <i name="EDIFFG">     -0.00100000</i>
   <i type="int" name="NFREE">     1</i>
   <i name="POTIM">      0.50000000</i>
   <i name="SMASS">     -3.00000000</i>
   <i name="SCALEE">      1.00000000</i>
  </separator>
  <separator name="ionic md" >
   <i name="TEBEG">      0.00010000</i>
   <i name="TEEND">      0.00010000</i>
   <i type="int" name="NBLOCK">     1</i>
   <i type="int" name="KBLOCK">    99</i>
   <i type="int" name="NPACO">   256</i>
   <i name="APACO">     16.00000000</i>
  </separator>
  <separator name="symmetry" >
   <i type="int" name="ISYM">     2</i>
   <i name="SYMPREC">      0.00001000</i>
  </separator>
  <separator name="dos" >
   <i type="int" name="LORBIT">    11</i>
   <v name="RWIGS">     -1.00000000</v>
   <i type="int" name="NEDOS">   301</i>
   <i name="EMIN">     10.00000000</i>
   <i name="EMAX">    -10.00000000</i>
   <i name="EFERMI">      0.00000000</i>
  </separator>
  <separator name="writing" >
   <i type="int" name="NWRITE">     2</i>
   <i type="logical" name="LWAVE"> F  </i>
   <i type="logical" name="LDOWNSAMPLE"> F  </i>
   <i type="logical" name="LCHARG"> F  </i>
   <i type="logical" name="LPARD"> F  </i>
   <i type="logical" name="LVTOT"> T  </i>
   <i type="logical" name="LVHAR"> F  </i>
   <i type="logical" name="LELF"> F  </i>
   <i type="logical" name="LOPTICS"> F  </i>
   <v name="STM">      0.00000000      0.00000000      0.00000000      0.00000000      0.00000000      0.00000000      0.00000000</v>
  </separator>
  <separator name="performance" >
   <i type="int" name="NPAR">   144</i>
   <i type="int" name="NSIM">     4</i>
   <i type="int" name="NBLK">    -1</i>
   <i type="logical" name="LPLANE"> T  </i>
   <i type="logical" name="LSCALAPACK"> T  </i>
   <i type="logical" name="LSCAAWARE"> T  </i>
   <i type="logical" name="LSCALU"> F  </i>
   <i type="logical" name="LASYNC"> F  </i>
   <i type="logical" name="LORBITALREAL"> F  </i>
  </separator>
  <separator name="miscellaneous" >
   <i type="int" name="IDIOT">     3</i>
   <i type="int" name="PHON_NSTRUCT">    -1</i>
   <i type="logical" name="LMUSIC"> F  </i>
   <v name="POMASS">     28.08500000</v>
   <v name="DARWINR">      0.00000000</v>
   <v name="DARWINV">      1.00000000</v>
   <i type="logical" name="LCORR"> T  </i>
  </separator>
  <i type="logical" name="GGA_COMPAT"> T  </i>
  <i type="logical" name="LBERRY"> F  </i>
  <i type="int" name="ICORELEVEL">     0</i>
  <i type="logical" name="LDAU"> F  </i>
  <i type="int" name="I_CONSTRAINED_M">     0</i>
  <separator name="electronic exchange-correlation" >
   <i type="string" name="GGA">PS</i>
   <i type="int" name="VOSKOWN">     0</i>
   <i type="logical" name="LHFCALC"> F  </i>
   <i type="string" name="PRECFOCK"></i>
   <i type="logical" name="LSYMGRAD"> F  </i>
   <i type="logical" name="LHFONE"> F  </i>
   <i type="logical" name="LRHFCALC"> F  </i>
   <i type="logical" name="LTHOMAS"> F  </i>
   <i type="logical" name="LMODELHF"> F  </i>
   <i type="logical" name="LFOCKACE"> F  </i>
   <i name="ENCUT4O">     -1.00000000</i>
   <i type="int" name="EXXOEP">     0</i>
   <i type="int" name="FOURORBIT">     0</i>
   <i name="AEXX">      0.00000000</i>
   <i name="HFALPHA">      0.00000000</i>
   <i name="MCALPHA">      0.00000000</i>
   <i name="ALDAX">      1.00000000</i>
   <i name="AGGAX">      1.00000000</i>
   <i name="ALDAC">      1.00000000</i>
   <i name="AGGAC">      1.00000000</i>
   <i type="int" name="NKREDX">     1</i>
   <i type="int" name="NKREDY">     1</i>
   <i type="int" name="NKREDZ">     1</i>
   <i type="logical" name="SHIFTRED"> F  </i>
   <i type="logical" name="ODDONLY"> F  </i>
   <i type="logical" name="EVENONLY"> F  </i>
   <i type="int" name="LMAXFOCK">     0</i>
   <i type="int" name="NMAXFOCKAE">     0</i>
   <i type="logical" name="LFOCKAEDFT"> F  </i>
   <i name="HFSCREEN">      0.00000000</i>
   <i name="HFSCREENC">      0.00000000</i>
   <i type="int" name="NBANDSGWLOW">     0</i>
  </separator>
  <separator name="vdW DFT" >
   <i type="logical" name="LUSE_VDW"> F  </i>
   <i name="Zab_VDW">     -0.84910000</i>
   <i name="PARAM1">      0.12340000</i>
   <i name="PARAM2">      1.00000000</i>
   <i name="PARAM3">      0.00000000</i>
  </separator>
  <separator name="model GW" >
   <i type="int" name="MODEL_GW">     0</i>
   <i name="MODEL_EPS0">     12.04575247</i>
   <i name="MODEL_ALPHA">      1.00000000</i>
  </separator>
  <separator name="linear response parameters" >
   <i type="logical" name="LEPSILON"> F  </i>
   <i type="logical" name="LRPA"> F  </i>
   <i type="logical" name="LNABLA"> F  </i>
   <i type="logical" name="LVEL"> F  </i>
   <i type="int" name="KINTER">     0</i>
   <i name="CSHIFT">      0.10000000</i>
   <i name="OMEGAMAX">     -1.00000000</i>
   <i name="DEG_THRESHOLD">      0.00200000</i>
   <i name="RTIME">     -0.10000000</i>
   <i name="WPLASMAI">      0.00000000</i>
   <v name="DFIELD">      0.00000000      0.00000000      0.00000000</v>
   <v name="WPLASMA">      0.00000000      0.00000000      0.00000000      0.00000000      0.00000000      0.00000000      0.00000000      0.00000000      0.00000000</v>
  </separator>
  <separator name="orbital magnetization" >
   <i type="logical" name="NUCIND"> F  </i>
   <v name="MAGPOS">      0.00000000      0.00000000      0.00000000</v>
   <i type="logical" name="LNICSALL"> T  </i>
   <i type="logical" name="ORBITALMAG"> F  </i>
   <i type="logical" name="LMAGBLOCH"> F  </i>
   <i type="logical" name="LCHIMAG"> F  </i>
   <i type="logical" name="LGAUGE"> T  </i>
   <i type="int" name="MAGATOM">     0</i>
   <v name="MAGDIPOL">      0.00000000      0.00000000      0.00000000</v>
   <v name="AVECCONST">      0.00000000      0.00000000      0.00000000</v>
  </separator>
  <separator name="response functions" >
   <i type="logical" name="LFINITE_TEMPERATURE"> F  </i>
   <i type="logical" name="LADDER"> F  </i>
   <i type="logical" name="LRPAFORCE"> F  </i>
   <i type="logical" name="LFXC"> F  </i>
   <i type="logical" name="LHARTREE"> T  </i>
   <i type="int" name="IBSE">     0</i>
   <v type="int" name="KPOINT">    -1     0     0     0</v>
   <i type="logical" name="LTCTC"> F  </i>
   <i type="logical" name="LTCTE"> F  </i>
   <i type="logical" name="LTETE"> F  </i>
   <i type="logical" name="LTRIPLET"> F  </i>
   <i type="logical" name="LFXCEPS"> F  </i>
   <i type="logical" name="LFXHEG"> F  </i>
   <i type="int" name="NATURALO">     2</i>
   <i type="logical" name="LHOLEGF"> F  </i>
   <i type="logical" name="L2ORDER"> F  </i>
   <i type="logical" name="LDMP1"> F  </i>
   <i type="logical" name="LMP2LT"> F  </i>
   <i type="logical" name="LSMP2LT"> F  </i>
   <i type="logical" name="LGWLF"> F  </i>
   <i name="ENCUTGW">     -2.00000000</i>
   <i name="ENCUTGWSOFT">     -2.00000000</i>
   <i name="ENCUTLF">     -1.00000000</i>
   <i type="logical" name="LESF_SPLINES"> F  </i>
   <i type="int" name="LMAXMP2">    -1</i>
   <i name="SCISSOR">      0.00000000</i>
   <i type="int" name="NOMEGA">     0</i>
   <i type="int" name="NOMEGAR">     0</i>
   <i type="int" name="NBANDSGW">    -1</i>
   <i type="int" name="NBANDSO">    -1</i>
   <i type="int" name="NBANDSV">    -1</i>
   <i type="int" name="NELM">   200</i>
   <i type="int" name="NELMHF">     1</i>
   <i type="int" name="DIM">     3</i>
   <i type="int" name="IESPILON">     4</i>
   <i type="int" name="ANTIRES">     0</i>
   <i name="OMEGAMAX">    -30.00000000</i>
   <i name="OMEGAMIN">    -30.00000000</i>
   <i name="OMEGATL">   -200.00000000</i>
   <i type="int" name="OMEGAGRID">     0</i>
   <i name="CSHIFT">     -0.10000000</i>
   <i type="logical" name="LSELFENERGY"> F  </i>
   <i type="logical" name="LSPECTRAL"> F  </i>
   <i type="logical" name="LSPECTRALGW"> F  </i>
   <i type="logical" name="LSINGLES"> F  </i>
   <i type="logical" name="LFERMIGW"> F  </i>
   <i type="logical" name="ODDONLYGW"> F  </i>
   <i type="logical" name="EVENONLYGW"> F  </i>
   <i type="int" name="NKREDLFX">     1</i>
   <i type="int" name="NKREDLFY">     1</i>
   <i type="int" name="NKREDLFZ">     1</i>
   <i type="int" name="MAXMEM">  2800</i>
   <i type="int" name="TELESCOPE">     0</i>
   <i type="int" name="NTAUPAR">    -1</i>
   <i type="int" name="NOMEGAPAR">    -1</i>
   <i name="LAMBDA">      1.00000000</i>
  </separator>
  <separator name="External order field" >
   <i name="OFIELD_KAPPA">      0.00000000</i>
   <v name="OFIELD_K">      0.00000000      0.00000000      0.00000000</v>
   <i name="OFIELD_Q6_NEAR">      0.00000000</i>
   <i name="OFIELD_Q6_FAR">      0.00000000</i>
   <i name="OFIELD_A">      0.00000000</i>
  </separator>
  <separator name="solvation model" >
   <i type="logical" name="LSOL"> F  </i>
  </separator>
 </parameters>
 <atominfo>
  <atoms>       2 </atoms>
  <types>       1 </types>
  <array name="atoms" >
   <dimension dim="1">ion</dimension>
   <field type="string">element</field>
   <field type="int">atomtype</field>
   <set>
    <rc><c>Si</c><c>   1</c></rc>
    <rc><c>Si</c><c>   1</c></rc>
   </set>
  </array>
  <array name="atomtypes" >
   <dimension dim="1">type</dimension>
   <field type="int">atomspertype</field>
   <field type="string">element</field>
   <field>mass</field>
   <field>valence</field>
   <field type="string">pseudopotential</field>
   <set>
    <rc><c>   2</c><c>Si</c><c>     28.08500000</c><c>      4.00000000</c><c>  PAW_PBE Si 05Jan2001                  </c></rc>
   </set>
  </array>
 </atominfo>
 <structure name="initialpos" >
  <crystal>
   <varray name="basis" >
    <v>       0.00000000       2.71786300       2.71786300 </v>
    <v>       2.71786300       0.00000000       2.71786300 </v>
    <v>       2.71786300       2.71786300       0.00000000 </v>
   </varray>
   <i name="volume">     40.15250823 </i>
   <varray name="rec_basis" >
    <v>      -0.18396807       0.18396807       0.18396807 </v>
    <v>       0.18396807      -0.18396807       0.18396807 </v>
    <v>       0.18396807       0.18396807      -0.18396807 </v>
   </varray>
  </crystal>
  <varray name="positions" >
   <v>       0.00000000       0.00000000       0.00000000 </v>
   <v>       0.25000000       0.25000000       0.25000000 </v>
  </varray>
 </structure>
 <calculation>
  <scstep>
   <time name="dav">   22.04   22.05</time>
   <time name="total">   22.26   22.27</time>
   <energy>
    <i name="alphaZ">      3.35352707 </i>
    <i name="ewald">   -228.32275585 </i>
    <i name="hartreedc">    -11.04858530 </i>
    <i name="XCdc">    -17.46650382 </i>
    <i name="pawpsdc">    174.95707044 </i>
    <i name="pawaedc">   -140.38057629 </i>
    <i name="eentropy">      0.00000000 </i>
    <i name="bandstr">      2.71068464 </i>
    <i name="atom">    205.15162554 </i>
    <i name="e_fr_energy">    -11.04551358 </i>
    <i name="e_wo_entrp">    -11.04551358 </i>
    <i name="e_0_energy">    -11.04551358 </i>
   </energy>
  </scstep>
  <scstep>
   <time name="dav">   27.00   27.00</time>
   <time name="total">   27.02   27.02</time>
   <energy>
    <i name="e_fr_energy">    -11.71170658 </i>
    <i name="e_wo_entrp">    -11.71170658 </i>
    <i name="e_0_energy">    -11.71170658 </i>
   </energy>
  </scstep>
  <scstep>
   <time name="dav">   14.88   14.88</time>
   <time name="total">   14.90   14.90</time>
   <energy>
    <i name="e_fr_energy">    -11.71171793 </i>
    <i name="e_wo_entrp">    -11.71171793 </i>
    <i name="e_0_energy">    -11.71171793 </i>
   </energy>
  </scstep>
  <scstep>
   <time name="dav">   43.73   43.73</time>
   <time name="total">   43.75   43.75</time>
   <energy>
    <i name="e_fr_energy">    -11.71171793 </i>
    <i name="e_wo_entrp">    -11.71171793 </i>
    <i name="e_0_energy">    -11.71171793 </i>
   </energy>
  </scstep>
  <scstep>
   <time name="dav">   15.07   15.07</time>
   <time name="total">   15.12   15.12</time>
   <energy>
    <i name="e_fr_energy">    -11.71171793 </i>
    <i name="e_wo_entrp">    -11.71171793 </i>
    <i name="e_0_energy">    -11.71171793 </i>
   </energy>
  </scstep>
  <scstep>
   <time name="diag">    0.95    0.95</time>
   <time name="diis">    0.18    0.18</time>
   <time name="orth">    0.13    0.13</time>
   <time name="total">    1.53    1.53</time>
   <energy>
    <i name="e_fr_energy">    -11.55855141 </i>
    <i name="e_wo_entrp">    -11.55855141 </i>
    <i name="e_0_energy">    -11.55855141 </i>
   </energy>
  </scstep>
  <scstep>
   <time name="diag">    0.88    0.88</time>
   <time name="diis">    0.19    0.18</time>
   <time name="orth">    0.13    0.13</time>
   <time name="total">    1.46    1.46</time>
   <energy>
    <i name="e_fr_energy">    -11.48882416 </i>
    <i name="e_wo_entrp">    -11.48882416 </i>
    <i name="e_0_energy">    -11.48882416 </i>
   </energy>
  </scstep>
  <scstep>
   <time name="diag">    0.88    0.88</time>
   <time name="diis">    0.18    0.18</time>
   <time name="orth">    0.13    0.13</time>
   <time name="total">    1.45    1.45</time>
   <energy>
    <i name="e_fr_energy">    -11.48902339 </i>
    <i name="e_wo_entrp">    -11.48902339 </i>
    <i name="e_0_energy">    -11.48902339 </i>
   </energy>
  </scstep>
  <scstep>
   <time name="diag">    0.88    0.88</time>
   <time name="diis">    0.19    0.18</time>
   <time name="orth">    0.13    0.13</time>
   <time name="total">    1.46    1.46</time>
   <energy>
    <i name="e_fr_energy">    -11.48909559 </i>
    <i name="e_wo_entrp">    -11.48909559 </i>
    <i name="e_0_energy">    -11.48909559 </i>
   </energy>
  </scstep>
  <scstep>
   <time name="diag">    0.88    0.88</time>
   <time name="diis">    0.19    0.18</time>
   <time name="orth">    0.13    0.13</time>
   <time name="total">    1.46    1.45</time>
   <energy>
    <i name="e_fr_energy">    -11.48910432 </i>
    <i name="e_wo_entrp">    -11.48910432 </i>
    <i name="e_0_energy">    -11.48910432 </i>
   </energy>
  </scstep>
  <scstep>
   <time name="diag">    0.91    0.91</time>
   <time name="diis">    0.19    0.18</time>
   <time name="orth">    0.13    0.13</time>
   <time name="total">    1.49    1.49</time>
   <energy>
    <i name="e_fr_energy">    -11.48910459 </i>
    <i name="e_wo_entrp">    -11.48910459 </i>
    <i name="e_0_energy">    -11.48910459 </i>
   </energy>
  </scstep>
  <scstep>
   <time name="diag">    0.90    0.90</time>
   <time name="diis">    0.18    0.18</time>
   <time name="orth">    0.13    0.13</time>
   <time name="total">    1.45    1.44</time>
   <energy>
    <i name="alphaZ">      3.35352707 </i>
    <i name="ewald">   -228.32275585 </i>
    <i name="hartreedc">    -14.65363463 </i>
    <i name="XCdc">    -16.86039407 </i>
    <i name="pawpsdc">    863.68205193 </i>
    <i name="pawaedc">   -829.31827232 </i>
    <i name="eentropy">      0.00000000 </i>
    <i name="bandstr">      5.47874771 </i>
    <i name="atom">    205.15162554 </i>
    <i name="e_fr_energy">    -11.48910462 </i>
    <i name="e_wo_entrp">    -11.48910462 </i>
    <i name="e_0_energy">    -11.48910462 </i>
   </energy>
  </scstep>
  <structure>
   <crystal>
    <varray name="basis" >
     <v>       0.00000000       2.71786300       2.71786300 </v>
     <v>       2.71786300       0.00000000       2.71786300 </v>
     <v>       2.71786300       2.71786300       0.00000000 </v>
    </varray>
    <i name="volume">     40.15250823 </i>
    <varray name="rec_basis" >
     <v>      -0.18396807       0.18396807       0.18396807 </v>
     <v>       0.18396807      -0.18396807       0.18396807 </v>
     <v>       0.18396807       0.18396807      -0.18396807 </v>
    </varray>
   </crystal>
   <varray name="positions" >
    <v>       0.00000000       0.00000000       0.00000000 </v>
    <v>       0.25000000       0.25000000       0.25000000 </v>
   </varray>
  </structure>
  <varray name="forces" >
   <v>      -0.00000000       0.00000000       0.00000000 </v>
   <v>       0.00000000      -0.00000000      -0.00000000 </v>
  </varray>
  <varray name="stress" >
   <v>       0.14154965      -0.00000000       0.00000000 </v>
   <v>      -0.00000000       0.14154965      -0.00000000 </v>
   <v>       0.00000000      -0.00000000       0.14154965 </v>
  </varray>
  <energy>
   <i name="e_fr_energy">    -11.48910462 </i>
   <i name="e_wo_entrp">    -11.48910462 </i>
   <i name="e_0_energy">    -11.48910462 </i>
  </energy>
  <time name="totalsc">  134.18  134.17</time>
 </calculation>
 <calculation>
  <scstep>
   <time name="dav">   24.58   24.58</time>
   <time name="total">   24.84   24.84</time>
   <energy>
    <i name="alphaZ">      3.35266635 </i>
    <i name="ewald">   -228.30322037 </i>
    <i name="hartreedc">    -14.65238518 </i>
    <i name="XCdc">    -16.86155457 </i>
    <i name="pawpsdc">    863.68345062 </i>
    <i name="pawaedc">   -829.31967115 </i>
    <i name="eentropy">      0.00000000 </i>
    <i name="bandstr">      5.45998360 </i>
    <i name="atom">    205.15162554 </i>
    <i name="e_fr_energy">    -11.48910517 </i>
    <i name="e_wo_entrp">    -11.48910517 </i>
    <i name="e_0_energy">    -11.48910517 </i>
   </energy>
  </scstep>
  <scstep>
   <time name="diag">    0.92    0.92</time>
   <time name="diis">    0.18    0.18</time>
   <time name="orth">    0.13    0.13</time>
   <time name="total">    1.49    1.49</time>
   <energy>
    <i name="e_fr_energy">    -11.48910483 </i>
    <i name="e_wo_entrp">    -11.48910483 </i>
    <i name="e_0_energy">    -11.48910483 </i>
   </energy>
  </scstep>
  <scstep>
   <time name="diag">    0.90    0.90</time>
   <time name="diis">    0.18    0.18</time>
   <time name="orth">    0.13    0.13</time>
   <time name="total">    1.47    1.46</time>
   <energy>
    <i name="e_fr_energy">    -11.48910459 </i>
    <i name="e_wo_entrp">    -11.48910459 </i>
    <i name="e_0_energy">    -11.48910459 </i>
   </energy>
  </scstep>
  <scstep>
   <time name="diag">    0.88    0.88</time>
   <time name="diis">    0.17    0.17</time>
   <time name="orth">    0.13    0.13</time>
   <time name="total">    1.42    1.42</time>
   <energy>
    <i name="alphaZ">      3.35266635 </i>
    <i name="ewald">   -228.30322037 </i>
    <i name="hartreedc">    -14.65661504 </i>
    <i name="XCdc">    -16.86149421 </i>
    <i name="pawpsdc">    863.19531753 </i>
    <i name="pawaedc">   -828.83133933 </i>
    <i name="eentropy">      0.00000000 </i>
    <i name="bandstr">      5.46395500 </i>
    <i name="atom">    205.15162554 </i>
    <i name="e_fr_energy">    -11.48910452 </i>
    <i name="e_wo_entrp">    -11.48910452 </i>
    <i name="e_0_energy">    -11.48910452 </i>
   </energy>
  </scstep>
  <structure>
   <crystal>
    <varray name="basis" >
     <v>       0.00000000       2.71809556       2.71809556 </v>
     <v>       2.71809556      -0.00000000       2.71809556 </v>
     <v>       2.71809556       2.71809556       0.00000000 </v>
    </varray>
    <i name="volume">     40.16281643 </i>
    <varray name="rec_basis" >
     <v>      -0.18395233       0.18395233       0.18395233 </v>
     <v>       0.18395233      -0.18395233       0.18395233 </v>
     <v>       0.18395233       0.18395233      -0.18395233 </v>
    </varray>
   </crystal>
   <varray name="positions" >
    <v>       0.00000000      -0.00000000      -0.00000000 </v>
    <v>       0.25000000       0.25000000       0.25000000 </v>
   </varray>
  </structure>
  <varray name="forces" >
   <v>      -0.00000000      -0.00000000      -0.00000000 </v>
   <v>       0.00000000       0.00000000       0.00000000 </v>
  </varray>
  <varray name="stress" >
   <v>      -0.09893280       0.00000000       0.00000000 </v>
   <v>       0.00000000      -0.09893280      -0.00000000 </v>
   <v>       0.00000000       0.00000000      -0.09893280 </v>
  </varray>
  <energy>
   <i name="e_fr_energy">    -11.48910452 </i>
   <i name="e_wo_entrp">    -11.48910452 </i>
   <i name="e_0_energy">    -11.48910452 </i>
  </energy>
  <time name="totalsc">   30.03   30.03</time>
 </calculation>
 <calculation>
  <scstep>
   <time name="dav">   23.63   23.62</time>
   <time name="total">   23.89   23.88</time>
   <energy>
    <i name="alphaZ">      3.35302046 </i>
    <i name="ewald">   -228.31125794 </i>
    <i name="hartreedc">    -14.65713751 </i>
    <i name="XCdc">    -16.86101591 </i>
    <i name="pawpsdc">    863.19995870 </i>
    <i name="pawaedc">   -828.83598063 </i>
    <i name="eentropy">      0.00000000 </i>
    <i name="bandstr">      5.47168257 </i>
    <i name="atom">    205.15162554 </i>
    <i name="e_fr_energy">    -11.48910471 </i>
    <i name="e_wo_entrp">    -11.48910471 </i>
    <i name="e_0_energy">    -11.48910471 </i>
   </energy>
  </scstep>
  <scstep>
   <time name="diag">    0.90    0.90</time>
   <time name="diis">    0.15    0.15</time>
   <time name="orth">    0.13    0.13</time>
   <time name="total">    1.41    1.41</time>
   <energy>
    <i name="alphaZ">      3.35302046 </i>
    <i name="ewald">   -228.31125794 </i>
    <i name="hartreedc">    -14.65635074 </i>
    <i name="XCdc">    -16.86103645 </i>
    <i name="pawpsdc">    863.33024738 </i>
    <i name="pawaedc">   -828.96629092 </i>
    <i name="eentropy">      0.00000000 </i>
    <i name="bandstr">      5.47093797 </i>
    <i name="atom">    205.15162554 </i>
    <i name="e_fr_energy">    -11.48910469 </i>
    <i name="e_wo_entrp">    -11.48910469 </i>
    <i name="e_0_energy">    -11.48910469 </i>
   </energy>
  </scstep>
  <structure>
   <crystal>
    <varray name="basis" >
     <v>       0.00000000       2.71799987       2.71799987 </v>
     <v>       2.71799987      -0.00000000       2.71799987 </v>
     <v>       2.71799987       2.71799987       0.00000000 </v>
    </varray>
    <i name="volume">     40.15857485 </i>
    <varray name="rec_basis" >
     <v>      -0.18395880       0.18395880       0.18395880 </v>
     <v>       0.18395880      -0.18395880       0.18395880 </v>
     <v>       0.18395880       0.18395880      -0.18395880 </v>
    </varray>
   </crystal>
   <varray name="positions" >
    <v>       0.00000000      -0.00000000      -0.00000000 </v>
    <v>       0.25000000       0.25000000       0.25000000 </v>
   </varray>
  </structure>
  <varray name="forces" >
   <v>      -0.00000000      -0.00000000      -0.00000000 </v>
   <v>       0.00000000       0.00000000       0.00000000 </v>
  </varray>
  <varray name="stress" >
   <v>      -0.03815294       0.00000000      -0.00000000 </v>
   <v>       0.00000000      -0.03815294       0.00000000 </v>
   <v>      -0.00000000      -0.00000000      -0.03815294 </v>
  </varray>
  <energy>
   <i name="e_fr_energy">    -11.48910469 </i>
   <i name="e_wo_entrp">    -11.48910469 </i>
   <i name="e_0_energy">    -11.48910469 </i>
  </energy>
  <time name="totalsc">   25.95   25.95</time>
  <eigenvalues>
   <array>
    <dimension dim="1">band</dimension>
    <dimension dim="2">kpoint</dimension>
    <dimension dim="3">spin</dimension>
    <field>eigene</field>
    <field>occ</field>
    <set>
     <set comment="spin 1">
      <set comment="kpoint 1">
       <r>   -6.2083    1.0000 </r>
       <r>    5.7622    1.0000 </r>
       <r>    5.7622    1.0000 </r>
       <r>    5.7622    1.0000 </r>
       <r>    8.2776    0.0000 </r>
       <r>    8.2776    0.0000 </r>
       <r>    8.2776    0.0000 </r>
       <r>    9.0532    0.0000 </r>
       <r>   13.4481    0.0000 </r>
       <r>   13.4481    0.0000 </r>
       <r>   13.4602    0.0000 </r>
       <r>   16.8485    0.0000 </r>
       <r>   16.8485    0.0000 </r>
       <r>   16.8485    0.0000 </r>
       <r>   20.8291    0.0000 </r>
       <r>   28.7273    0.0000 </r>
       <r>   28.7273    0.0000 </r>
       <r>   28.7273    0.0000 </r>
       <r>   29.8920    0.0000 </r>
       <r>   29.8920    0.0000 </r>
       <r>   31.4153    0.0000 </r>
       <r>   31.4153    0.0000 </r>
       <r>   31.4153    0.0000 </r>
       <r>   34.9191    0.0000 </r>
       <r>   34.9191    0.0000 </r>
       <r>   34.9191    0.0000 </r>
       <r>   40.4889    0.0000 </r>
       <r>   40.4889    0.0000 </r>
       <r>   40.4889    0.0000 </r>
       <r>   43.7987    0.0000 </r>
       <r>   44.2924    0.0000 </r>
       <r>   44.2924    0.0000 </r>
       <r>   46.2286    0.0000 </r>
       <r>   46.2286    0.0000 </r>
       <r>   47.8066    0.0000 </r>
       <r>   47.8066    0.0000 </r>
       <r>   47.8066    0.0000 </r>
       <r>   49.5511    0.0000 </r>
       <r>   49.5511    0.0000 </r>
       <r>   49.5511    0.0000 </r>
       <r>   50.0992    0.0000 </r>
       <r>   50.5498    0.0000 </r>
       <r>   50.5498    0.0000 </r>
       <r>   50.5498    0.0000 </r>
       <r>   50.6525    0.0000 </r>
       <r>   50.6525    0.0000 </r>
       <r>   50.6525    0.0000 </r>
       <r>   52.0198    0.0000 </r>
       <r>   52.0198    0.0000 </r>
       <r>   52.0198    0.0000 </r>
       <r>   55.8610    0.0000 </r>
       <r>   57.0529    0.0000 </r>
       <r>   57.0529    0.0000 </r>
       <r>   57.0529    0.0000 </r>
       <r>   57.2784    0.0000 </r>
       <r>   57.2784    0.0000 </r>
       <r>   57.2784    0.0000 </r>
       <r>   62.2240    0.0000 </r>
       <r>   63.3296    0.0000 </r>
       <r>   71.9969    0.0000 </r>
       <r>   71.9969    0.0000 </r>
       <r>   75.0468    0.0000 </r>
       <r>   75.0468    0.0000 </r>
       <r>   75.0468    0.0000 </r>
       <r>   77.6934    0.0000 </r>
       <r>   77.6934    0.0000 </r>
       <r>   77.9323    0.0000 </r>
       <r>   77.9323    0.0000 </r>
       <r>   77.9323    0.0000 </r>
       <r>   78.1554    0.0000 </r>
       <r>   78.3675    0.0000 </r>
       <r>   78.3675    0.0000 </r>
       <r>   78.3675    0.0000 </r>
       <r>   82.4001    0.0000 </r>
       <r>   82.4001    0.0000 </r>
       <r>   82.4001    0.0000 </r>
       <r>   88.3055    0.0000 </r>
       <r>   88.3055    0.0000 </r>
       <r>   88.3055    0.0000 </r>
       <r>   88.5722    0.0000 </r>
       <r>   88.5722    0.0000 </r>
       <r>   89.0779    0.0000 </r>
       <r>   89.0779    0.0000 </r>
       <r>   89.0779    0.0000 </r>
       <r>   90.2772    0.0000 </r>
       <r>   90.2772    0.0000 </r>
       <r>   90.2772    0.0000 </r>
       <r>   90.5775    0.0000 </r>
       <r>   92.0138    0.0000 </r>
       <r>   92.0138    0.0000 </r>
       <r>   92.5268    0.0000 </r>
       <r>   92.5268    0.0000 </r>
       <r>   92.5268    0.0000 </r>
       <r>   95.7572    0.0000 </r>
       <r>   95.7572    0.0000 </r>
       <r>   95.7572    0.0000 </r>
       <r>   96.7445    0.0000 </r>
       <r>   96.9868    0.0000 </r>
       <r>   96.9868    0.0000 </r>
       <r>   96.9868    0.0000 </r>
       <r>   97.7779    0.0000 </r>
       <r>   97.7779    0.0000 </r>
       <r>   97.7779    0.0000 </r>
       <r>   97.8526    0.0000 </r>
       <r>   97.8526    0.0000 </r>
       <r>   97.8526    0.0000 </r>
       <r>   98.4566    0.0000 </r>
       <r>   99.3618    0.0000 </r>
       <r>   99.3618    0.0000 </r>
       <r>   99.3618    0.0000 </r>
       <r>   99.4798    0.0000 </r>
       <r>   99.4798    0.0000 </r>
       <r>  105.1377    0.0000 </r>
       <r>  106.4892    0.0000 </r>
       <r>  106.4892    0.0000 </r>
       <r>  106.4892    0.0000 </r>
       <r>  109.0128    0.0000 </r>
       <r>  109.0128    0.0000 </r>
       <r>  109.1091    0.0000 </r>
       <r>  110.2737    0.0000 </r>
       <r>  110.2737    0.0000 </r>
       <r>  110.2737    0.0000 </r>
       <r>  113.8086    0.0000 </r>
       <r>  113.8086    0.0000 </r>
       <r>  113.8086    0.0000 </r>
       <r>  114.0985    0.0000 </r>
       <r>  114.0985    0.0000 </r>
       <r>  114.0985    0.0000 </r>
       <r>  114.9160    0.0000 </r>
       <r>  114.9160    0.0000 </r>
       <r>  114.9160    0.0000 </r>
       <r>  115.7085    0.0000 </r>
       <r>  115.7085    0.0000 </r>
       <r>  115.7085    0.0000 </r>
       <r>  115.8123    0.0000 </r>
       <r>  116.5647    0.0000 </r>
       <r>  116.5647    0.0000 </r>
       <r>  125.5463    0.0000 </r>
       <r>  125.5463    0.0000 </r>
       <r>  126.2522    0.0000 </r>
       <r>  126.7987    0.0000 </r>
       <r>  126.7987    0.0000 </r>
       <r>  126.7987    0.0000 </r>
       <r>  127.5029    0.0000 </r>
      </set>
      <set comment="kpoint 2">
       <r>   -6.0039    1.0000 </r>
       <r>    4.1502    1.0000 </r>
       <r>    5.4705    1.0000 </r>
       <r>    5.4705    1.0000 </r>
       <r>    8.1991    0.0000 </r>
       <r>    8.7045    0.0000 </r>
       <r>    8.7045    0.0000 </r>
       <r>   10.4057    0.0000 </r>
       <r>   12.9444    0.0000 </r>
       <r>   12.9444    0.0000 </r>
       <r>   14.2660    0.0000 </r>
       <r>   16.2641    0.0000 </r>
       <r>   18.0361    0.0000 </r>
       <r>   18.0361    0.0000 </r>
       <r>   22.0942    0.0000 </r>
       <r>   26.7292    0.0000 </r>
       <r>   26.7292    0.0000 </r>
       <r>   27.0185    0.0000 </r>
       <r>   29.5257    0.0000 </r>
       <r>   29.5257    0.0000 </r>
       <r>   31.9498    0.0000 </r>
       <r>   31.9498    0.0000 </r>
       <r>   32.8312    0.0000 </r>
       <r>   35.1053    0.0000 </r>
       <r>   37.0852    0.0000 </r>
       <r>   37.0852    0.0000 </r>
       <r>   38.0958    0.0000 </r>
       <r>   39.9617    0.0000 </r>
       <r>   39.9617    0.0000 </r>
       <r>   42.3890    0.0000 </r>
       <r>   42.3890    0.0000 </r>
       <r>   44.2724    0.0000 </r>
       <r>   44.2724    0.0000 </r>
       <r>   44.3724    0.0000 </r>
       <r>   47.4519    0.0000 </r>
       <r>   47.4519    0.0000 </r>
       <r>   47.4825    0.0000 </r>
       <r>   47.8374    0.0000 </r>
       <r>   48.9452    0.0000 </r>
       <r>   49.5523    0.0000 </r>
       <r>   49.5523    0.0000 </r>
       <r>   49.9963    0.0000 </r>
       <r>   50.4002    0.0000 </r>
       <r>   50.4002    0.0000 </r>
       <r>   51.7887    0.0000 </r>
       <r>   52.7074    0.0000 </r>
       <r>   52.8598    0.0000 </r>
       <r>   52.8598    0.0000 </r>
       <r>   55.1010    0.0000 </r>
       <r>   55.1010    0.0000 </r>
       <r>   55.3541    0.0000 </r>
       <r>   56.7188    0.0000 </r>
       <r>   56.7188    0.0000 </r>
       <r>   56.7788    0.0000 </r>
       <r>   59.8308    0.0000 </r>
       <r>   59.8308    0.0000 </r>
       <r>   60.8657    0.0000 </r>
       <r>   63.9836    0.0000 </r>
       <r>   65.3893    0.0000 </r>
       <r>   68.9971    0.0000 </r>
       <r>   68.9971    0.0000 </r>
       <r>   71.6192    0.0000 </r>
       <r>   73.6636    0.0000 </r>
       <r>   73.6636    0.0000 </r>
       <r>   75.0527    0.0000 </r>
       <r>   76.1148    0.0000 </r>
       <r>   76.1148    0.0000 </r>
       <r>   78.1283    0.0000 </r>
       <r>   78.1283    0.0000 </r>
       <r>   78.9194    0.0000 </r>
       <r>   78.9194    0.0000 </r>
       <r>   79.1990    0.0000 </r>
       <r>   81.7141    0.0000 </r>
       <r>   82.0977    0.0000 </r>
       <r>   83.8942    0.0000 </r>
       <r>   83.8942    0.0000 </r>
       <r>   84.5943    0.0000 </r>
       <r>   84.5943    0.0000 </r>
       <r>   86.3374    0.0000 </r>
       <r>   87.3286    0.0000 </r>
       <r>   87.3286    0.0000 </r>
       <r>   88.6466    0.0000 </r>
       <r>   89.4722    0.0000 </r>
       <r>   89.4722    0.0000 </r>
       <r>   89.9238    0.0000 </r>
       <r>   90.1379    0.0000 </r>
       <r>   90.2298    0.0000 </r>
       <r>   90.2298    0.0000 </r>
       <r>   91.3204    0.0000 </r>
       <r>   91.5146    0.0000 </r>
       <r>   91.5146    0.0000 </r>
       <r>   93.2009    0.0000 </r>
       <r>   94.2079    0.0000 </r>
       <r>   94.2079    0.0000 </r>
       <r>   94.6216    0.0000 </r>
       <r>   95.0008    0.0000 </r>
       <r>   95.0008    0.0000 </r>
       <r>   95.8342    0.0000 </r>
       <r>   95.8342    0.0000 </r>
       <r>   96.3331    0.0000 </r>
       <r>   98.4169    0.0000 </r>
       <r>   98.4169    0.0000 </r>
       <r>   98.5560    0.0000 </r>
       <r>   99.8825    0.0000 </r>
       <r>   99.8825    0.0000 </r>
       <r>  100.3907    0.0000 </r>
       <r>  100.5532    0.0000 </r>
       <r>  102.2969    0.0000 </r>
       <r>  102.2969    0.0000 </r>
       <r>  102.9324    0.0000 </r>
       <r>  103.6500    0.0000 </r>
       <r>  103.6500    0.0000 </r>
       <r>  104.8501    0.0000 </r>
       <r>  104.8501    0.0000 </r>
       <r>  105.2506    0.0000 </r>
       <r>  106.6435    0.0000 </r>
       <r>  106.6435    0.0000 </r>
       <r>  107.0665    0.0000 </r>
       <r>  108.9823    0.0000 </r>
       <r>  108.9823    0.0000 </r>
       <r>  109.0306    0.0000 </r>
       <r>  109.6039    0.0000 </r>
       <r>  111.3442    0.0000 </r>
       <r>  111.3442    0.0000 </r>
       <r>  112.3172    0.0000 </r>
       <r>  113.7391    0.0000 </r>
       <r>  113.7556    0.0000 </r>
       <r>  113.7556    0.0000 </r>
       <r>  116.5140    0.0000 </r>
       <r>  116.5140    0.0000 </r>
       <r>  117.7801    0.0000 </r>
       <r>  118.2339    0.0000 </r>
       <r>  118.9582    0.0000 </r>
       <r>  118.9582    0.0000 </r>
       <r>  119.6137    0.0000 </r>
       <r>  119.6246    0.0000 </r>
       <r>  119.9588    0.0000 </r>
       <r>  119.9588    0.0000 </r>
       <r>  121.9107    0.0000 </r>
       <r>  122.1125    0.0000 </r>
       <r>  122.1125    0.0000 </r>
       <r>  122.8283    0.0000 </r>
       <r>  124.2908    0.0000 </r>
       <r>  124.2908    0.0000 </r>
      </set>
      <set comment="kpoint 3">
       <r>   -5.4072    1.0000 </r>
       <r>    1.8152    1.0000 </r>
       <r>    4.9986    1.0000 </r>
       <r>    4.9986    1.0000 </r>
       <r>    7.7131    0.0000 </r>
       <r>    9.2173    0.0000 </r>
       <r>    9.2173    0.0000 </r>
       <r>   12.5865    0.0000 </r>
       <r>   12.8910    0.0000 </r>
       <r>   12.8910    0.0000 </r>
       <r>   14.5358    0.0000 </r>
       <r>   17.4108    0.0000 </r>
       <r>   20.2982    0.0000 </r>
       <r>   20.2982    0.0000 </r>
       <r>   23.5056    0.0000 </r>
       <r>   23.5056    0.0000 </r>
       <r>   23.6046    0.0000 </r>
       <r>   25.5814    0.0000 </r>
       <r>   29.6988    0.0000 </r>
       <r>   29.6988    0.0000 </r>
       <r>   32.3101    0.0000 </r>
       <r>   32.3101    0.0000 </r>
       <r>   33.5124    0.0000 </r>
       <r>   35.0381    0.0000 </r>
       <r>   35.6284    0.0000 </r>
       <r>   37.4754    0.0000 </r>
       <r>   37.4754    0.0000 </r>
       <r>   39.0957    0.0000 </r>
       <r>   39.0957    0.0000 </r>
       <r>   40.0474    0.0000 </r>
       <r>   40.0474    0.0000 </r>
       <r>   43.8748    0.0000 </r>
       <r>   43.8748    0.0000 </r>
       <r>   43.9007    0.0000 </r>
       <r>   44.3750    0.0000 </r>
       <r>   45.0125    0.0000 </r>
       <r>   46.8577    0.0000 </r>
       <r>   46.8577    0.0000 </r>
       <r>   49.0659    0.0000 </r>
       <r>   49.5159    0.0000 </r>
       <r>   49.5159    0.0000 </r>
       <r>   49.8438    0.0000 </r>
       <r>   50.1889    0.0000 </r>
       <r>   52.6555    0.0000 </r>
       <r>   52.6555    0.0000 </r>
       <r>   55.1381    0.0000 </r>
       <r>   55.1381    0.0000 </r>
       <r>   56.3170    0.0000 </r>
       <r>   56.4645    0.0000 </r>
       <r>   56.4645    0.0000 </r>
       <r>   58.1816    0.0000 </r>
       <r>   59.7693    0.0000 </r>
       <r>   62.6620    0.0000 </r>
       <r>   62.6620    0.0000 </r>
       <r>   63.1423    0.0000 </r>
       <r>   63.1423    0.0000 </r>
       <r>   63.1976    0.0000 </r>
       <r>   65.4415    0.0000 </r>
       <r>   65.4415    0.0000 </r>
       <r>   66.1350    0.0000 </r>
       <r>   67.1622    0.0000 </r>
       <r>   68.2755    0.0000 </r>
       <r>   68.2755    0.0000 </r>
       <r>   71.7188    0.0000 </r>
       <r>   71.9426    0.0000 </r>
       <r>   72.3657    0.0000 </r>
       <r>   72.3657    0.0000 </r>
       <r>   75.9055    0.0000 </r>
       <r>   75.9055    0.0000 </r>
       <r>   77.9177    0.0000 </r>
       <r>   80.6045    0.0000 </r>
       <r>   81.1835    0.0000 </r>
       <r>   81.1835    0.0000 </r>
       <r>   81.5813    0.0000 </r>
       <r>   81.8767    0.0000 </r>
       <r>   81.8767    0.0000 </r>
       <r>   83.9243    0.0000 </r>
       <r>   83.9243    0.0000 </r>
       <r>   84.2875    0.0000 </r>
       <r>   85.5608    0.0000 </r>
       <r>   85.5608    0.0000 </r>
       <r>   85.9354    0.0000 </r>
       <r>   87.4970    0.0000 </r>
       <r>   87.4970    0.0000 </r>
       <r>   88.2421    0.0000 </r>
       <r>   89.4662    0.0000 </r>
       <r>   90.3111    0.0000 </r>
       <r>   90.3111    0.0000 </r>
       <r>   90.8157    0.0000 </r>
       <r>   91.2280    0.0000 </r>
       <r>   91.2280    0.0000 </r>
       <r>   93.5944    0.0000 </r>
       <r>   94.7377    0.0000 </r>
       <r>   94.7377    0.0000 </r>
       <r>   95.2680    0.0000 </r>
       <r>   95.2680    0.0000 </r>
       <r>   95.4611    0.0000 </r>
       <r>   95.6960    0.0000 </r>
       <r>   97.5749    0.0000 </r>
       <r>   97.5749    0.0000 </r>
       <r>   98.3798    0.0000 </r>
       <r>   99.5515    0.0000 </r>
       <r>   99.5515    0.0000 </r>
       <r>  101.5945    0.0000 </r>
       <r>  101.5945    0.0000 </r>
       <r>  102.5376    0.0000 </r>
       <r>  102.5737    0.0000 </r>
       <r>  102.5737    0.0000 </r>
       <r>  103.2454    0.0000 </r>
       <r>  103.7332    0.0000 </r>
       <r>  103.7332    0.0000 </r>
       <r>  105.4609    0.0000 </r>
       <r>  105.7539    0.0000 </r>
       <r>  105.7539    0.0000 </r>
       <r>  106.0024    0.0000 </r>
       <r>  107.5365    0.0000 </r>
       <r>  108.5999    0.0000 </r>
       <r>  110.3494    0.0000 </r>
       <r>  110.3494    0.0000 </r>
       <r>  111.2087    0.0000 </r>
       <r>  111.2087    0.0000 </r>
       <r>  111.8190    0.0000 </r>
       <r>  112.6966    0.0000 </r>
       <r>  112.8833    0.0000 </r>
       <r>  112.8833    0.0000 </r>
       <r>  113.4190    0.0000 </r>
       <r>  113.8401    0.0000 </r>
       <r>  113.8401    0.0000 </r>
       <r>  114.3562    0.0000 </r>
       <r>  115.4542    0.0000 </r>
       <r>  115.4542    0.0000 </r>
       <r>  115.8596    0.0000 </r>
       <r>  116.4578    0.0000 </r>
       <r>  116.4578    0.0000 </r>
       <r>  118.0655    0.0000 </r>
       <r>  119.6061    0.0000 </r>
       <r>  119.6061    0.0000 </r>
       <r>  120.3110    0.0000 </r>
       <r>  121.1327    0.0000 </r>
       <r>  121.1327    0.0000 </r>
       <r>  121.8088    0.0000 </r>
       <r>  123.1345    0.0000 </r>
       <r>  123.1345    0.0000 </r>
       <r>  123.4114    0.0000 </r>
      </set>
      <set comment="kpoint 4">
       <r>   -4.5099    1.0000 </r>
       <r>   -0.2104    1.0000 </r>
       <r>    4.6724    1.0000 </r>
       <r>    4.6724    1.0000 </r>
       <r>    7.3457    0.0000 </r>
       <r>    9.1508    0.0000 </r>
       <r>    9.1508    0.0000 </r>
       <r>   13.4427    0.0000 </r>
       <r>   14.2815    0.0000 </r>
       <r>   14.2815    0.0000 </r>
       <r>   15.3059    0.0000 </r>
       <r>   19.4529    0.0000 </r>
       <r>   19.4529    0.0000 </r>
       <r>   19.6828    0.0000 </r>
       <r>   22.3122    0.0000 </r>
       <r>   24.1632    0.0000 </r>
       <r>   24.1632    0.0000 </r>
       <r>   28.4634    0.0000 </r>
       <r>   29.5015    0.0000 </r>
       <r>   29.5274    0.0000 </r>
       <r>   29.5274    0.0000 </r>
       <r>   32.4751    0.0000 </r>
       <r>   32.4751    0.0000 </r>
       <r>   33.9875    0.0000 </r>
       <r>   33.9875    0.0000 </r>
       <r>   35.4287    0.0000 </r>
       <r>   36.3259    0.0000 </r>
       <r>   38.1741    0.0000 </r>
       <r>   38.1741    0.0000 </r>
       <r>   39.1509    0.0000 </r>
       <r>   39.1509    0.0000 </r>
       <r>   40.2808    0.0000 </r>
       <r>   42.9211    0.0000 </r>
       <r>   43.1245    0.0000 </r>
       <r>   46.4049    0.0000 </r>
       <r>   46.4049    0.0000 </r>
       <r>   47.4476    0.0000 </r>
       <r>   47.4476    0.0000 </r>
       <r>   48.5179    0.0000 </r>
       <r>   49.5716    0.0000 </r>
       <r>   49.7251    0.0000 </r>
       <r>   49.7251    0.0000 </r>
       <r>   52.5723    0.0000 </r>
       <r>   54.4503    0.0000 </r>
       <r>   54.4503    0.0000 </r>
       <r>   56.8905    0.0000 </r>
       <r>   56.8905    0.0000 </r>
       <r>   58.5536    0.0000 </r>
       <r>   59.8731    0.0000 </r>
       <r>   60.3311    0.0000 </r>
       <r>   60.3311    0.0000 </r>
       <r>   61.7865    0.0000 </r>
       <r>   61.7865    0.0000 </r>
       <r>   63.2470    0.0000 </r>
       <r>   63.2470    0.0000 </r>
       <r>   64.4445    0.0000 </r>
       <r>   64.6723    0.0000 </r>
       <r>   66.2367    0.0000 </r>
       <r>   66.9820    0.0000 </r>
       <r>   66.9959    0.0000 </r>
       <r>   66.9959    0.0000 </r>
       <r>   68.3119    0.0000 </r>
       <r>   68.3119    0.0000 </r>
       <r>   69.9926    0.0000 </r>
       <r>   69.9926    0.0000 </r>
       <r>   71.7006    0.0000 </r>
       <r>   71.8980    0.0000 </r>
       <r>   71.8980    0.0000 </r>
       <r>   74.3185    0.0000 </r>
       <r>   75.7183    0.0000 </r>
       <r>   76.2026    0.0000 </r>
       <r>   77.6456    0.0000 </r>
       <r>   77.6456    0.0000 </r>
       <r>   79.8254    0.0000 </r>
       <r>   79.8254    0.0000 </r>
       <r>   80.0843    0.0000 </r>
       <r>   82.4095    0.0000 </r>
       <r>   82.5671    0.0000 </r>
       <r>   83.0806    0.0000 </r>
       <r>   83.0806    0.0000 </r>
       <r>   85.7310    0.0000 </r>
       <r>   85.7310    0.0000 </r>
       <r>   87.1668    0.0000 </r>
       <r>   87.1668    0.0000 </r>
       <r>   89.8503    0.0000 </r>
       <r>   90.0508    0.0000 </r>
       <r>   90.2101    0.0000 </r>
       <r>   90.2101    0.0000 </r>
       <r>   90.7119    0.0000 </r>
       <r>   90.7119    0.0000 </r>
       <r>   92.4451    0.0000 </r>
       <r>   93.0140    0.0000 </r>
       <r>   93.0140    0.0000 </r>
       <r>   93.2004    0.0000 </r>
       <r>   95.6349    0.0000 </r>
       <r>   95.6349    0.0000 </r>
       <r>   95.8069    0.0000 </r>
       <r>   96.2799    0.0000 </r>
       <r>   98.4468    0.0000 </r>
       <r>   98.4468    0.0000 </r>
       <r>   99.4338    0.0000 </r>
       <r>  100.6596    0.0000 </r>
       <r>  100.6596    0.0000 </r>
       <r>  101.8212    0.0000 </r>
       <r>  101.9530    0.0000 </r>
       <r>  102.5715    0.0000 </r>
       <r>  102.5715    0.0000 </r>
       <r>  104.5007    0.0000 </r>
       <r>  104.5007    0.0000 </r>
       <r>  104.5126    0.0000 </r>
       <r>  105.5403    0.0000 </r>
       <r>  105.5403    0.0000 </r>
       <r>  106.7860    0.0000 </r>
       <r>  106.7860    0.0000 </r>
       <r>  106.7955    0.0000 </r>
       <r>  107.4482    0.0000 </r>
       <r>  109.4605    0.0000 </r>
       <r>  110.0671    0.0000 </r>
       <r>  110.4664    0.0000 </r>
       <r>  110.4664    0.0000 </r>
       <r>  112.1767    0.0000 </r>
       <r>  112.1767    0.0000 </r>
       <r>  112.3574    0.0000 </r>
       <r>  113.2874    0.0000 </r>
       <r>  113.2874    0.0000 </r>
       <r>  114.0477    0.0000 </r>
       <r>  114.0528    0.0000 </r>
       <r>  114.0528    0.0000 </r>
       <r>  115.3066    0.0000 </r>
       <r>  116.1346    0.0000 </r>
       <r>  116.1346    0.0000 </r>
       <r>  116.1840    0.0000 </r>
       <r>  118.8121    0.0000 </r>
       <r>  118.8121    0.0000 </r>
       <r>  119.9467    0.0000 </r>
       <r>  119.9467    0.0000 </r>
       <r>  120.9376    0.0000 </r>
       <r>  121.2502    0.0000 </r>
       <r>  121.3589    0.0000 </r>
       <r>  121.3589    0.0000 </r>
       <r>  121.5984    0.0000 </r>
       <r>  122.1569    0.0000 </r>
       <r>  122.8042    0.0000 </r>
       <r>  122.8042    0.0000 </r>
      </set>
      <set comment="kpoint 5">
       <r>   -3.8658    1.0000 </r>
       <r>   -1.2395    1.0000 </r>
       <r>    4.5611    1.0000 </r>
       <r>    4.5611    1.0000 </r>
       <r>    7.2171    0.0000 </r>
       <r>    9.0356    0.0000 </r>
       <r>    9.0356    0.0000 </r>
       <r>   13.2712    0.0000 </r>
       <r>   16.2642    0.0000 </r>
       <r>   16.2642    0.0000 </r>
       <r>   16.9591    0.0000 </r>
       <r>   17.0227    0.0000 </r>
       <r>   17.0227    0.0000 </r>
       <r>   18.6577    0.0000 </r>
       <r>   24.9999    0.0000 </r>
       <r>   25.5823    0.0000 </r>
       <r>   27.2465    0.0000 </r>
       <r>   27.2465    0.0000 </r>
       <r>   27.4837    0.0000 </r>
       <r>   27.4837    0.0000 </r>
       <r>   31.2106    0.0000 </r>
       <r>   32.0796    0.0000 </r>
       <r>   32.0796    0.0000 </r>
       <r>   33.1244    0.0000 </r>
       <r>   33.1244    0.0000 </r>
       <r>   33.8423    0.0000 </r>
       <r>   36.7147    0.0000 </r>
       <r>   37.9528    0.0000 </r>
       <r>   37.9528    0.0000 </r>
       <r>   38.4972    0.0000 </r>
       <r>   38.4972    0.0000 </r>
       <r>   39.5039    0.0000 </r>
       <r>   42.0666    0.0000 </r>
       <r>   42.3073    0.0000 </r>
       <r>   46.4125    0.0000 </r>
       <r>   46.4125    0.0000 </r>
       <r>   48.2717    0.0000 </r>
       <r>   48.2717    0.0000 </r>
       <r>   48.3884    0.0000 </r>
       <r>   49.4365    0.0000 </r>
       <r>   52.2308    0.0000 </r>
       <r>   52.2308    0.0000 </r>
       <r>   54.0161    0.0000 </r>
       <r>   54.0161    0.0000 </r>
       <r>   54.8008    0.0000 </r>
       <r>   58.0894    0.0000 </r>
       <r>   58.2407    0.0000 </r>
       <r>   58.2407    0.0000 </r>
       <r>   59.6022    0.0000 </r>
       <r>   59.6022    0.0000 </r>
       <r>   59.6846    0.0000 </r>
       <r>   61.4967    0.0000 </r>
       <r>   61.4967    0.0000 </r>
       <r>   64.0355    0.0000 </r>
       <r>   64.0355    0.0000 </r>
       <r>   64.8089    0.0000 </r>
       <r>   65.2238    0.0000 </r>
       <r>   65.2238    0.0000 </r>
       <r>   66.8819    0.0000 </r>
       <r>   68.0246    0.0000 </r>
       <r>   68.0246    0.0000 </r>
       <r>   68.4111    0.0000 </r>
       <r>   69.6646    0.0000 </r>
       <r>   70.4097    0.0000 </r>
       <r>   71.6687    0.0000 </r>
       <r>   71.6687    0.0000 </r>
       <r>   72.8030    0.0000 </r>
       <r>   73.1537    0.0000 </r>
       <r>   73.1537    0.0000 </r>
       <r>   73.4105    0.0000 </r>
       <r>   75.0461    0.0000 </r>
       <r>   76.8432    0.0000 </r>
       <r>   77.3613    0.0000 </r>
       <r>   77.3613    0.0000 </r>
       <r>   77.7346    0.0000 </r>
       <r>   77.7346    0.0000 </r>
       <r>   80.0803    0.0000 </r>
       <r>   80.0803    0.0000 </r>
       <r>   82.3021    0.0000 </r>
       <r>   83.0489    0.0000 </r>
       <r>   83.0489    0.0000 </r>
       <r>   86.9613    0.0000 </r>
       <r>   87.5224    0.0000 </r>
       <r>   87.5224    0.0000 </r>
       <r>   88.4868    0.0000 </r>
       <r>   90.0682    0.0000 </r>
       <r>   90.0682    0.0000 </r>
       <r>   90.2159    0.0000 </r>
       <r>   91.3489    0.0000 </r>
       <r>   92.7618    0.0000 </r>
       <r>   92.7618    0.0000 </r>
       <r>   95.1895    0.0000 </r>
       <r>   95.3599    0.0000 </r>
       <r>   95.3599    0.0000 </r>
       <r>   95.4954    0.0000 </r>
       <r>   95.4954    0.0000 </r>
       <r>   95.8484    0.0000 </r>
       <r>   97.3970    0.0000 </r>
       <r>   97.7938    0.0000 </r>
       <r>   98.4893    0.0000 </r>
       <r>   98.4893    0.0000 </r>
       <r>   99.4344    0.0000 </r>
       <r>   99.4344    0.0000 </r>
       <r>   99.5999    0.0000 </r>
       <r>   99.7644    0.0000 </r>
       <r>   99.8618    0.0000 </r>
       <r>   99.8618    0.0000 </r>
       <r>  105.3864    0.0000 </r>
       <r>  105.7899    0.0000 </r>
       <r>  105.7899    0.0000 </r>
       <r>  107.6051    0.0000 </r>
       <r>  108.0181    0.0000 </r>
       <r>  108.0181    0.0000 </r>
       <r>  108.4704    0.0000 </r>
       <r>  108.9422    0.0000 </r>
       <r>  108.9422    0.0000 </r>
       <r>  110.1876    0.0000 </r>
       <r>  110.1876    0.0000 </r>
       <r>  110.5005    0.0000 </r>
       <r>  111.0765    0.0000 </r>
       <r>  111.4647    0.0000 </r>
       <r>  111.4647    0.0000 </r>
       <r>  112.6405    0.0000 </r>
       <r>  112.6405    0.0000 </r>
       <r>  112.7296    0.0000 </r>
       <r>  113.3962    0.0000 </r>
       <r>  113.8672    0.0000 </r>
       <r>  113.8672    0.0000 </r>
       <r>  114.2481    0.0000 </r>
       <r>  116.1914    0.0000 </r>
       <r>  116.1914    0.0000 </r>
       <r>  116.5995    0.0000 </r>
       <r>  119.0627    0.0000 </r>
       <r>  119.0627    0.0000 </r>
       <r>  119.1163    0.0000 </r>
       <r>  119.8844    0.0000 </r>
       <r>  120.9911    0.0000 </r>
       <r>  121.4029    0.0000 </r>
       <r>  121.4029    0.0000 </r>
       <r>  121.7399    0.0000 </r>
       <r>  121.8777    0.0000 </r>
       <r>  121.8777    0.0000 </r>
       <r>  122.2232    0.0000 </r>
       <r>  122.2232    0.0000 </r>
      </set>
      <set comment="kpoint 6">
       <r>   -5.9351    1.0000 </r>
       <r>    4.4228    1.0000 </r>
       <r>    4.9464    1.0000 </r>
       <r>    4.9464    1.0000 </r>
       <r>    7.7031    0.0000 </r>
       <r>    9.4251    0.0000 </r>
       <r>    9.4251    0.0000 </r>
       <r>   10.0868    0.0000 </r>
       <r>   12.1927    0.0000 </r>
       <r>   13.7502    0.0000 </r>
       <r>   14.5680    0.0000 </r>
       <r>   17.3255    0.0000 </r>
       <r>   17.3255    0.0000 </r>
       <r>   17.8026    0.0000 </r>
       <r>   22.7035    0.0000 </r>
       <r>   26.2371    0.0000 </r>
       <r>   26.2371    0.0000 </r>
       <r>   27.5212    0.0000 </r>
       <r>   28.3407    0.0000 </r>
       <r>   29.0833    0.0000 </r>
       <r>   32.1760    0.0000 </r>
       <r>   32.5354    0.0000 </r>
       <r>   32.5354    0.0000 </r>
       <r>   36.8831    0.0000 </r>
       <r>   36.8831    0.0000 </r>
       <r>   37.4015    0.0000 </r>
       <r>   38.7303    0.0000 </r>
       <r>   38.7303    0.0000 </r>
       <r>   38.8160    0.0000 </r>
       <r>   41.0095    0.0000 </r>
       <r>   42.7534    0.0000 </r>
       <r>   43.7027    0.0000 </r>
       <r>   45.2753    0.0000 </r>
       <r>   46.0136    0.0000 </r>
       <r>   46.1682    0.0000 </r>
       <r>   46.1682    0.0000 </r>
       <r>   47.4110    0.0000 </r>
       <r>   47.7670    0.0000 </r>
       <r>   47.7670    0.0000 </r>
       <r>   49.1825    0.0000 </r>
       <r>   49.1825    0.0000 </r>
       <r>   50.2633    0.0000 </r>
       <r>   51.8316    0.0000 </r>
       <r>   52.0487    0.0000 </r>
       <r>   52.8693    0.0000 </r>
       <r>   52.8693    0.0000 </r>
       <r>   53.3257    0.0000 </r>
       <r>   53.7741    0.0000 </r>
       <r>   53.7741    0.0000 </r>
       <r>   54.2592    0.0000 </r>
       <r>   54.3053    0.0000 </r>
       <r>   56.5935    0.0000 </r>
       <r>   57.0372    0.0000 </r>
       <r>   57.0372    0.0000 </r>
       <r>   60.4113    0.0000 </r>
       <r>   62.3366    0.0000 </r>
       <r>   62.3366    0.0000 </r>
       <r>   64.4654    0.0000 </r>
       <r>   64.9005    0.0000 </r>
       <r>   65.5515    0.0000 </r>
       <r>   72.1703    0.0000 </r>
       <r>   72.6883    0.0000 </r>
       <r>   72.6883    0.0000 </r>
       <r>   73.7885    0.0000 </r>
       <r>   75.8274    0.0000 </r>
       <r>   76.0212    0.0000 </r>
       <r>   76.0881    0.0000 </r>
       <r>   76.0881    0.0000 </r>
       <r>   77.3068    0.0000 </r>
       <r>   77.3068    0.0000 </r>
       <r>   77.4056    0.0000 </r>
       <r>   77.9047    0.0000 </r>
       <r>   81.6695    0.0000 </r>
       <r>   83.7010    0.0000 </r>
       <r>   83.7010    0.0000 </r>
       <r>   84.3023    0.0000 </r>
       <r>   84.6511    0.0000 </r>
       <r>   85.4553    0.0000 </r>
       <r>   85.7524    0.0000 </r>
       <r>   86.9443    0.0000 </r>
       <r>   86.9443    0.0000 </r>
       <r>   87.3130    0.0000 </r>
       <r>   87.3130    0.0000 </r>
       <r>   89.2650    0.0000 </r>
       <r>   89.4296    0.0000 </r>
       <r>   90.3506    0.0000 </r>
       <r>   90.3506    0.0000 </r>
       <r>   91.5534    0.0000 </r>
       <r>   91.6458    0.0000 </r>
       <r>   91.9144    0.0000 </r>
       <r>   92.0850    0.0000 </r>
       <r>   92.0850    0.0000 </r>
       <r>   94.1547    0.0000 </r>
       <r>   94.1547    0.0000 </r>
       <r>   95.2641    0.0000 </r>
       <r>   95.9500    0.0000 </r>
       <r>   95.9500    0.0000 </r>
       <r>   95.9881    0.0000 </r>
       <r>   96.4562    0.0000 </r>
       <r>   96.7292    0.0000 </r>
       <r>   98.3421    0.0000 </r>
       <r>   99.0165    0.0000 </r>
       <r>   99.0293    0.0000 </r>
       <r>   99.0338    0.0000 </r>
       <r>   99.0338    0.0000 </r>
       <r>  101.4797    0.0000 </r>
       <r>  101.5869    0.0000 </r>
       <r>  101.5869    0.0000 </r>
       <r>  102.7542    0.0000 </r>
       <r>  102.9368    0.0000 </r>
       <r>  102.9368    0.0000 </r>
       <r>  103.4587    0.0000 </r>
       <r>  103.6372    0.0000 </r>
       <r>  106.3880    0.0000 </r>
       <r>  106.5971    0.0000 </r>
       <r>  106.5971    0.0000 </r>
       <r>  107.7068    0.0000 </r>
       <r>  108.1480    0.0000 </r>
       <r>  108.1480    0.0000 </r>
       <r>  108.2974    0.0000 </r>
       <r>  109.0872    0.0000 </r>
       <r>  109.1610    0.0000 </r>
       <r>  109.5300    0.0000 </r>
       <r>  109.5300    0.0000 </r>
       <r>  110.9947    0.0000 </r>
       <r>  113.6938    0.0000 </r>
       <r>  115.5593    0.0000 </r>
       <r>  115.5593    0.0000 </r>
       <r>  115.7281    0.0000 </r>
       <r>  116.4883    0.0000 </r>
       <r>  116.8521    0.0000 </r>
       <r>  117.4117    0.0000 </r>
       <r>  119.2149    0.0000 </r>
       <r>  119.2149    0.0000 </r>
       <r>  119.4437    0.0000 </r>
       <r>  119.4437    0.0000 </r>
       <r>  120.5919    0.0000 </r>
       <r>  121.0893    0.0000 </r>
       <r>  121.9827    0.0000 </r>
       <r>  122.3252    0.0000 </r>
       <r>  122.3252    0.0000 </r>
       <r>  123.3332    0.0000 </r>
       <r>  123.3773    0.0000 </r>
       <r>  123.3773    0.0000 </r>
      </set>
      <set comment="kpoint 7">
       <r>   -5.4656    1.0000 </r>
       <r>    2.5254    1.0000 </r>
       <r>    4.4330    1.0000 </r>
       <r>    4.5060    1.0000 </r>
       <r>    7.8358    0.0000 </r>
       <r>    9.4173    0.0000 </r>
       <r>   10.1866    0.0000 </r>
       <r>   10.4186    0.0000 </r>
       <r>   13.1969    0.0000 </r>
       <r>   13.9017    0.0000 </r>
       <r>   15.5770    0.0000 </r>
       <r>   17.1623    0.0000 </r>
       <r>   18.7715    0.0000 </r>
       <r>   20.0286    0.0000 </r>
       <r>   23.2475    0.0000 </r>
       <r>   23.7271    0.0000 </r>
       <r>   24.8063    0.0000 </r>
       <r>   27.2123    0.0000 </r>
       <r>   27.2419    0.0000 </r>
       <r>   28.6755    0.0000 </r>
       <r>   31.9187    0.0000 </r>
       <r>   32.9266    0.0000 </r>
       <r>   33.9120    0.0000 </r>
       <r>   35.4404    0.0000 </r>
       <r>   37.0476    0.0000 </r>
       <r>   37.4309    0.0000 </r>
       <r>   37.6961    0.0000 </r>
       <r>   38.5902    0.0000 </r>
       <r>   39.1129    0.0000 </r>
       <r>   39.8497    0.0000 </r>
       <r>   41.4267    0.0000 </r>
       <r>   41.4499    0.0000 </r>
       <r>   43.9549    0.0000 </r>
       <r>   44.3804    0.0000 </r>
       <r>   45.7602    0.0000 </r>
       <r>   45.7778    0.0000 </r>
       <r>   46.2158    0.0000 </r>
       <r>   47.6246    0.0000 </r>
       <r>   48.9975    0.0000 </r>
       <r>   49.1763    0.0000 </r>
       <r>   50.2127    0.0000 </r>
       <r>   50.2762    0.0000 </r>
       <r>   50.8210    0.0000 </r>
       <r>   51.3870    0.0000 </r>
       <r>   52.7724    0.0000 </r>
       <r>   53.5463    0.0000 </r>
       <r>   54.7169    0.0000 </r>
       <r>   54.9780    0.0000 </r>
       <r>   55.9399    0.0000 </r>
       <r>   56.5564    0.0000 </r>
       <r>   58.5130    0.0000 </r>
       <r>   59.0656    0.0000 </r>
       <r>   60.6033    0.0000 </r>
       <r>   61.3966    0.0000 </r>
       <r>   61.6415    0.0000 </r>
       <r>   62.5652    0.0000 </r>
       <r>   64.4640    0.0000 </r>
       <r>   65.5168    0.0000 </r>
       <r>   66.8372    0.0000 </r>
       <r>   68.0918    0.0000 </r>
       <r>   68.7837    0.0000 </r>
       <r>   69.6401    0.0000 </r>
       <r>   69.7205    0.0000 </r>
       <r>   71.6264    0.0000 </r>
       <r>   71.7368    0.0000 </r>
       <r>   73.6321    0.0000 </r>
       <r>   74.3280    0.0000 </r>
       <r>   74.4344    0.0000 </r>
       <r>   76.1336    0.0000 </r>
       <r>   77.0158    0.0000 </r>
       <r>   79.0656    0.0000 </r>
       <r>   79.6709    0.0000 </r>
       <r>   80.0924    0.0000 </r>
       <r>   80.9015    0.0000 </r>
       <r>   81.4135    0.0000 </r>
       <r>   82.7565    0.0000 </r>
       <r>   83.5185    0.0000 </r>
       <r>   84.0815    0.0000 </r>
       <r>   84.5116    0.0000 </r>
       <r>   84.7360    0.0000 </r>
       <r>   86.0233    0.0000 </r>
       <r>   86.6203    0.0000 </r>
       <r>   87.3587    0.0000 </r>
       <r>   87.9214    0.0000 </r>
       <r>   88.9298    0.0000 </r>
       <r>   89.4095    0.0000 </r>
       <r>   90.0561    0.0000 </r>
       <r>   91.1783    0.0000 </r>
       <r>   91.5480    0.0000 </r>
       <r>   91.7392    0.0000 </r>
       <r>   92.9972    0.0000 </r>
       <r>   93.5704    0.0000 </r>
       <r>   93.7781    0.0000 </r>
       <r>   94.7337    0.0000 </r>
       <r>   94.9035    0.0000 </r>
       <r>   95.6035    0.0000 </r>
       <r>   96.3010    0.0000 </r>
       <r>   97.3684    0.0000 </r>
       <r>   97.9826    0.0000 </r>
       <r>   98.1842    0.0000 </r>
       <r>   98.2716    0.0000 </r>
       <r>   98.9833    0.0000 </r>
       <r>   99.1686    0.0000 </r>
       <r>  100.7353    0.0000 </r>
       <r>  101.3534    0.0000 </r>
       <r>  101.5281    0.0000 </r>
       <r>  101.9420    0.0000 </r>
       <r>  102.2141    0.0000 </r>
       <r>  102.7204    0.0000 </r>
       <r>  102.9055    0.0000 </r>
       <r>  103.4630    0.0000 </r>
       <r>  104.0082    0.0000 </r>
       <r>  105.4847    0.0000 </r>
       <r>  106.5235    0.0000 </r>
       <r>  106.6256    0.0000 </r>
       <r>  108.1640    0.0000 </r>
       <r>  108.6344    0.0000 </r>
       <r>  108.8119    0.0000 </r>
       <r>  109.8287    0.0000 </r>
       <r>  110.0696    0.0000 </r>
       <r>  110.1917    0.0000 </r>
       <r>  110.8340    0.0000 </r>
       <r>  111.5535    0.0000 </r>
       <r>  112.0949    0.0000 </r>
       <r>  112.5098    0.0000 </r>
       <r>  113.3801    0.0000 </r>
       <r>  113.5623    0.0000 </r>
       <r>  113.9598    0.0000 </r>
       <r>  114.3687    0.0000 </r>
       <r>  114.9443    0.0000 </r>
       <r>  115.9651    0.0000 </r>
       <r>  116.2598    0.0000 </r>
       <r>  117.2638    0.0000 </r>
       <r>  117.8178    0.0000 </r>
       <r>  118.4547    0.0000 </r>
       <r>  119.0513    0.0000 </r>
       <r>  119.5538    0.0000 </r>
       <r>  119.7349    0.0000 </r>
       <r>  120.7531    0.0000 </r>
       <r>  121.3609    0.0000 </r>
       <r>  122.7990    0.0000 </r>
       <r>  123.3308    0.0000 </r>
       <r>  123.5010    0.0000 </r>
       <r>  124.8040    0.0000 </r>
      </set>
      <set comment="kpoint 8">
       <r>   -4.6483    1.0000 </r>
       <r>    0.4582    1.0000 </r>
       <r>    3.9100    1.0000 </r>
       <r>    4.1661    1.0000 </r>
       <r>    7.9279    0.0000 </r>
       <r>    9.3414    0.0000 </r>
       <r>   10.1718    0.0000 </r>
       <r>   11.1362    0.0000 </r>
       <r>   14.9544    0.0000 </r>
       <r>   15.0279    0.0000 </r>
       <r>   15.5879    0.0000 </r>
       <r>   19.0525    0.0000 </r>
       <r>   19.0994    0.0000 </r>
       <r>   20.8566    0.0000 </r>
       <r>   22.2888    0.0000 </r>
       <r>   23.2929    0.0000 </r>
       <r>   24.2344    0.0000 </r>
       <r>   27.5574    0.0000 </r>
       <r>   28.1894    0.0000 </r>
       <r>   29.1718    0.0000 </r>
       <r>   30.3798    0.0000 </r>
       <r>   31.2179    0.0000 </r>
       <r>   33.1900    0.0000 </r>
       <r>   34.6764    0.0000 </r>
       <r>   35.7782    0.0000 </r>
       <r>   35.9019    0.0000 </r>
       <r>   36.1274    0.0000 </r>
       <r>   37.3258    0.0000 </r>
       <r>   38.4103    0.0000 </r>
       <r>   38.8334    0.0000 </r>
       <r>   40.4602    0.0000 </r>
       <r>   41.8001    0.0000 </r>
       <r>   43.4105    0.0000 </r>
       <r>   43.4178    0.0000 </r>
       <r>   44.6876    0.0000 </r>
       <r>   45.1323    0.0000 </r>
       <r>   47.8126    0.0000 </r>
       <r>   48.0972    0.0000 </r>
       <r>   48.3493    0.0000 </r>
       <r>   49.7734    0.0000 </r>
       <r>   50.7985    0.0000 </r>
       <r>   51.0548    0.0000 </r>
       <r>   52.2592    0.0000 </r>
       <r>   52.5088    0.0000 </r>
       <r>   54.6377    0.0000 </r>
       <r>   55.0133    0.0000 </r>
       <r>   55.2893    0.0000 </r>
       <r>   57.4744    0.0000 </r>
       <r>   57.6596    0.0000 </r>
       <r>   59.6736    0.0000 </r>
       <r>   61.1645    0.0000 </r>
       <r>   61.6002    0.0000 </r>
       <r>   62.5561    0.0000 </r>
       <r>   63.0861    0.0000 </r>
       <r>   64.4967    0.0000 </r>
       <r>   64.7030    0.0000 </r>
       <r>   65.7576    0.0000 </r>
       <r>   66.0406    0.0000 </r>
       <r>   66.4386    0.0000 </r>
       <r>   67.3430    0.0000 </r>
       <r>   67.5786    0.0000 </r>
       <r>   68.3588    0.0000 </r>
       <r>   69.0311    0.0000 </r>
       <r>   70.1721    0.0000 </r>
       <r>   70.7969    0.0000 </r>
       <r>   71.5895    0.0000 </r>
       <r>   72.0330    0.0000 </r>
       <r>   72.5925    0.0000 </r>
       <r>   73.9409    0.0000 </r>
       <r>   75.2664    0.0000 </r>
       <r>   77.4196    0.0000 </r>
       <r>   77.9565    0.0000 </r>
       <r>   78.0347    0.0000 </r>
       <r>   79.7584    0.0000 </r>
       <r>   80.4747    0.0000 </r>
       <r>   81.0740    0.0000 </r>
       <r>   81.3175    0.0000 </r>
       <r>   82.8562    0.0000 </r>
       <r>   84.0059    0.0000 </r>
       <r>   84.1566    0.0000 </r>
       <r>   85.5363    0.0000 </r>
       <r>   85.6225    0.0000 </r>
       <r>   86.4871    0.0000 </r>
       <r>   86.6122    0.0000 </r>
       <r>   87.3269    0.0000 </r>
       <r>   88.6457    0.0000 </r>
       <r>   88.8122    0.0000 </r>
       <r>   90.3397    0.0000 </r>
       <r>   90.8809    0.0000 </r>
       <r>   91.6608    0.0000 </r>
       <r>   91.8670    0.0000 </r>
       <r>   93.5994    0.0000 </r>
       <r>   93.9779    0.0000 </r>
       <r>   95.0998    0.0000 </r>
       <r>   95.1569    0.0000 </r>
       <r>   96.3639    0.0000 </r>
       <r>   96.6212    0.0000 </r>
       <r>   97.3623    0.0000 </r>
       <r>   97.5759    0.0000 </r>
       <r>   97.7279    0.0000 </r>
       <r>   98.7943    0.0000 </r>
       <r>   99.8422    0.0000 </r>
       <r>  100.2775    0.0000 </r>
       <r>  101.4108    0.0000 </r>
       <r>  101.7306    0.0000 </r>
       <r>  102.3082    0.0000 </r>
       <r>  102.7147    0.0000 </r>
       <r>  102.9620    0.0000 </r>
       <r>  103.7629    0.0000 </r>
       <r>  104.3441    0.0000 </r>
       <r>  105.2346    0.0000 </r>
       <r>  105.2796    0.0000 </r>
       <r>  106.3266    0.0000 </r>
       <r>  107.2315    0.0000 </r>
       <r>  107.4186    0.0000 </r>
       <r>  108.7960    0.0000 </r>
       <r>  108.8989    0.0000 </r>
       <r>  109.6749    0.0000 </r>
       <r>  109.6919    0.0000 </r>
       <r>  110.8339    0.0000 </r>
       <r>  111.1581    0.0000 </r>
       <r>  111.8267    0.0000 </r>
       <r>  112.0309    0.0000 </r>
       <r>  112.7609    0.0000 </r>
       <r>  113.1037    0.0000 </r>
       <r>  113.2584    0.0000 </r>
       <r>  114.0929    0.0000 </r>
       <r>  115.6592    0.0000 </r>
       <r>  116.3506    0.0000 </r>
       <r>  116.3946    0.0000 </r>
       <r>  116.9404    0.0000 </r>
       <r>  117.4982    0.0000 </r>
       <r>  117.9310    0.0000 </r>
       <r>  117.9329    0.0000 </r>
       <r>  118.5771    0.0000 </r>
       <r>  118.8111    0.0000 </r>
[...]
        <r>  0.0674  0.0000  0.0261  0.0261  0.0000  0.0000  0.0000  0.0000  0.0000 </r>
       </set>
       <set comment="band 60">
        <r>  0.0674  0.0000  0.0261  0.0261  0.0000  0.0000  0.0000  0.0000  0.0000 </r>
        <r>  0.0668  0.0000  0.0264  0.0264  0.0000  0.0000  0.0000  0.0000  0.0000 </r>
       </set>
       <set comment="band 61">
        <r>  0.0000  0.0009  0.0095  0.0095  0.0000  0.0000  0.0000  0.0000  0.0000 </r>
        <r>  0.0000  0.0009  0.0095  0.0095  0.0000  0.0000  0.0000  0.0000  0.0000 </r>
       </set>
       <set comment="band 62">
        <r>  0.0000  0.0009  0.0095  0.0095  0.0000  0.0000  0.0000  0.0000  0.0000 </r>
        <r>  0.0000  0.0009  0.0095  0.0095  0.0000  0.0000  0.0000  0.0000  0.0000 </r>
       </set>
       <set comment="band 63">
        <r>  0.0003  0.0000  0.0178  0.0178  0.0000  0.0000  0.0000  0.0000  0.0000 </r>
        <r>  0.0003  0.0000  0.0178  0.0178  0.0000  0.0000  0.0000  0.0000  0.0000 </r>
       </set>
       <set comment="band 64">
        <r>  0.0003  0.0000  0.0178  0.0178  0.0000  0.0000  0.0000  0.0000  0.0000 </r>
        <r>  0.0003  0.0000  0.0178  0.0178  0.0000  0.0000  0.0000  0.0000  0.0000 </r>
       </set>
       <set comment="band 65">
        <r>  0.0000  0.0787  0.0167  0.0167  0.0000  0.0000  0.0000  0.0000  0.0000 </r>
        <r>  0.0000  0.0748  0.0176  0.0176  0.0000  0.0000  0.0000  0.0000  0.0000 </r>
       </set>
       <set comment="band 66">
        <r>  0.0000  0.0748  0.0176  0.0176  0.0000  0.0000  0.0000  0.0000  0.0000 </r>
        <r>  0.0000  0.0787  0.0167  0.0167  0.0000  0.0000  0.0000  0.0000  0.0000 </r>
       </set>
       <set comment="band 67">
        <r>  0.0530  0.0000  0.0003  0.0003  0.0000  0.0000  0.0000  0.0000  0.0000 </r>
        <r>  0.0539  0.0000  0.0003  0.0003  0.0000  0.0000  0.0000  0.0000  0.0000 </r>
       </set>
       <set comment="band 68">
        <r>  0.0539  0.0000  0.0003  0.0003  0.0000  0.0000  0.0000  0.0000  0.0000 </r>
        <r>  0.0530  0.0000  0.0003  0.0003  0.0000  0.0000  0.0000  0.0000  0.0000 </r>
       </set>
       <set comment="band 69">
        <r>  0.0000  0.0385  0.0091  0.0091  0.0000  0.0000  0.0000  0.0000  0.0000 </r>
        <r>  0.0000  0.0385  0.0091  0.0091  0.0000  0.0000  0.0000  0.0000  0.0000 </r>
       </set>
       <set comment="band 70">
        <r>  0.0000  0.0385  0.0091  0.0091  0.0000  0.0000  0.0000  0.0000  0.0000 </r>
        <r>  0.0000  0.0385  0.0091  0.0091  0.0000  0.0000  0.0000  0.0000  0.0000 </r>
       </set>
       <set comment="band 71">
        <r>  0.0033  0.0000  0.0111  0.0111  0.0000  0.0000  0.0000  0.0000  0.0000 </r>
        <r>  0.0033  0.0000  0.0111  0.0111  0.0000  0.0000  0.0000  0.0000  0.0000 </r>
       </set>
       <set comment="band 72">
        <r>  0.0033  0.0000  0.0111  0.0111  0.0000  0.0000  0.0000  0.0000  0.0000 </r>
        <r>  0.0033  0.0000  0.0111  0.0111  0.0000  0.0000  0.0000  0.0000  0.0000 </r>
       </set>
       <set comment="band 73">
        <r>  0.0000  0.0000  0.0004  0.0004  0.0000  0.0000  0.0000  0.0000  0.0000 </r>
        <r>  0.0000  0.0000  0.0004  0.0004  0.0000  0.0000  0.0000  0.0000  0.0000 </r>
       </set>
       <set comment="band 74">
        <r>  0.0000  0.0000  0.0004  0.0004  0.0000  0.0000  0.0000  0.0000  0.0000 </r>
        <r>  0.0000  0.0000  0.0004  0.0004  0.0000  0.0000  0.0000  0.0000  0.0000 </r>
       </set>
       <set comment="band 75">
        <r>  0.0414  0.0000  0.0002  0.0002  0.0000  0.0000  0.0000  0.0000  0.0000 </r>
        <r>  0.0422  0.0000  0.0002  0.0002  0.0000  0.0000  0.0000  0.0000  0.0000 </r>
       </set>
       <set comment="band 76">
        <r>  0.0422  0.0000  0.0002  0.0002  0.0000  0.0000  0.0000  0.0000  0.0000 </r>
        <r>  0.0414  0.0000  0.0002  0.0002  0.0000  0.0000  0.0000  0.0000  0.0000 </r>
       </set>
       <set comment="band 77">
        <r>  0.0000  0.0611  0.0027  0.0027  0.0000  0.0000  0.0000  0.0000  0.0000 </r>
        <r>  0.0000  0.0610  0.0027  0.0027  0.0000  0.0000  0.0000  0.0000  0.0000 </r>
       </set>
       <set comment="band 78">
        <r>  0.0000  0.0610  0.0027  0.0027  0.0000  0.0000  0.0000  0.0000  0.0000 </r>
        <r>  0.0000  0.0611  0.0027  0.0027  0.0000  0.0000  0.0000  0.0000  0.0000 </r>
       </set>
       <set comment="band 79">
        <r>  0.0007  0.0000  0.0236  0.0236  0.0000  0.0000  0.0000  0.0000  0.0000 </r>
        <r>  0.0007  0.0000  0.0236  0.0236  0.0000  0.0000  0.0000  0.0000  0.0000 </r>
       </set>
       <set comment="band 80">
        <r>  0.0007  0.0000  0.0236  0.0236  0.0000  0.0000  0.0000  0.0000  0.0000 </r>
        <r>  0.0007  0.0000  0.0236  0.0236  0.0000  0.0000  0.0000  0.0000  0.0000 </r>
       </set>
       <set comment="band 81">
        <r>  0.0000  0.0147  0.0471  0.0471  0.0000  0.0000  0.0000  0.0000  0.0000 </r>
        <r>  0.0000  0.0147  0.0470  0.0470  0.0000  0.0000  0.0000  0.0000  0.0000 </r>
       </set>
       <set comment="band 82">
        <r>  0.0000  0.0147  0.0470  0.0470  0.0000  0.0000  0.0000  0.0000  0.0000 </r>
        <r>  0.0000  0.0147  0.0471  0.0471  0.0000  0.0000  0.0000  0.0000  0.0000 </r>
       </set>
       <set comment="band 83">
        <r>  0.0878  0.0000  0.0055  0.0055  0.0000  0.0000  0.0000  0.0000  0.0000 </r>
        <r>  0.0881  0.0000  0.0055  0.0055  0.0000  0.0000  0.0000  0.0000  0.0000 </r>
       </set>
       <set comment="band 84">
        <r>  0.0881  0.0000  0.0055  0.0055  0.0000  0.0000  0.0000  0.0000  0.0000 </r>
        <r>  0.0878  0.0000  0.0055  0.0055  0.0000  0.0000  0.0000  0.0000  0.0000 </r>
       </set>
       <set comment="band 85">
        <r>  0.0000  0.0011  0.0019  0.0019  0.0000  0.0000  0.0000  0.0000  0.0000 </r>
        <r>  0.0000  0.0011  0.0019  0.0019  0.0000  0.0000  0.0000  0.0000  0.0000 </r>
       </set>
       <set comment="band 86">
        <r>  0.0000  0.0011  0.0019  0.0019  0.0000  0.0000  0.0000  0.0000  0.0000 </r>
        <r>  0.0000  0.0011  0.0019  0.0019  0.0000  0.0000  0.0000  0.0000  0.0000 </r>
       </set>
       <set comment="band 87">
        <r>  0.0008  0.0000  0.0107  0.0107  0.0000  0.0000  0.0000  0.0000  0.0000 </r>
        <r>  0.0008  0.0000  0.0107  0.0107  0.0000  0.0000  0.0000  0.0000  0.0000 </r>
       </set>
       <set comment="band 88">
        <r>  0.0008  0.0000  0.0107  0.0107  0.0000  0.0000  0.0000  0.0000  0.0000 </r>
        <r>  0.0008  0.0000  0.0107  0.0107  0.0000  0.0000  0.0000  0.0000  0.0000 </r>
       </set>
       <set comment="band 89">
        <r>  0.0000  0.0138  0.0400  0.0400  0.0000  0.0000  0.0000  0.0000  0.0000 </r>
        <r>  0.0000  0.0139  0.0398  0.0398  0.0000  0.0000  0.0000  0.0000  0.0000 </r>
       </set>
       <set comment="band 90">
        <r>  0.0000  0.0139  0.0398  0.0398  0.0000  0.0000  0.0000  0.0000  0.0000 </r>
        <r>  0.0000  0.0138  0.0400  0.0400  0.0000  0.0000  0.0000  0.0000  0.0000 </r>
       </set>
       <set comment="band 91">
        <r>  0.3329  0.0000  0.0165  0.0165  0.0000  0.0000  0.0000  0.0000  0.0000 </r>
        <r>  0.3381  0.0000  0.0163  0.0163  0.0000  0.0000  0.0000  0.0000  0.0000 </r>
       </set>
       <set comment="band 92">
        <r>  0.3381  0.0000  0.0163  0.0163  0.0000  0.0000  0.0000  0.0000  0.0000 </r>
        <r>  0.3329  0.0000  0.0165  0.0165  0.0000  0.0000  0.0000  0.0000  0.0000 </r>
       </set>
       <set comment="band 93">
        <r>  0.0000  0.0000  0.0069  0.0069  0.0000  0.0000  0.0000  0.0000  0.0000 </r>
        <r>  0.0000  0.0000  0.0069  0.0069  0.0000  0.0000  0.0000  0.0000  0.0000 </r>
       </set>
       <set comment="band 94">
        <r>  0.0000  0.0000  0.0069  0.0069  0.0000  0.0000  0.0000  0.0000  0.0000 </r>
        <r>  0.0000  0.0000  0.0069  0.0069  0.0000  0.0000  0.0000  0.0000  0.0000 </r>
       </set>
       <set comment="band 95">
        <r>  0.0041  0.0000  0.0160  0.0160  0.0000  0.0000  0.0000  0.0000  0.0000 </r>
        <r>  0.0041  0.0000  0.0159  0.0159  0.0000  0.0000  0.0000  0.0000  0.0000 </r>
       </set>
       <set comment="band 96">
        <r>  0.0041  0.0000  0.0159  0.0159  0.0000  0.0000  0.0000  0.0000  0.0000 </r>
        <r>  0.0041  0.0000  0.0160  0.0160  0.0000  0.0000  0.0000  0.0000  0.0000 </r>
       </set>
       <set comment="band 97">
        <r>  0.0000  0.0527  0.0095  0.0095  0.0000  0.0000  0.0000  0.0000  0.0000 </r>
        <r>  0.0000  0.0527  0.0095  0.0095  0.0000  0.0000  0.0000  0.0000  0.0000 </r>
       </set>
       <set comment="band 98">
        <r>  0.0000  0.0527  0.0095  0.0095  0.0000  0.0000  0.0000  0.0000  0.0000 </r>
        <r>  0.0000  0.0527  0.0095  0.0095  0.0000  0.0000  0.0000  0.0000  0.0000 </r>
       </set>
       <set comment="band 99">
        <r>  0.0344  0.0000  0.0567  0.0567  0.0000  0.0000  0.0000  0.0000  0.0000 </r>
        <r>  0.0344  0.0000  0.0566  0.0566  0.0000  0.0000  0.0000  0.0000  0.0000 </r>
       </set>
       <set comment="band 100">
        <r>  0.0344  0.0000  0.0566  0.0566  0.0000  0.0000  0.0000  0.0000  0.0000 </r>
        <r>  0.0344  0.0000  0.0567  0.0567  0.0000  0.0000  0.0000  0.0000  0.0000 </r>
       </set>
       <set comment="band 101">
        <r>  0.0000  0.0687  0.0389  0.0389  0.0000  0.0000  0.0000  0.0000  0.0000 </r>
        <r>  0.0000  0.0687  0.0389  0.0389  0.0000  0.0000  0.0000  0.0000  0.0000 </r>
       </set>
       <set comment="band 102">
        <r>  0.0000  0.0687  0.0389  0.0389  0.0000  0.0000  0.0000  0.0000  0.0000 </r>
        <r>  0.0000  0.0687  0.0389  0.0389  0.0000  0.0000  0.0000  0.0000  0.0000 </r>
       </set>
       <set comment="band 103">
        <r>  0.2373  0.0000  0.0457  0.0457  0.0000  0.0000  0.0000  0.0000  0.0000 </r>
        <r>  0.2386  0.0000  0.0455  0.0455  0.0000  0.0000  0.0000  0.0000  0.0000 </r>
       </set>
       <set comment="band 104">
        <r>  0.2386  0.0000  0.0455  0.0455  0.0000  0.0000  0.0000  0.0000  0.0000 </r>
        <r>  0.2373  0.0000  0.0457  0.0457  0.0000  0.0000  0.0000  0.0000  0.0000 </r>
       </set>
       <set comment="band 105">
        <r>  0.3546  0.0000  0.0035  0.0035  0.0000  0.0000  0.0000  0.0000  0.0000 </r>
        <r>  0.3634  0.0000  0.0034  0.0034  0.0000  0.0000  0.0000  0.0000  0.0000 </r>
       </set>
       <set comment="band 106">
        <r>  0.3634  0.0000  0.0034  0.0034  0.0000  0.0000  0.0000  0.0000  0.0000 </r>
        <r>  0.3546  0.0000  0.0035  0.0035  0.0000  0.0000  0.0000  0.0000  0.0000 </r>
       </set>
       <set comment="band 107">
        <r>  0.0000  0.1373  0.0045  0.0045  0.0000  0.0000  0.0000  0.0000  0.0000 </r>
        <r>  0.0000  0.1371  0.0045  0.0045  0.0000  0.0000  0.0000  0.0000  0.0000 </r>
       </set>
       <set comment="band 108">
        <r>  0.0000  0.1371  0.0045  0.0045  0.0000  0.0000  0.0000  0.0000  0.0000 </r>
        <r>  0.0000  0.1373  0.0045  0.0045  0.0000  0.0000  0.0000  0.0000  0.0000 </r>
       </set>
       <set comment="band 109">
        <r>  0.0000  0.2282  0.0568  0.0568  0.0000  0.0000  0.0000  0.0000  0.0000 </r>
        <r>  0.0000  0.2282  0.0568  0.0568  0.0000  0.0000  0.0000  0.0000  0.0000 </r>
       </set>
       <set comment="band 110">
        <r>  0.0000  0.2282  0.0568  0.0568  0.0000  0.0000  0.0000  0.0000  0.0000 </r>
        <r>  0.0000  0.2282  0.0568  0.0568  0.0000  0.0000  0.0000  0.0000  0.0000 </r>
       </set>
       <set comment="band 111">
        <r>  0.0000  0.0525  0.0108  0.0108  0.0000  0.0000  0.0000  0.0000  0.0000 </r>
        <r>  0.0000  0.0525  0.0109  0.0109  0.0000  0.0000  0.0000  0.0000  0.0000 </r>
       </set>
       <set comment="band 112">
        <r>  0.0000  0.0525  0.0109  0.0109  0.0000  0.0000  0.0000  0.0000  0.0000 </r>
        <r>  0.0000  0.0525  0.0108  0.0108  0.0000  0.0000  0.0000  0.0000  0.0000 </r>
       </set>
       <set comment="band 113">
        <r>  0.9727  0.0000  0.0351  0.0351  0.0000  0.0000  0.0000  0.0000  0.0000 </r>
        <r>  1.0014  0.0000  0.0341  0.0341  0.0000  0.0000  0.0000  0.0000  0.0000 </r>
       </set>
       <set comment="band 114">
        <r>  1.0014  0.0000  0.0341  0.0341  0.0000  0.0000  0.0000  0.0000  0.0000 </r>
        <r>  0.9727  0.0000  0.0351  0.0351  0.0000  0.0000  0.0000  0.0000  0.0000 </r>
       </set>
       <set comment="band 115">
        <r>  0.5865  0.0000  0.0992  0.0992  0.0000  0.0000  0.0000  0.0000  0.0000 </r>
        <r>  0.6459  0.0000  0.0901  0.0901  0.0000  0.0000  0.0000  0.0000  0.0000 </r>
       </set>
       <set comment="band 116">
        <r>  0.6459  0.0000  0.0901  0.0901  0.0000  0.0000  0.0000  0.0000  0.0000 </r>
        <r>  0.5865  0.0000  0.0992  0.0992  0.0000  0.0000  0.0000  0.0000  0.0000 </r>
       </set>
       <set comment="band 117">
        <r>  0.0000  0.0424  0.0014  0.0014  0.0000  0.0000  0.0000  0.0000  0.0000 </r>
        <r>  0.0000  0.0424  0.0014  0.0014  0.0000  0.0000  0.0000  0.0000  0.0000 </r>
       </set>
       <set comment="band 118">
        <r>  0.0000  0.0424  0.0014  0.0014  0.0000  0.0000  0.0000  0.0000  0.0000 </r>
        <r>  0.0000  0.0424  0.0014  0.0014  0.0000  0.0000  0.0000  0.0000  0.0000 </r>
       </set>
       <set comment="band 119">
        <r>  0.1099  0.0000  0.0000  0.0000  0.0000  0.0000  0.0000  0.0000  0.0000 </r>
        <r>  0.1100  0.0000  0.0000  0.0000  0.0000  0.0000  0.0000  0.0000  0.0000 </r>
       </set>
       <set comment="band 120">
        <r>  0.1100  0.0000  0.0000  0.0000  0.0000  0.0000  0.0000  0.0000  0.0000 </r>
        <r>  0.1099  0.0000  0.0000  0.0000  0.0000  0.0000  0.0000  0.0000  0.0000 </r>
       </set>
       <set comment="band 121">
        <r>  0.1005  0.0000  0.0786  0.0786  0.0000  0.0000  0.0000  0.0000  0.0000 </r>
        <r>  0.1021  0.0000  0.0773  0.0773  0.0000  0.0000  0.0000  0.0000  0.0000 </r>
       </set>
       <set comment="band 122">
        <r>  0.1021  0.0000  0.0773  0.0773  0.0000  0.0000  0.0000  0.0000  0.0000 </r>
        <r>  0.1005  0.0000  0.0786  0.0786  0.0000  0.0000  0.0000  0.0000  0.0000 </r>
       </set>
       <set comment="band 123">
        <r>  0.1587  0.0000  0.0126  0.0126  0.0000  0.0000  0.0000  0.0000  0.0000 </r>
        <r>  0.1593  0.0000  0.0126  0.0126  0.0000  0.0000  0.0000  0.0000  0.0000 </r>
       </set>
       <set comment="band 124">
        <r>  0.1593  0.0000  0.0126  0.0126  0.0000  0.0000  0.0000  0.0000  0.0000 </r>
        <r>  0.1587  0.0000  0.0126  0.0126  0.0000  0.0000  0.0000  0.0000  0.0000 </r>
       </set>
       <set comment="band 125">
        <r>  0.0000  0.0485  0.0748  0.0748  0.0000  0.0000  0.0000  0.0000  0.0000 </r>
        <r>  0.0000  0.0486  0.0748  0.0748  0.0000  0.0000  0.0000  0.0000  0.0000 </r>
       </set>
       <set comment="band 126">
        <r>  0.0000  0.0486  0.0748  0.0748  0.0000  0.0000  0.0000  0.0000  0.0000 </r>
        <r>  0.0000  0.0485  0.0748  0.0748  0.0000  0.0000  0.0000  0.0000  0.0000 </r>
       </set>
       <set comment="band 127">
        <r>  0.0000  0.2837  0.0892  0.0892  0.0000  0.0000  0.0000  0.0000  0.0000 </r>
        <r>  0.0000  0.2836  0.0892  0.0892  0.0000  0.0000  0.0000  0.0000  0.0000 </r>
       </set>
       <set comment="band 128">
        <r>  0.0000  0.2836  0.0892  0.0892  0.0000  0.0000  0.0000  0.0000  0.0000 </r>
        <r>  0.0000  0.2837  0.0892  0.0892  0.0000  0.0000  0.0000  0.0000  0.0000 </r>
       </set>
       <set comment="band 129">
        <r>  0.0000  0.0237  0.0389  0.0389  0.0000  0.0000  0.0000  0.0000  0.0000 </r>
        <r>  0.0000  0.0237  0.0389  0.0389  0.0000  0.0000  0.0000  0.0000  0.0000 </r>
       </set>
       <set comment="band 130">
        <r>  0.0000  0.0237  0.0389  0.0389  0.0000  0.0000  0.0000  0.0000  0.0000 </r>
        <r>  0.0000  0.0237  0.0389  0.0389  0.0000  0.0000  0.0000  0.0000  0.0000 </r>
       </set>
       <set comment="band 131">
        <r>  0.0000  0.0043  0.1711  0.1711  0.0000  0.0000  0.0000  0.0000  0.0000 </r>
        <r>  0.0000  0.0043  0.1691  0.1691  0.0000  0.0000  0.0000  0.0000  0.0000 </r>
       </set>
       <set comment="band 132">
        <r>  0.0000  0.0043  0.1691  0.1691  0.0000  0.0000  0.0000  0.0000  0.0000 </r>
        <r>  0.0000  0.0043  0.1711  0.1711  0.0000  0.0000  0.0000  0.0000  0.0000 </r>
       </set>
       <set comment="band 133">
        <r>  0.9358  0.0000  0.2120  0.2120  0.0000  0.0000  0.0000  0.0000  0.0000 </r>
        <r>  0.9912  0.0000  0.2002  0.2002  0.0000  0.0000  0.0000  0.0000  0.0000 </r>
       </set>
       <set comment="band 134">
        <r>  0.9912  0.0000  0.2002  0.2002  0.0000  0.0000  0.0000  0.0000  0.0000 </r>
        <r>  0.9358  0.0000  0.2120  0.2120  0.0000  0.0000  0.0000  0.0000  0.0000 </r>
       </set>
       <set comment="band 135">
        <r>  0.0310  0.0000  0.0019  0.0019  0.0000  0.0000  0.0000  0.0000  0.0000 </r>
        <r>  0.0310  0.0000  0.0019  0.0019  0.0000  0.0000  0.0000  0.0000  0.0000 </r>
       </set>
       <set comment="band 136">
        <r>  0.0310  0.0000  0.0019  0.0019  0.0000  0.0000  0.0000  0.0000  0.0000 </r>
        <r>  0.0310  0.0000  0.0019  0.0019  0.0000  0.0000  0.0000  0.0000  0.0000 </r>
       </set>
       <set comment="band 137">
        <r>  0.5029  0.0000  0.0018  0.0018  0.0000  0.0000  0.0000  0.0000  0.0000 </r>
        <r>  0.5205  0.0000  0.0018  0.0018  0.0000  0.0000  0.0000  0.0000  0.0000 </r>
       </set>
       <set comment="band 138">
        <r>  0.5205  0.0000  0.0018  0.0018  0.0000  0.0000  0.0000  0.0000  0.0000 </r>
        <r>  0.5029  0.0000  0.0018  0.0018  0.0000  0.0000  0.0000  0.0000  0.0000 </r>
       </set>
       <set comment="band 139">
        <r>  0.0000  0.0096  0.0097  0.0097  0.0000  0.0000  0.0000  0.0000  0.0000 </r>
        <r>  0.0000  0.0096  0.0097  0.0097  0.0000  0.0000  0.0000  0.0000  0.0000 </r>
       </set>
       <set comment="band 140">
        <r>  0.0000  0.0096  0.0097  0.0097  0.0000  0.0000  0.0000  0.0000  0.0000 </r>
        <r>  0.0000  0.0096  0.0097  0.0097  0.0000  0.0000  0.0000  0.0000  0.0000 </r>
       </set>
       <set comment="band 141">
        <r>  0.0000  0.2186  0.0493  0.0493  0.0000  0.0000  0.0000  0.0000  0.0000 </r>
        <r>  0.0000  0.2184  0.0494  0.0494  0.0000  0.0000  0.0000  0.0000  0.0000 </r>
       </set>
       <set comment="band 142">
        <r>  0.0000  0.2184  0.0494  0.0494  0.0000  0.0000  0.0000  0.0000  0.0000 </r>
        <r>  0.0000  0.2186  0.0493  0.0493  0.0000  0.0000  0.0000  0.0000  0.0000 </r>
       </set>
       <set comment="band 143">
        <r>  0.1234  0.0000  0.0119  0.0119  0.0000  0.0000  0.0000  0.0000  0.0000 </r>
        <r>  0.1243  0.0000  0.0118  0.0118  0.0000  0.0000  0.0000  0.0000  0.0000 </r>
       </set>
       <set comment="band 144">
        <r>  0.1243  0.0000  0.0118  0.0118  0.0000  0.0000  0.0000  0.0000  0.0000 </r>
        <r>  0.1234  0.0000  0.0119  0.0119  0.0000  0.0000  0.0000  0.0000  0.0000 </r>
       </set>
      </set>
     </set>
    </set>
   </array>
  </projected>
 </calculation>
 <structure name="finalpos" >
  <crystal>
   <varray name="basis" >
    <v>       0.00000000       2.71799987       2.71799987 </v>
    <v>       2.71799987      -0.00000000       2.71799987 </v>
    <v>       2.71799987       2.71799987       0.00000000 </v>
   </varray>
   <i name="volume">     40.15857485 </i>
   <varray name="rec_basis" >
    <v>      -0.18395880       0.18395880       0.18395880 </v>
    <v>       0.18395880      -0.18395880       0.18395880 </v>
    <v>       0.18395880       0.18395880      -0.18395880 </v>
   </varray>
  </crystal>
  <varray name="positions" >
   <v>       0.00000000      -0.00000000      -0.00000000 </v>
   <v>       0.25000000       0.25000000       0.25000000 </v>
  </varray>
 </structure>
</modeling>
