 vasp.6.1.2 22Jul20 (build Dec 10 2020 10:33:42) complex                        
  
 executed on             LinuxIFC date 2022.08.30  18:42:57
 running on  192 total cores
 distrk:  each k-point on  192 cores,    1 groups
 distr:  one band on NCORE=  48 cores,    4 groups


--------------------------------------------------------------------------------------------------------


 INCAR:
 POTCAR:    PAW_PBE Si 05Jan2001                  
 WARNING: For LVTOT=.TRUE., VASP.5.x writes the TOTAL local potential to the
     file LOCPOT. If you want only the Hartree contributions, use LVHAR=.TRUE.
     instead. 

 -----------------------------------------------------------------------------
|                                                                             |
|           W    W    AA    RRRRR   N    N  II  N    N   GGGG   !!!           |
|           W    W   A  A   R    R  NN   N  II  NN   N  G    G  !!!           |
|           W    W  A    A  R    R  N N  N  II  N N  N  G       !!!           |
|           W WW W  AAAAAA  RRRRR   N  N N  II  N  N N  G  GGG   !            |
|           WW  WW  A    A  R   R   N   NN  II  N   NN  G    G                |
|           W    W  A    A  R    R  N    N  II  N    N   GGGG   !!!           |
|                                                                             |
|     For optimal performance we recommend to set                             |
|       NCORE = 4 - approx SQRT(number of cores).                             |
|     NCORE specifies how many cores store one orbital (NPAR=cpu/NCORE).      |
|     This setting can greatly improve the performance of VASP for DFT.       |
|     The default, NCORE=1 might be grossly inefficient on modern             |
|     multi-core architectures or massively parallel machines. Do your        |
|     own testing!!!!                                                         |
|     Unfortunately you need to use the default for GW and RPA                |
|     calculations (for HF NCORE is supported but not extensively tested      |
|     yet).                                                                   |
|                                                                             |
 -----------------------------------------------------------------------------

 POTCAR:    PAW_PBE Si 05Jan2001                  
   VRHFIN =Si: s2p2                                                                                 
   LEXCH  = PE                                                                                      
   EATOM  =   103.0669 eV,    7.5752 Ry                                                             
                                                                                                    
   TITEL  = PAW_PBE Si 05Jan2001                                                                    
   LULTRA =        F    use ultrasoft PP ?                                                          
   IUNSCR =        1    unscreen: 0-lin 1-nonlin 2-no                                               
   RPACOR =    1.500    partial core radius                                                         
   POMASS =   28.085; ZVAL   =    4.000    mass and valenz                                          
   RCORE  =    1.900    outmost cutoff radius                                                       
   RWIGS  =    2.480; RWIGS  =    1.312    wigner-seitz radius (au A)                               
   ENMAX  =  245.345; ENMIN  =  184.009 eV                                                          
   ICORE  =        2    local potential                                                             
   LCOR   =        T    correct aug charges                                                         
   LPAW   =        T    paw PP                                                                      
   EAUG   =  322.069                                                                                
   DEXC   =    0.000                                                                                
   RMAX   =    1.950    core radius for proj-oper                                                   
   RAUG   =    1.300    factor for augmentation sphere                                              
   RDEP   =    1.993    radius for radial grids                                                     
   RDEPT  =    1.837    core radius for aug-charge                                                  
                                                                                                    
   Atomic configuration                                                                             
    6 entries                                                                                       
     n  l   j            E        occ.                                                              
     1  0  0.50     -1785.8828   2.0000                                                             
     2  0  0.50      -139.4969   2.0000                                                             
     2  1  1.50       -95.5546   6.0000                                                             
     3  0  0.50       -10.8127   2.0000                                                             
     3  1  0.50        -4.0811   2.0000                                                             
     3  2  1.50        -4.0817   0.0000                                                             
   Description                                                                                      
     l       E           TYP  RCUT    TYP  RCUT                                                     
     0    -10.8127223     23  1.900                                                                 
     0     -7.6451159     23  1.900                                                                 
     1     -4.0811372     23  1.900                                                                 
     1      2.4879257     23  1.900                                                                 
     2     -4.0817478      7  1.900                                                                 
  local pseudopotential read in
  partial core-charges read in
  partial kinetic energy density read in
  atomic valenz-charges read in
  non local Contribution for L=           0  read in
    real space projection operators read in
  non local Contribution for L=           0  read in
    real space projection operators read in
  non local Contribution for L=           1  read in
    real space projection operators read in
  non local Contribution for L=           1  read in
    real space projection operators read in
    PAW grid and wavefunctions read in
 
   number of l-projection  operators is LMAX  =           4
   number of lm-projection operators is LMMAX =           8
 
 -----------------------------------------------------------------------------
|                                                                             |
|               ----> ADVICE to this user running VASP <----                  |
|                                                                             |
|     You enforced a specific xc type in the INCAR file but a different       |
|     type was found in the POTCAR file.                                      |
|     I HOPE YOU KNOW WHAT YOU ARE DOING!                                     |
|                                                                             |
 -----------------------------------------------------------------------------

  PAW_PBE Si 05Jan2001                  :
 energy of atom  1       EATOM= -103.0669
 kinetic energy error for atom=    0.0003 (will be added to EATOM!!)
 
 
 POSCAR: Si8
  positions in direct lattice
  No initial velocities read in
 exchange correlation table for  LEXCH =       14
   RHO(1)=    0.500       N(1)  =     2000
   RHO(2)=  100.500       N(2)  =     4000

 VTST: version 3.2, (02/03/18)

 CHAIN: initializing optimizer
 
 OPT: Using VASP Conjugate-Gradient optimizer
 CHAIN: Read ICHAIN            0
 
 POSCAR: Si8
  positions in direct lattice
  No initial velocities read in
 


--------------------------------------------------------------------------------------------------------


 ion  position               nearest neighbor table
   1  0.502  0.500  0.500-   6 2.36   5 2.36   7 2.37   8 2.37
   2  0.500  0.000  0.000-   7 2.36   6 2.36   5 2.36   8 2.36
   3  0.000  0.500  0.000-   6 2.36   5 2.36   7 2.36   8 2.36
   4  0.000  0.000  0.500-   5 2.36   6 2.36   7 2.36   8 2.36
   5  0.750  0.750  0.750-   1 2.36   4 2.36   3 2.36   2 2.36
   6  0.750  0.250  0.250-   1 2.36   3 2.36   2 2.36   4 2.36
   7  0.250  0.750  0.250-   2 2.36   3 2.36   4 2.36   1 2.37
   8  0.250  0.250  0.750-   2 2.36   3 2.36   4 2.36   1 2.37
 
  LATTYP: Found a simple cubic cell.
 ALAT       =     5.4600000000
  
  Lattice vectors:
  
 A1 = (   5.4600000000,   0.0000000000,   0.0000000000)
 A2 = (  -0.0000000000,   5.4600000000,   0.0000000000)
 A3 = (  -0.0000000000,  -0.0000000000,   5.4600000000)


Analysis of symmetry for initial positions (statically):
=====================================================================
 Subroutine PRICEL returns:
 Original cell was already a primitive cell.
 

 Routine SETGRP: Setting up the symmetry group for a 
 simple cubic supercell.


 Subroutine GETGRP returns: Found  4 space group operations
 (whereof  4 operations were pure point group operations)
 out of a pool of 48 trial point group operations.


The static configuration has the point symmetry C_2v.


Analysis of symmetry for dynamics (positions and initial velocities):
=====================================================================
 Subroutine PRICEL returns:
 Original cell was already a primitive cell.
 

 Routine SETGRP: Setting up the symmetry group for a 
 simple cubic supercell.


 Subroutine GETGRP returns: Found  4 space group operations
 (whereof  4 operations were pure point group operations)
 out of a pool of 48 trial point group operations.


The dynamic configuration has the point symmetry C_2v.


Analysis of structural, dynamic, and magnetic symmetry:
=====================================================================
 Subroutine PRICEL returns:
 Original cell was already a primitive cell.
 

 Routine SETGRP: Setting up the symmetry group for a 
 simple cubic supercell.


 Subroutine GETGRP returns: Found  4 space group operations
 (whereof  4 operations were pure point group operations)
 out of a pool of 48 trial point group operations.


The magnetic configuration has the point symmetry C_2v.


 Subroutine INISYM returns: Found  4 space group operations
 (whereof  4 operations are pure point group operations),
 and found     1 'primitive' translations


----------------------------------------------------------------------------------------

                                     Primitive cell                                     

  volume of cell :     162.7713

  direct lattice vectors                    reciprocal lattice vectors
     5.460000000  0.000000000  0.000000000     0.183150183  0.000000000  0.000000000
    -0.000000000  5.460000000  0.000000000    -0.000000000  0.183150183  0.000000000
    -0.000000000 -0.000000000  5.460000000    -0.000000000 -0.000000000  0.183150183

  length of vectors
     5.460000000  5.460000000  5.460000000     0.183150183  0.183150183  0.183150183

  position of ions in fractional coordinates (direct lattice)
     0.501831502  0.500000000  0.500000000
     0.500000000  1.000000000  0.000000000
     1.000000000  0.500000000  1.000000000
     1.000000000  1.000000000  0.500000000
     0.750000000  0.750000000  0.750000000
     0.750000000  0.250000000  0.250000000
     0.250000000  0.750000000  0.250000000
     0.250000000  0.250000000  0.750000000

  ion indices of the primitive-cell ions
   primitive index   ion index
                 1           1
                 2           2
                 3           3
                 4           4
                 5           5
                 6           6
                 7           7
                 8           8

----------------------------------------------------------------------------------------

 
 
 KPOINTS: pymatgen with grid density = 7000 / numb

Automatic generation of k-mesh.
Space group operators:
 irot       det(A)        alpha          n_x          n_y          n_z        tau_x        tau_y        tau_z
    1     1.000000     0.000001     1.000000     0.000000     0.000000     0.000000     0.000000     0.000000
    2    -1.000000   180.000000     0.000000    -0.707107    -0.707107     0.000000     0.000000     0.000000
    3     1.000000   180.000000     1.000000     0.000000     0.000000     0.000000     0.000000     0.000000
    4    -1.000000   180.000000    -0.000000    -0.707107     0.707107     0.000000     0.000000     0.000000
 
 Subroutine IBZKPT returns following result:
 ===========================================
 
 Found    125 irreducible k-points:
 
 Following reciprocal coordinates:
            Coordinates               Weight
  0.000000  0.000000  0.000000      1.000000
  0.111111  0.000000  0.000000      2.000000
 -0.000000  0.111111  0.000000      4.000000
  0.222222  0.000000  0.000000      2.000000
  0.000000  0.222222  0.000000      4.000000
  0.333333  0.000000  0.000000      2.000000
 -0.000000  0.333333  0.000000      4.000000
  0.444444  0.000000  0.000000      2.000000
  0.000000  0.444444  0.000000      4.000000
  0.111111  0.111111  0.000000      8.000000
 -0.000000  0.111111  0.111111      2.000000
 -0.000000 -0.111111  0.111111      2.000000
  0.222222  0.111111  0.000000      8.000000
  0.000000  0.222222  0.111111      4.000000
  0.111111  0.000000  0.222222      8.000000
 -0.000000 -0.222222  0.111111      4.000000
  0.333333  0.111111  0.000000      8.000000
  0.000000  0.333333  0.111111      4.000000
  0.111111  0.000000  0.333333      8.000000
  0.000000 -0.333333  0.111111      4.000000
  0.444444  0.111111  0.000000      8.000000
  0.000000  0.444444  0.111111      4.000000
  0.111111  0.000000  0.444444      8.000000
 -0.000000 -0.444444  0.111111      4.000000
  0.222222  0.222222  0.000000      8.000000
  0.000000  0.222222  0.222222      2.000000
  0.000000 -0.222222  0.222222      2.000000
  0.333333  0.222222  0.000000      8.000000
 -0.000000  0.333333  0.222222      4.000000
  0.222222  0.000000  0.333333      8.000000
  0.000000 -0.333333  0.222222      4.000000
  0.444444  0.222222  0.000000      8.000000
  0.000000  0.444444  0.222222      4.000000
  0.222222  0.000000  0.444444      8.000000
 -0.000000 -0.444444  0.222222      4.000000
  0.333333  0.333333  0.000000      8.000000
 -0.000000  0.333333  0.333333      2.000000
 -0.000000 -0.333333  0.333333      2.000000
  0.444444  0.333333  0.000000      8.000000
 -0.000000  0.444444  0.333333      4.000000
  0.333333  0.000000  0.444444      8.000000
 -0.000000 -0.444444  0.333333      4.000000
  0.444444  0.444444  0.000000      8.000000
  0.000000  0.444444  0.444444      2.000000
  0.000000 -0.444444  0.444444      2.000000
  0.111111  0.111111  0.111111      4.000000
 -0.111111 -0.111111  0.111111      4.000000
  0.222222  0.111111  0.111111      4.000000
  0.111111  0.222222  0.111111      8.000000
 -0.222222 -0.111111  0.111111      4.000000
 -0.111111 -0.222222  0.111111      8.000000
  0.333333  0.111111  0.111111      4.000000
  0.111111  0.333333  0.111111      8.000000
 -0.333333 -0.111111  0.111111      4.000000
 -0.111111 -0.333333  0.111111      8.000000
  0.444444  0.111111  0.111111      4.000000
  0.111111  0.444444  0.111111      8.000000
 -0.444444 -0.111111  0.111111      4.000000
 -0.111111 -0.444444  0.111111      8.000000
  0.222222  0.222222  0.111111      8.000000
  0.111111  0.222222  0.222222      4.000000
 -0.222222 -0.222222  0.111111      8.000000
 -0.111111 -0.222222  0.222222      4.000000
  0.333333  0.222222  0.111111      8.000000
  0.111111  0.333333  0.222222      8.000000
  0.222222  0.111111  0.333333      8.000000
 -0.333333 -0.222222  0.111111      8.000000
 -0.111111 -0.333333  0.222222      8.000000
 -0.222222 -0.111111  0.333333      8.000000
  0.444444  0.222222  0.111111      8.000000
  0.111111  0.444444  0.222222      8.000000
  0.222222  0.111111  0.444444      8.000000
 -0.444444 -0.222222  0.111111      8.000000
 -0.111111 -0.444444  0.222222      8.000000
 -0.222222 -0.111111  0.444444      8.000000
  0.333333  0.333333  0.111111      8.000000
  0.111111  0.333333  0.333333      4.000000
 -0.333333 -0.333333  0.111111      8.000000
 -0.111111 -0.333333  0.333333      4.000000
  0.444444  0.333333  0.111111      8.000000
  0.111111  0.444444  0.333333      8.000000
  0.333333  0.111111  0.444444      8.000000
 -0.444444 -0.333333  0.111111      8.000000
 -0.111111 -0.444444  0.333333      8.000000
 -0.333333 -0.111111  0.444444      8.000000
  0.444444  0.444444  0.111111      8.000000
  0.111111  0.444444  0.444444      4.000000
 -0.444444 -0.444444  0.111111      8.000000
 -0.111111 -0.444444  0.444444      4.000000
  0.222222  0.222222  0.222222      4.000000
 -0.222222 -0.222222  0.222222      4.000000
  0.333333  0.222222  0.222222      4.000000
  0.222222  0.333333  0.222222      8.000000
 -0.333333 -0.222222  0.222222      4.000000
 -0.222222 -0.333333  0.222222      8.000000
  0.444444  0.222222  0.222222      4.000000
  0.222222  0.444444  0.222222      8.000000
 -0.444444 -0.222222  0.222222      4.000000
 -0.222222 -0.444444  0.222222      8.000000
  0.333333  0.333333  0.222222      8.000000
  0.222222  0.333333  0.333333      4.000000
 -0.333333 -0.333333  0.222222      8.000000
 -0.222222 -0.333333  0.333333      4.000000
  0.444444  0.333333  0.222222      8.000000
  0.222222  0.444444  0.333333      8.000000
  0.333333  0.222222  0.444444      8.000000
 -0.444444 -0.333333  0.222222      8.000000
 -0.222222 -0.444444  0.333333      8.000000
 -0.333333 -0.222222  0.444444      8.000000
  0.444444  0.444444  0.222222      8.000000
  0.222222  0.444444  0.444444      4.000000
 -0.444444 -0.444444  0.222222      8.000000
 -0.222222 -0.444444  0.444444      4.000000
  0.333333  0.333333  0.333333      4.000000
 -0.333333 -0.333333  0.333333      4.000000
  0.444444  0.333333  0.333333      4.000000
  0.333333  0.444444  0.333333      8.000000
 -0.444444 -0.333333  0.333333      4.000000
 -0.333333 -0.444444  0.333333      8.000000
  0.444444  0.444444  0.333333      8.000000
  0.333333  0.444444  0.444444      4.000000
 -0.444444 -0.444444  0.333333      8.000000
 -0.333333 -0.444444  0.444444      4.000000
  0.444444  0.444444  0.444444      4.000000
 -0.444444 -0.444444  0.444444      4.000000
 
 Following cartesian coordinates:
            Coordinates               Weight
  0.000000  0.000000  0.000000      1.000000
  0.020350  0.000000  0.000000      2.000000
 -0.000000  0.020350  0.000000      4.000000
  0.040700  0.000000  0.000000      2.000000
 -0.000000  0.040700  0.000000      4.000000
  0.061050  0.000000  0.000000      2.000000
 -0.000000  0.061050  0.000000      4.000000
  0.081400  0.000000  0.000000      2.000000
 -0.000000  0.081400  0.000000      4.000000
  0.020350  0.020350  0.000000      8.000000
 -0.000000  0.020350  0.020350      2.000000
 -0.000000 -0.020350  0.020350      2.000000
  0.040700  0.020350  0.000000      8.000000
 -0.000000  0.040700  0.020350      4.000000
  0.020350 -0.000000  0.040700      8.000000
 -0.000000 -0.040700  0.020350      4.000000
  0.061050  0.020350  0.000000      8.000000
 -0.000000  0.061050  0.020350      4.000000
  0.020350 -0.000000  0.061050      8.000000
 -0.000000 -0.061050  0.020350      4.000000
  0.081400  0.020350  0.000000      8.000000
 -0.000000  0.081400  0.020350      4.000000
  0.020350 -0.000000  0.081400      8.000000
 -0.000000 -0.081400  0.020350      4.000000
  0.040700  0.040700  0.000000      8.000000
 -0.000000  0.040700  0.040700      2.000000
 -0.000000 -0.040700  0.040700      2.000000
  0.061050  0.040700  0.000000      8.000000
 -0.000000  0.061050  0.040700      4.000000
  0.040700 -0.000000  0.061050      8.000000
 -0.000000 -0.061050  0.040700      4.000000
  0.081400  0.040700  0.000000      8.000000
 -0.000000  0.081400  0.040700      4.000000
  0.040700 -0.000000  0.081400      8.000000
 -0.000000 -0.081400  0.040700      4.000000
  0.061050  0.061050  0.000000      8.000000
 -0.000000  0.061050  0.061050      2.000000
 -0.000000 -0.061050  0.061050      2.000000
  0.081400  0.061050  0.000000      8.000000
 -0.000000  0.081400  0.061050      4.000000
  0.061050  0.000000  0.081400      8.000000
 -0.000000 -0.081400  0.061050      4.000000
  0.081400  0.081400  0.000000      8.000000
 -0.000000  0.081400  0.081400      2.000000
 -0.000000 -0.081400  0.081400      2.000000
  0.020350  0.020350  0.020350      4.000000
 -0.020350 -0.020350  0.020350      4.000000
  0.040700  0.020350  0.020350      4.000000
  0.020350  0.040700  0.020350      8.000000
 -0.040700 -0.020350  0.020350      4.000000
 -0.020350 -0.040700  0.020350      8.000000
  0.061050  0.020350  0.020350      4.000000
  0.020350  0.061050  0.020350      8.000000
 -0.061050 -0.020350  0.020350      4.000000
 -0.020350 -0.061050  0.020350      8.000000
  0.081400  0.020350  0.020350      4.000000
  0.020350  0.081400  0.020350      8.000000
 -0.081400 -0.020350  0.020350      4.000000
 -0.020350 -0.081400  0.020350      8.000000
  0.040700  0.040700  0.020350      8.000000
  0.020350  0.040700  0.040700      4.000000
 -0.040700 -0.040700  0.020350      8.000000
 -0.020350 -0.040700  0.040700      4.000000
  0.061050  0.040700  0.020350      8.000000
  0.020350  0.061050  0.040700      8.000000
  0.040700  0.020350  0.061050      8.000000
 -0.061050 -0.040700  0.020350      8.000000
 -0.020350 -0.061050  0.040700      8.000000
 -0.040700 -0.020350  0.061050      8.000000
  0.081400  0.040700  0.020350      8.000000
  0.020350  0.081400  0.040700      8.000000
  0.040700  0.020350  0.081400      8.000000
 -0.081400 -0.040700  0.020350      8.000000
 -0.020350 -0.081400  0.040700      8.000000
 -0.040700 -0.020350  0.081400      8.000000
  0.061050  0.061050  0.020350      8.000000
  0.020350  0.061050  0.061050      4.000000
 -0.061050 -0.061050  0.020350      8.000000
 -0.020350 -0.061050  0.061050      4.000000
  0.081400  0.061050  0.020350      8.000000
  0.020350  0.081400  0.061050      8.000000
  0.061050  0.020350  0.081400      8.000000
 -0.081400 -0.061050  0.020350      8.000000
 -0.020350 -0.081400  0.061050      8.000000
 -0.061050 -0.020350  0.081400      8.000000
  0.081400  0.081400  0.020350      8.000000
  0.020350  0.081400  0.081400      4.000000
 -0.081400 -0.081400  0.020350      8.000000
 -0.020350 -0.081400  0.081400      4.000000
  0.040700  0.040700  0.040700      4.000000
 -0.040700 -0.040700  0.040700      4.000000
  0.061050  0.040700  0.040700      4.000000
  0.040700  0.061050  0.040700      8.000000
 -0.061050 -0.040700  0.040700      4.000000
 -0.040700 -0.061050  0.040700      8.000000
  0.081400  0.040700  0.040700      4.000000
  0.040700  0.081400  0.040700      8.000000
 -0.081400 -0.040700  0.040700      4.000000
 -0.040700 -0.081400  0.040700      8.000000
  0.061050  0.061050  0.040700      8.000000
  0.040700  0.061050  0.061050      4.000000
 -0.061050 -0.061050  0.040700      8.000000
 -0.040700 -0.061050  0.061050      4.000000
  0.081400  0.061050  0.040700      8.000000
  0.040700  0.081400  0.061050      8.000000
  0.061050  0.040700  0.081400      8.000000
 -0.081400 -0.061050  0.040700      8.000000
 -0.040700 -0.081400  0.061050      8.000000
 -0.061050 -0.040700  0.081400      8.000000
  0.081400  0.081400  0.040700      8.000000
  0.040700  0.081400  0.081400      4.000000
 -0.081400 -0.081400  0.040700      8.000000
 -0.040700 -0.081400  0.081400      4.000000
  0.061050  0.061050  0.061050      4.000000
 -0.061050 -0.061050  0.061050      4.000000
  0.081400  0.061050  0.061050      4.000000
  0.061050  0.081400  0.061050      8.000000
 -0.081400 -0.061050  0.061050      4.000000
 -0.061050 -0.081400  0.061050      8.000000
  0.081400  0.081400  0.061050      8.000000
  0.061050  0.081400  0.081400      4.000000
 -0.081400 -0.081400  0.061050      8.000000
 -0.061050 -0.081400  0.081400      4.000000
  0.081400  0.081400  0.081400      4.000000
 -0.081400 -0.081400  0.081400      4.000000
 


--------------------------------------------------------------------------------------------------------




 Dimension of arrays:
   k-points           NKPTS =    125   k-points in BZ     NKDIM =    125   number of bands    NBANDS=     24
   number of dos      NEDOS =    301   number of ions     NIONS =      8
   non local maximal  LDIM  =      4   non local SUM 2l+1 LMDIM =      8
   total plane-waves  NPLWV = 110592
   max r-space proj   IRMAX =      1   max aug-charges    IRDMAX=  22914
   dimension x,y,z NGX =    48 NGY =   48 NGZ =   48
   dimension x,y,z NGXF=    96 NGYF=   96 NGZF=   96
   support grid    NGXF=    96 NGYF=   96 NGZF=   96
   ions per type =               8
   NGX,Y,Z   is equivalent  to a cutoff of  14.62, 14.62, 14.62 a.u.
   NGXF,Y,Z  is equivalent  to a cutoff of  29.23, 29.23, 29.23 a.u.

 SYSTEM =  unknown system                          
 POSCAR =  Si8                                     

 Startparameter for this run:
   NWRITE =      2    write-flag & timer
   PREC   = accura    normal or accurate (medium, high low for compatibility)
   ISTART =      0    job   : 0-new  1-cont  2-samecut
   ICHARG =      2    charge: 1-file 2-atom 10-const
   ISPIN  =      2    spin polarized calculation?
   LNONCOLLINEAR =      F non collinear calculations
   LSORBIT =      F    spin-orbit coupling
   INIWAV =      1    electr: 0-lowe 1-rand  2-diag
   LASPH  =      T    aspherical Exc in radial PAW
   METAGGA=      F    non-selfconsistent MetaGGA calc.

 Electronic Relaxation 1
   ENCUT  =  700.0 eV  51.45 Ry    7.17 a.u.  11.78 11.78 11.78*2*pi/ulx,y,z
   ENINI  =  700.0     initial cutoff
   ENAUG  = 1360.0 eV  augmentation charge cutoff
   NELM   =    200;   NELMIN=  2; NELMDL= -5     # of ELM steps 
   EDIFF  = 0.1E-06   stopping-criterion for ELM
   LREAL  =      F    real-space projection
   NLSPLINE    = F    spline interpolate recip. space projectors
   LCOMPAT=      F    compatible to vasp.4.4
   GGA_COMPAT  = T    GGA compatible to vasp.4.4-vasp.4.6
   LMAXPAW     = -100 max onsite density
   LMAXMIX     =    2 max onsite mixed and CHGCAR
   VOSKOWN=      0    Vosko Wilk Nusair interpolation
   ROPT   =    0.00000
 Ionic relaxation
   EDIFFG = 0.1E-05   stopping-criterion for IOM
   NSW    =      0    number of steps for IOM
   NBLOCK =      1;   KBLOCK =      1    inner block; outer block 
   IBRION =     -1    ionic relax: 0-MD 1-quasi-New 2-CG
   NFREE  =      1    steps in history (QN), initial steepest desc. (CG)
   ISIF   =      3    stress and relaxation
   IWAVPR =     10    prediction:  0-non 1-charg 2-wave 3-comb
   ISYM   =      2    0-nonsym 1-usesym 2-fastsym
   LCORR  =      T    Harris-Foulkes like correction to forces

   POTIM  = 0.5000    time-step for ionic-motion
   TEIN   =    0.0    initial temperature
   TEBEG  =    0.0;   TEEND  =   0.0 temperature during run
   SMASS  =  -3.00    Nose mass-parameter (am)
   estimated Nose-frequenzy (Omega)   =  0.10E-29 period in steps = 0.13E+47 mass=  -0.681E-27a.u.
   SCALEE = 1.0000    scale energy and forces
   NPACO  =    256;   APACO  = 16.0  distance and # of slots for P.C.
   PSTRESS=    0.0 pullay stress

  Mass of Ions in am
   POMASS =  28.09
  Ionic Valenz
   ZVAL   =   4.00
  Atomic Wigner-Seitz radii
   RWIGS  =  -1.00
  virtual crystal weights 
   VCA    =   1.00
   NELECT =      32.0000    total number of electrons
   NUPDOWN=      -1.0000    fix difference up-down

 DOS related values:
   EMIN   =  10.00;   EMAX   =-10.00  energy-range for DOS
   EFERMI =   0.00
   ISMEAR =     0;   SIGMA  =   0.05  broadening in eV -4-tet -1-fermi 0-gaus

 Electronic relaxation 2 (details)
   IALGO  =     38    algorithm
   LDIAG  =      T    sub-space diagonalisation (order eigenvalues)
   LSUBROT=      F    optimize rotation matrix (better conditioning)
   TURBO    =      0    0=normal 1=particle mesh
   IRESTART =      0    0=no restart 2=restart with 2 vectors
   NREBOOT  =      0    no. of reboots
   NMIN     =      0    reboot dimension
   EREF     =   0.00    reference energy to select bands
   IMIX   =      4    mixing-type and parameters
     AMIX     =   0.40;   BMIX     =  1.00
     AMIX_MAG =   1.60;   BMIX_MAG =  1.00
     AMIN     =   0.10
     WC   =   100.;   INIMIX=   1;  MIXPRE=   1;  MAXMIX= -45

 Intra band minimization:
   WEIMIN = 0.0000     energy-eigenvalue tresh-hold
   EBREAK =  0.10E-08  absolut break condition
   DEPER  =   0.30     relativ break condition  

   TIME   =   0.40     timestep for ELM

  volume/ion in A,a.u.               =      20.35       137.30
  Fermi-wavevector in a.u.,A,eV,Ry     =   0.951916  1.798861 12.328851  0.906145
  Thomas-Fermi vector in A             =   2.080431
 
 Write flags
   LWAVE        =      F    write WAVECAR
   LDOWNSAMPLE  =      F    k-point downsampling of WAVECAR
   LCHARG       =      F    write CHGCAR
   LVTOT        =      T    write LOCPOT, total local potential
   LVHAR        =      F    write LOCPOT, Hartree potential only
   LELF         =      F    write electronic localiz. function (ELF)
   LORBIT       =     11    0 simple, 1 ext, 2 COOP (PROOUT), +10 PAW based schemes


 Dipole corrections
   LMONO  =      F    monopole corrections only (constant potential shift)
   LDIPOL =      F    correct potential (dipole corrections)
   IDIPOL =      0    1-x, 2-y, 3-z, 4-all directions 
   EPSILON=  1.0000000 bulk dielectric constant

 Exchange correlation treatment:
   GGA     =    PS    GGA type
   LEXCH   =    14    internal setting for exchange type
   VOSKOWN=      0    Vosko Wilk Nusair interpolation
   LHFCALC =     F    Hartree Fock is set to
   LHFONE  =     F    Hartree Fock one center treatment
   AEXX    =    0.0000 exact exchange contribution

 Linear response parameters
   LEPSILON=     F    determine dielectric tensor
   LRPA    =     F    only Hartree local field effects (RPA)
   LNABLA  =     F    use nabla operator in PAW spheres
   LVEL    =     F    velocity operator in full k-point grid
   LINTERFAST=   F  fast interpolation
   KINTER  =     0    interpolate to denser k-point grid
   CSHIFT  =0.1000    complex shift for real part using Kramers Kronig
   OMEGAMAX=  -1.0    maximum frequency
   DEG_THRESHOLD= 0.2000000E-02 threshold for treating states as degnerate
   RTIME   =   -0.100 relaxation time in fs
  (WPLASMAI=    0.000 imaginary part of plasma frequency in eV, 0.658/RTIME)
   DFIELD  = 0.0000000 0.0000000 0.0000000 field for delta impulse in time
 
 Orbital magnetization related:
   ORBITALMAG=     F  switch on orbital magnetization
   LCHIMAG   =     F  perturbation theory with respect to B field
   DQ        =  0.001000  dq finite difference perturbation B field
   LLRAUG    =     F  two centre corrections for induced B field



--------------------------------------------------------------------------------------------------------


 Static calculation
 charge density and potential will be updated during run
 spin polarized calculation
 Variant of blocked Davidson
 Davidson routine will perform the subspace rotation
 perform sub-space diagonalisation
    after iterative eigenvector-optimisation
 modified Broyden-mixing scheme, WC =      100.0
 initial mixing is a Kerker type mixing with AMIX =  0.4000 and BMIX =      1.0000
 Hartree-type preconditioning will be used
 using additional bands            8
 reciprocal scheme for non local part
 use partial core corrections
 calculate Harris-corrections to forces 
   (improved forces if not selfconsistent)
 use gradient corrections 
 use of overlap-Matrix (Vanderbilt PP)
 Gauss-broadening in eV      SIGMA  =   0.05


--------------------------------------------------------------------------------------------------------


  energy-cutoff  :      700.00
  volume of cell :      162.77
      direct lattice vectors                 reciprocal lattice vectors
     5.460000000  0.000000000  0.000000000     0.183150183  0.000000000  0.000000000
    -0.000000000  5.460000000  0.000000000    -0.000000000  0.183150183  0.000000000
    -0.000000000 -0.000000000  5.460000000    -0.000000000 -0.000000000  0.183150183

  length of vectors
     5.460000000  5.460000000  5.460000000     0.183150183  0.183150183  0.183150183


 
 k-points in units of 2pi/SCALE and weight: pymatgen with grid density = 7000 / numb
   0.00000000  0.00000000  0.00000000       0.001
   0.02035002  0.00000000  0.00000000       0.003
  -0.00000000  0.02035002  0.00000000       0.005
   0.04070004  0.00000000  0.00000000       0.003
  -0.00000000  0.04070004  0.00000000       0.005
   0.06105006  0.00000000  0.00000000       0.003
  -0.00000000  0.06105006  0.00000000       0.005
   0.08140008  0.00000000  0.00000000       0.003
  -0.00000000  0.08140008  0.00000000       0.005
   0.02035002  0.02035002  0.00000000       0.011
  -0.00000000  0.02035002  0.02035002       0.003
  -0.00000000 -0.02035002  0.02035002       0.003
   0.04070004  0.02035002  0.00000000       0.011
  -0.00000000  0.04070004  0.02035002       0.005
   0.02035002 -0.00000000  0.04070004       0.011
  -0.00000000 -0.04070004  0.02035002       0.005
   0.06105006  0.02035002  0.00000000       0.011
  -0.00000000  0.06105006  0.02035002       0.005
   0.02035002 -0.00000000  0.06105006       0.011
  -0.00000000 -0.06105006  0.02035002       0.005
   0.08140008  0.02035002  0.00000000       0.011
  -0.00000000  0.08140008  0.02035002       0.005
   0.02035002 -0.00000000  0.08140008       0.011
  -0.00000000 -0.08140008  0.02035002       0.005
   0.04070004  0.04070004  0.00000000       0.011
  -0.00000000  0.04070004  0.04070004       0.003
  -0.00000000 -0.04070004  0.04070004       0.003
   0.06105006  0.04070004  0.00000000       0.011
  -0.00000000  0.06105006  0.04070004       0.005
   0.04070004 -0.00000000  0.06105006       0.011
  -0.00000000 -0.06105006  0.04070004       0.005
   0.08140008  0.04070004  0.00000000       0.011
  -0.00000000  0.08140008  0.04070004       0.005
   0.04070004 -0.00000000  0.08140008       0.011
  -0.00000000 -0.08140008  0.04070004       0.005
   0.06105006  0.06105006  0.00000000       0.011
  -0.00000000  0.06105006  0.06105006       0.003
  -0.00000000 -0.06105006  0.06105006       0.003
   0.08140008  0.06105006  0.00000000       0.011
  -0.00000000  0.08140008  0.06105006       0.005
   0.06105006  0.00000000  0.08140008       0.011
  -0.00000000 -0.08140008  0.06105006       0.005
   0.08140008  0.08140008  0.00000000       0.011
  -0.00000000  0.08140008  0.08140008       0.003
  -0.00000000 -0.08140008  0.08140008       0.003
   0.02035002  0.02035002  0.02035002       0.005
  -0.02035002 -0.02035002  0.02035002       0.005
   0.04070004  0.02035002  0.02035002       0.005
   0.02035002  0.04070004  0.02035002       0.011
  -0.04070004 -0.02035002  0.02035002       0.005
  -0.02035002 -0.04070004  0.02035002       0.011
   0.06105006  0.02035002  0.02035002       0.005
   0.02035002  0.06105006  0.02035002       0.011
  -0.06105006 -0.02035002  0.02035002       0.005
  -0.02035002 -0.06105006  0.02035002       0.011
   0.08140008  0.02035002  0.02035002       0.005
   0.02035002  0.08140008  0.02035002       0.011
  -0.08140008 -0.02035002  0.02035002       0.005
  -0.02035002 -0.08140008  0.02035002       0.011
   0.04070004  0.04070004  0.02035002       0.011
   0.02035002  0.04070004  0.04070004       0.005
  -0.04070004 -0.04070004  0.02035002       0.011
  -0.02035002 -0.04070004  0.04070004       0.005
   0.06105006  0.04070004  0.02035002       0.011
   0.02035002  0.06105006  0.04070004       0.011
   0.04070004  0.02035002  0.06105006       0.011
  -0.06105006 -0.04070004  0.02035002       0.011
  -0.02035002 -0.06105006  0.04070004       0.011
  -0.04070004 -0.02035002  0.06105006       0.011
   0.08140008  0.04070004  0.02035002       0.011
   0.02035002  0.08140008  0.04070004       0.011
   0.04070004  0.02035002  0.08140008       0.011
  -0.08140008 -0.04070004  0.02035002       0.011
  -0.02035002 -0.08140008  0.04070004       0.011
  -0.04070004 -0.02035002  0.08140008       0.011
   0.06105006  0.06105006  0.02035002       0.011
   0.02035002  0.06105006  0.06105006       0.005
  -0.06105006 -0.06105006  0.02035002       0.011
  -0.02035002 -0.06105006  0.06105006       0.005
   0.08140008  0.06105006  0.02035002       0.011
   0.02035002  0.08140008  0.06105006       0.011
   0.06105006  0.02035002  0.08140008       0.011
  -0.08140008 -0.06105006  0.02035002       0.011
  -0.02035002 -0.08140008  0.06105006       0.011
  -0.06105006 -0.02035002  0.08140008       0.011
   0.08140008  0.08140008  0.02035002       0.011
   0.02035002  0.08140008  0.08140008       0.005
  -0.08140008 -0.08140008  0.02035002       0.011
  -0.02035002 -0.08140008  0.08140008       0.005
   0.04070004  0.04070004  0.04070004       0.005
  -0.04070004 -0.04070004  0.04070004       0.005
   0.06105006  0.04070004  0.04070004       0.005
   0.04070004  0.06105006  0.04070004       0.011
  -0.06105006 -0.04070004  0.04070004       0.005
  -0.04070004 -0.06105006  0.04070004       0.011
   0.08140008  0.04070004  0.04070004       0.005
   0.04070004  0.08140008  0.04070004       0.011
  -0.08140008 -0.04070004  0.04070004       0.005
  -0.04070004 -0.08140008  0.04070004       0.011
   0.06105006  0.06105006  0.04070004       0.011
   0.04070004  0.06105006  0.06105006       0.005
  -0.06105006 -0.06105006  0.04070004       0.011
  -0.04070004 -0.06105006  0.06105006       0.005
   0.08140008  0.06105006  0.04070004       0.011
   0.04070004  0.08140008  0.06105006       0.011
   0.06105006  0.04070004  0.08140008       0.011
  -0.08140008 -0.06105006  0.04070004       0.011
  -0.04070004 -0.08140008  0.06105006       0.011
  -0.06105006 -0.04070004  0.08140008       0.011
   0.08140008  0.08140008  0.04070004       0.011
   0.04070004  0.08140008  0.08140008       0.005
  -0.08140008 -0.08140008  0.04070004       0.011
  -0.04070004 -0.08140008  0.08140008       0.005
   0.06105006  0.06105006  0.06105006       0.005
  -0.06105006 -0.06105006  0.06105006       0.005
   0.08140008  0.06105006  0.06105006       0.005
   0.06105006  0.08140008  0.06105006       0.011
  -0.08140008 -0.06105006  0.06105006       0.005
  -0.06105006 -0.08140008  0.06105006       0.011
   0.08140008  0.08140008  0.06105006       0.011
   0.06105006  0.08140008  0.08140008       0.005
  -0.08140008 -0.08140008  0.06105006       0.011
  -0.06105006 -0.08140008  0.08140008       0.005
   0.08140008  0.08140008  0.08140008       0.005
  -0.08140008 -0.08140008  0.08140008       0.005
 
 k-points in reciprocal lattice and weights: pymatgen with grid density = 7000 / numb
   0.00000000  0.00000000  0.00000000       0.001
   0.11111111  0.00000000  0.00000000       0.003
  -0.00000000  0.11111111  0.00000000       0.005
   0.22222222  0.00000000  0.00000000       0.003
   0.00000000  0.22222222  0.00000000       0.005
   0.33333333  0.00000000  0.00000000       0.003
  -0.00000000  0.33333333  0.00000000       0.005
   0.44444444  0.00000000  0.00000000       0.003
   0.00000000  0.44444444  0.00000000       0.005
   0.11111111  0.11111111  0.00000000       0.011
  -0.00000000  0.11111111  0.11111111       0.003
  -0.00000000 -0.11111111  0.11111111       0.003
   0.22222222  0.11111111  0.00000000       0.011
   0.00000000  0.22222222  0.11111111       0.005
   0.11111111  0.00000000  0.22222222       0.011
  -0.00000000 -0.22222222  0.11111111       0.005
   0.33333333  0.11111111  0.00000000       0.011
   0.00000000  0.33333333  0.11111111       0.005
   0.11111111  0.00000000  0.33333333       0.011
   0.00000000 -0.33333333  0.11111111       0.005
   0.44444444  0.11111111  0.00000000       0.011
   0.00000000  0.44444444  0.11111111       0.005
   0.11111111  0.00000000  0.44444444       0.011
  -0.00000000 -0.44444444  0.11111111       0.005
   0.22222222  0.22222222  0.00000000       0.011
   0.00000000  0.22222222  0.22222222       0.003
   0.00000000 -0.22222222  0.22222222       0.003
   0.33333333  0.22222222  0.00000000       0.011
  -0.00000000  0.33333333  0.22222222       0.005
   0.22222222  0.00000000  0.33333333       0.011
   0.00000000 -0.33333333  0.22222222       0.005
   0.44444444  0.22222222  0.00000000       0.011
   0.00000000  0.44444444  0.22222222       0.005
   0.22222222  0.00000000  0.44444444       0.011
  -0.00000000 -0.44444444  0.22222222       0.005
   0.33333333  0.33333333  0.00000000       0.011
  -0.00000000  0.33333333  0.33333333       0.003
  -0.00000000 -0.33333333  0.33333333       0.003
   0.44444444  0.33333333  0.00000000       0.011
  -0.00000000  0.44444444  0.33333333       0.005
   0.33333333  0.00000000  0.44444444       0.011
  -0.00000000 -0.44444444  0.33333333       0.005
   0.44444444  0.44444444  0.00000000       0.011
   0.00000000  0.44444444  0.44444444       0.003
   0.00000000 -0.44444444  0.44444444       0.003
   0.11111111  0.11111111  0.11111111       0.005
  -0.11111111 -0.11111111  0.11111111       0.005
   0.22222222  0.11111111  0.11111111       0.005
   0.11111111  0.22222222  0.11111111       0.011
  -0.22222222 -0.11111111  0.11111111       0.005
  -0.11111111 -0.22222222  0.11111111       0.011
   0.33333333  0.11111111  0.11111111       0.005
   0.11111111  0.33333333  0.11111111       0.011
  -0.33333333 -0.11111111  0.11111111       0.005
  -0.11111111 -0.33333333  0.11111111       0.011
   0.44444444  0.11111111  0.11111111       0.005
   0.11111111  0.44444444  0.11111111       0.011
  -0.44444444 -0.11111111  0.11111111       0.005
  -0.11111111 -0.44444444  0.11111111       0.011
   0.22222222  0.22222222  0.11111111       0.011
   0.11111111  0.22222222  0.22222222       0.005
  -0.22222222 -0.22222222  0.11111111       0.011
  -0.11111111 -0.22222222  0.22222222       0.005
   0.33333333  0.22222222  0.11111111       0.011
   0.11111111  0.33333333  0.22222222       0.011
   0.22222222  0.11111111  0.33333333       0.011
  -0.33333333 -0.22222222  0.11111111       0.011
  -0.11111111 -0.33333333  0.22222222       0.011
  -0.22222222 -0.11111111  0.33333333       0.011
   0.44444444  0.22222222  0.11111111       0.011
   0.11111111  0.44444444  0.22222222       0.011
   0.22222222  0.11111111  0.44444444       0.011
  -0.44444444 -0.22222222  0.11111111       0.011
  -0.11111111 -0.44444444  0.22222222       0.011
  -0.22222222 -0.11111111  0.44444444       0.011
   0.33333333  0.33333333  0.11111111       0.011
   0.11111111  0.33333333  0.33333333       0.005
  -0.33333333 -0.33333333  0.11111111       0.011
  -0.11111111 -0.33333333  0.33333333       0.005
   0.44444444  0.33333333  0.11111111       0.011
   0.11111111  0.44444444  0.33333333       0.011
   0.33333333  0.11111111  0.44444444       0.011
  -0.44444444 -0.33333333  0.11111111       0.011
  -0.11111111 -0.44444444  0.33333333       0.011
  -0.33333333 -0.11111111  0.44444444       0.011
   0.44444444  0.44444444  0.11111111       0.011
   0.11111111  0.44444444  0.44444444       0.005
  -0.44444444 -0.44444444  0.11111111       0.011
  -0.11111111 -0.44444444  0.44444444       0.005
   0.22222222  0.22222222  0.22222222       0.005
  -0.22222222 -0.22222222  0.22222222       0.005
   0.33333333  0.22222222  0.22222222       0.005
   0.22222222  0.33333333  0.22222222       0.011
  -0.33333333 -0.22222222  0.22222222       0.005
  -0.22222222 -0.33333333  0.22222222       0.011
   0.44444444  0.22222222  0.22222222       0.005
   0.22222222  0.44444444  0.22222222       0.011
  -0.44444444 -0.22222222  0.22222222       0.005
  -0.22222222 -0.44444444  0.22222222       0.011
   0.33333333  0.33333333  0.22222222       0.011
   0.22222222  0.33333333  0.33333333       0.005
  -0.33333333 -0.33333333  0.22222222       0.011
  -0.22222222 -0.33333333  0.33333333       0.005
   0.44444444  0.33333333  0.22222222       0.011
   0.22222222  0.44444444  0.33333333       0.011
   0.33333333  0.22222222  0.44444444       0.011
  -0.44444444 -0.33333333  0.22222222       0.011
  -0.22222222 -0.44444444  0.33333333       0.011
  -0.33333333 -0.22222222  0.44444444       0.011
   0.44444444  0.44444444  0.22222222       0.011
   0.22222222  0.44444444  0.44444444       0.005
  -0.44444444 -0.44444444  0.22222222       0.011
  -0.22222222 -0.44444444  0.44444444       0.005
   0.33333333  0.33333333  0.33333333       0.005
  -0.33333333 -0.33333333  0.33333333       0.005
   0.44444444  0.33333333  0.33333333       0.005
   0.33333333  0.44444444  0.33333333       0.011
  -0.44444444 -0.33333333  0.33333333       0.005
  -0.33333333 -0.44444444  0.33333333       0.011
   0.44444444  0.44444444  0.33333333       0.011
   0.33333333  0.44444444  0.44444444       0.005
  -0.44444444 -0.44444444  0.33333333       0.011
  -0.33333333 -0.44444444  0.44444444       0.005
   0.44444444  0.44444444  0.44444444       0.005
  -0.44444444 -0.44444444  0.44444444       0.005
 
 position of ions in fractional coordinates (direct lattice) 
   0.50183150  0.50000000  0.50000000
   0.50000000  0.00000000  0.00000000
   0.00000000  0.50000000  0.00000000
   0.00000000  0.00000000  0.50000000
   0.75000000  0.75000000  0.75000000
   0.75000000  0.25000000  0.25000000
   0.25000000  0.75000000  0.25000000
   0.25000000  0.25000000  0.75000000
 
 position of ions in cartesian coordinates  (Angst):
   2.74000000  2.73000000  2.73000000
   2.73000000  0.00000000  0.00000000
  -0.00000000  2.73000000  0.00000000
  -0.00000000 -0.00000000  2.73000000
   4.09500000  4.09500000  4.09500000
   4.09500000  1.36500000  1.36500000
   1.36500000  4.09500000  1.36500000
   1.36500000  1.36500000  4.09500000
 


--------------------------------------------------------------------------------------------------------


 k-point   1 :   0.0000 0.0000 0.0000  plane waves:    6859
 k-point   2 :   0.1111 0.0000 0.0000  plane waves:    6859
 k-point   3 :  -0.0000 0.1111 0.0000  plane waves:    6859
 k-point   4 :   0.2222 0.0000 0.0000  plane waves:    6848
 k-point   5 :   0.0000 0.2222 0.0000  plane waves:    6848
 k-point   6 :   0.3333 0.0000 0.0000  plane waves:    6828
 k-point   7 :  -0.0000 0.3333 0.0000  plane waves:    6828
 k-point   8 :   0.4444 0.0000 0.0000  plane waves:    6868
 k-point   9 :   0.0000 0.4444 0.0000  plane waves:    6868
 k-point  10 :   0.1111 0.1111 0.0000  plane waves:    6867
 k-point  11 :  -0.0000 0.1111 0.1111  plane waves:    6867
 k-point  12 :  -0.0000-0.1111 0.1111  plane waves:    6867
 k-point  13 :   0.2222 0.1111 0.0000  plane waves:    6854
 k-point  14 :   0.0000 0.2222 0.1111  plane waves:    6854
 k-point  15 :   0.1111 0.0000 0.2222  plane waves:    6854
 k-point  16 :  -0.0000-0.2222 0.1111  plane waves:    6854
 k-point  17 :   0.3333 0.1111 0.0000  plane waves:    6845
 k-point  18 :   0.0000 0.3333 0.1111  plane waves:    6845
 k-point  19 :   0.1111 0.0000 0.3333  plane waves:    6845
 k-point  20 :   0.0000-0.3333 0.1111  plane waves:    6845
 k-point  21 :   0.4444 0.1111 0.0000  plane waves:    6836
 k-point  22 :   0.0000 0.4444 0.1111  plane waves:    6836
 k-point  23 :   0.1111 0.0000 0.4444  plane waves:    6836
 k-point  24 :  -0.0000-0.4444 0.1111  plane waves:    6836
 k-point  25 :   0.2222 0.2222 0.0000  plane waves:    6831
 k-point  26 :   0.0000 0.2222 0.2222  plane waves:    6831
 k-point  27 :   0.0000-0.2222 0.2222  plane waves:    6831
 k-point  28 :   0.3333 0.2222 0.0000  plane waves:    6830
 k-point  29 :  -0.0000 0.3333 0.2222  plane waves:    6830
 k-point  30 :   0.2222 0.0000 0.3333  plane waves:    6830
 k-point  31 :   0.0000-0.3333 0.2222  plane waves:    6830
 k-point  32 :   0.4444 0.2222 0.0000  plane waves:    6837
 k-point  33 :   0.0000 0.4444 0.2222  plane waves:    6837
 k-point  34 :   0.2222 0.0000 0.4444  plane waves:    6837
 k-point  35 :  -0.0000-0.4444 0.2222  plane waves:    6837
 k-point  36 :   0.3333 0.3333 0.0000  plane waves:    6814
 k-point  37 :  -0.0000 0.3333 0.3333  plane waves:    6814
 k-point  38 :  -0.0000-0.3333 0.3333  plane waves:    6814
 k-point  39 :   0.4444 0.3333 0.0000  plane waves:    6853
 k-point  40 :  -0.0000 0.4444 0.3333  plane waves:    6853
 k-point  41 :   0.3333 0.0000 0.4444  plane waves:    6853
 k-point  42 :  -0.0000-0.4444 0.3333  plane waves:    6853
 k-point  43 :   0.4444 0.4444 0.0000  plane waves:    6848
 k-point  44 :   0.0000 0.4444 0.4444  plane waves:    6848
 k-point  45 :   0.0000-0.4444 0.4444  plane waves:    6848
 k-point  46 :   0.1111 0.1111 0.1111  plane waves:    6856
 k-point  47 :  -0.1111-0.1111 0.1111  plane waves:    6856
 k-point  48 :   0.2222 0.1111 0.1111  plane waves:    6845
 k-point  49 :   0.1111 0.2222 0.1111  plane waves:    6845
 k-point  50 :  -0.2222-0.1111 0.1111  plane waves:    6845
 k-point  51 :  -0.1111-0.2222 0.1111  plane waves:    6845
 k-point  52 :   0.3333 0.1111 0.1111  plane waves:    6843
 k-point  53 :   0.1111 0.3333 0.1111  plane waves:    6843
 k-point  54 :  -0.3333-0.1111 0.1111  plane waves:    6843
 k-point  55 :  -0.1111-0.3333 0.1111  plane waves:    6843
 k-point  56 :   0.4444 0.1111 0.1111  plane waves:    6818
 k-point  57 :   0.1111 0.4444 0.1111  plane waves:    6818
 k-point  58 :  -0.4444-0.1111 0.1111  plane waves:    6818
 k-point  59 :  -0.1111-0.4444 0.1111  plane waves:    6818
 k-point  60 :   0.2222 0.2222 0.1111  plane waves:    6828
 k-point  61 :   0.1111 0.2222 0.2222  plane waves:    6828
 k-point  62 :  -0.2222-0.2222 0.1111  plane waves:    6828
 k-point  63 :  -0.1111-0.2222 0.2222  plane waves:    6828
 k-point  64 :   0.3333 0.2222 0.1111  plane waves:    6847
 k-point  65 :   0.1111 0.3333 0.2222  plane waves:    6847
 k-point  66 :   0.2222 0.1111 0.3333  plane waves:    6847
 k-point  67 :  -0.3333-0.2222 0.1111  plane waves:    6847
 k-point  68 :  -0.1111-0.3333 0.2222  plane waves:    6847
 k-point  69 :  -0.2222-0.1111 0.3333  plane waves:    6847
 k-point  70 :   0.4444 0.2222 0.1111  plane waves:    6844
 k-point  71 :   0.1111 0.4444 0.2222  plane waves:    6844
 k-point  72 :   0.2222 0.1111 0.4444  plane waves:    6844
 k-point  73 :  -0.4444-0.2222 0.1111  plane waves:    6844
 k-point  74 :  -0.1111-0.4444 0.2222  plane waves:    6844
 k-point  75 :  -0.2222-0.1111 0.4444  plane waves:    6844
 k-point  76 :   0.3333 0.3333 0.1111  plane waves:    6855
 k-point  77 :   0.1111 0.3333 0.3333  plane waves:    6855
 k-point  78 :  -0.3333-0.3333 0.1111  plane waves:    6855
 k-point  79 :  -0.1111-0.3333 0.3333  plane waves:    6855
 k-point  80 :   0.4444 0.3333 0.1111  plane waves:    6843
 k-point  81 :   0.1111 0.4444 0.3333  plane waves:    6843
 k-point  82 :   0.3333 0.1111 0.4444  plane waves:    6843
 k-point  83 :  -0.4444-0.3333 0.1111  plane waves:    6843
 k-point  84 :  -0.1111-0.4444 0.3333  plane waves:    6843
 k-point  85 :  -0.3333-0.1111 0.4444  plane waves:    6843
 k-point  86 :   0.4444 0.4444 0.1111  plane waves:    6857
 k-point  87 :   0.1111 0.4444 0.4444  plane waves:    6857
 k-point  88 :  -0.4444-0.4444 0.1111  plane waves:    6857
 k-point  89 :  -0.1111-0.4444 0.4444  plane waves:    6857
 k-point  90 :   0.2222 0.2222 0.2222  plane waves:    6848
 k-point  91 :  -0.2222-0.2222 0.2222  plane waves:    6848
 k-point  92 :   0.3333 0.2222 0.2222  plane waves:    6836
 k-point  93 :   0.2222 0.3333 0.2222  plane waves:    6836
 k-point  94 :  -0.3333-0.2222 0.2222  plane waves:    6836
 k-point  95 :  -0.2222-0.3333 0.2222  plane waves:    6836
 k-point  96 :   0.4444 0.2222 0.2222  plane waves:    6831
 k-point  97 :   0.2222 0.4444 0.2222  plane waves:    6831
 k-point  98 :  -0.4444-0.2222 0.2222  plane waves:    6831
 k-point  99 :  -0.2222-0.4444 0.2222  plane waves:    6831
 k-point 100 :   0.3333 0.3333 0.2222  plane waves:    6841
 k-point 101 :   0.2222 0.3333 0.3333  plane waves:    6841
 k-point 102 :  -0.3333-0.3333 0.2222  plane waves:    6841
 k-point 103 :  -0.2222-0.3333 0.3333  plane waves:    6841
 k-point 104 :   0.4444 0.3333 0.2222  plane waves:    6848
 k-point 105 :   0.2222 0.4444 0.3333  plane waves:    6848
 k-point 106 :   0.3333 0.2222 0.4444  plane waves:    6848
 k-point 107 :  -0.4444-0.3333 0.2222  plane waves:    6848
 k-point 108 :  -0.2222-0.4444 0.3333  plane waves:    6848
 k-point 109 :  -0.3333-0.2222 0.4444  plane waves:    6848
 k-point 110 :   0.4444 0.4444 0.2222  plane waves:    6841
 k-point 111 :   0.2222 0.4444 0.4444  plane waves:    6841
 k-point 112 :  -0.4444-0.4444 0.2222  plane waves:    6841
 k-point 113 :  -0.2222-0.4444 0.4444  plane waves:    6841
 k-point 114 :   0.3333 0.3333 0.3333  plane waves:    6845
 k-point 115 :  -0.3333-0.3333 0.3333  plane waves:    6845
 k-point 116 :   0.4444 0.3333 0.3333  plane waves:    6855
 k-point 117 :   0.3333 0.4444 0.3333  plane waves:    6855
 k-point 118 :  -0.4444-0.3333 0.3333  plane waves:    6855
 k-point 119 :  -0.3333-0.4444 0.3333  plane waves:    6855
 k-point 120 :   0.4444 0.4444 0.3333  plane waves:    6862
 k-point 121 :   0.3333 0.4444 0.4444  plane waves:    6862
 k-point 122 :  -0.4444-0.4444 0.3333  plane waves:    6862
 k-point 123 :  -0.3333-0.4444 0.4444  plane waves:    6862
 k-point 124 :   0.4444 0.4444 0.4444  plane waves:    6839
 k-point 125 :  -0.4444-0.4444 0.4444  plane waves:    6839

 maximum and minimum number of plane-waves per node :       164      123

 maximum number of plane-waves:      6868
 maximum index in each direction: 
   IXMAX=   12   IYMAX=   12   IZMAX=   11
   IXMIN=  -12   IYMIN=  -12   IZMIN=  -12


 parallel 3D FFT for wavefunctions:
    minimum data exchange during FFTs selected (reduces bandwidth)
 parallel 3D FFT for charge:
    minimum data exchange during FFTs selected (reduces bandwidth)


 total amount of memory used by VASP MPI-rank0    36222. kBytes
=======================================================================

   base      :      30000. kBytes
   nonl-proj :       1202. kBytes
   fftplans  :        410. kBytes
   grid      :        860. kBytes
   one-center:          6. kBytes
   wavefun   :       3744. kBytes
 
     INWAV:  cpu time    0.0001: real time    0.0001
 Broyden mixing: mesh for mixing (old mesh)
   NGX = 23   NGY = 23   NGZ = 23
  (NGX  = 96   NGY  = 96   NGZ  = 96)
  gives a total of  12167 points

 initial charge density was supplied:
 charge density of overlapping atoms calculated
 number of electron      32.0000000 magnetization       4.8000000
 keeping initial charge density in first step


--------------------------------------------------------------------------------------------------------


 Maximum index for augmentation-charges          949 (set IRDMAX)


--------------------------------------------------------------------------------------------------------


 First call to EWALD:  gamma=   0.325
 Maximum number of real-space cells 3x 3x 3
 Maximum number of reciprocal cells 3x 3x 3

    FEWALD:  cpu time    0.0020: real time    0.0020


--------------------------------------- Iteration      1(   1)  ---------------------------------------


    POTLOK:  cpu time    0.0317: real time    0.0378
    SETDIJ:  cpu time    0.1920: real time    0.1936
     EDDAV:  cpu time    2.7905: real time    2.7991
       DOS:  cpu time    0.0062: real time    0.0063
    --------------------------------------------
      LOOP:  cpu time    3.0206: real time    3.0368

 eigenvalue-minimisations  : 12000
 total energy-change (2. order) : 0.8653718E+02  (-0.1440443E+04)
 number of electron      32.0000000 magnetization       4.8000000
 augmentation part       32.0000000 magnetization       4.8000000

 Free energy of the ion-electron system (eV)
  ---------------------------------------------------
  alpha Z        PSCENC =        13.23599366
  Ewald energy   TEWEN  =      -909.22868307
  -Hartree energ DENC   =       -45.00318594
  -exchange      EXHF   =         0.00000000
  -V(xc)+E(xc)   XCENC  =       -69.76115721
  PAW double counting   =       699.59382407     -561.27664189
  entropy T*S    EENTRO =        -0.00184520
  eigenvalues    EBANDS =       138.37237539
  atomic energy  EATOM  =       820.60650216
  Solvation  Ediel_sol  =         0.00000000
  ---------------------------------------------------
  free energy    TOTEN  =        86.53718198 eV

  energy without entropy =       86.53902717  energy(sigma->0) =       86.53810457


--------------------------------------------------------------------------------------------------------




--------------------------------------- Iteration      1(   2)  ---------------------------------------


     EDDAV:  cpu time    3.0342: real time    3.0356
       DOS:  cpu time    0.0060: real time    0.0060
    --------------------------------------------
      LOOP:  cpu time    3.0402: real time    3.0416

 eigenvalue-minimisations  : 15600
 total energy-change (2. order) :-0.1261768E+03  (-0.1172041E+03)
 number of electron      32.0000000 magnetization       4.8000000
 augmentation part       32.0000000 magnetization       4.8000000

 Free energy of the ion-electron system (eV)
  ---------------------------------------------------
  alpha Z        PSCENC =        13.23599366
  Ewald energy   TEWEN  =      -909.22868307
  -Hartree energ DENC   =       -45.00318594
  -exchange      EXHF   =         0.00000000
  -V(xc)+E(xc)   XCENC  =       -69.76115721
  PAW double counting   =       699.59382407     -561.27664189
  entropy T*S    EENTRO =        -0.00023953
  eigenvalues    EBANDS =        12.19395674
  atomic energy  EATOM  =       820.60650216
  Solvation  Ediel_sol  =         0.00000000
  ---------------------------------------------------
  free energy    TOTEN  =       -39.63963101 eV

  energy without entropy =      -39.63939148  energy(sigma->0) =      -39.63951124


--------------------------------------------------------------------------------------------------------




--------------------------------------- Iteration      1(   3)  ---------------------------------------


     EDDAV:  cpu time    3.0614: real time    3.0632
       DOS:  cpu time    0.0057: real time    0.0057
    --------------------------------------------
      LOOP:  cpu time    3.0671: real time    3.0689

 eigenvalue-minimisations  : 15808
 total energy-change (2. order) :-0.6310305E+01  (-0.6206844E+01)
 number of electron      32.0000000 magnetization       4.8000000
 augmentation part       32.0000000 magnetization       4.8000000

 Free energy of the ion-electron system (eV)
  ---------------------------------------------------
  alpha Z        PSCENC =        13.23599366
  Ewald energy   TEWEN  =      -909.22868307
  -Hartree energ DENC   =       -45.00318594
  -exchange      EXHF   =         0.00000000
  -V(xc)+E(xc)   XCENC  =       -69.76115721
  PAW double counting   =       699.59382407     -561.27664189
  entropy T*S    EENTRO =        -0.00000098
  eigenvalues    EBANDS =         5.88341284
  atomic energy  EATOM  =       820.60650216
  Solvation  Ediel_sol  =         0.00000000
  ---------------------------------------------------
  free energy    TOTEN  =       -45.94993636 eV

  energy without entropy =      -45.94993537  energy(sigma->0) =      -45.94993587


--------------------------------------------------------------------------------------------------------




--------------------------------------- Iteration      1(   4)  ---------------------------------------


     EDDAV:  cpu time    2.9328: real time    2.9333
       DOS:  cpu time    0.0060: real time    0.0060
    --------------------------------------------
      LOOP:  cpu time    2.9387: real time    2.9392

 eigenvalue-minimisations  : 15088
 total energy-change (2. order) :-0.1146472E+00  (-0.1144097E+00)
 number of electron      32.0000000 magnetization       4.8000000
 augmentation part       32.0000000 magnetization       4.8000000

 Free energy of the ion-electron system (eV)
  ---------------------------------------------------
  alpha Z        PSCENC =        13.23599366
  Ewald energy   TEWEN  =      -909.22868307
  -Hartree energ DENC   =       -45.00318594
  -exchange      EXHF   =         0.00000000
  -V(xc)+E(xc)   XCENC  =       -69.76115721
  PAW double counting   =       699.59382407     -561.27664189
  entropy T*S    EENTRO =        -0.00000091
  eigenvalues    EBANDS =         5.76876561
  atomic energy  EATOM  =       820.60650216
  Solvation  Ediel_sol  =         0.00000000
  ---------------------------------------------------
  free energy    TOTEN  =       -46.06458352 eV

  energy without entropy =      -46.06458261  energy(sigma->0) =      -46.06458306


--------------------------------------------------------------------------------------------------------




--------------------------------------- Iteration      1(   5)  ---------------------------------------


     EDDAV:  cpu time    2.9658: real time    2.9664
       DOS:  cpu time    0.0061: real time    0.0061
    CHARGE:  cpu time    0.0898: real time    0.0908
    MIXING:  cpu time    0.0016: real time    0.0022
    --------------------------------------------
      LOOP:  cpu time    3.0633: real time    3.0654

 eigenvalue-minimisations  : 15760
 total energy-change (2. order) :-0.2750611E-02  (-0.2748809E-02)
 number of electron      31.9999999 magnetization       0.4242790
 augmentation part       -1.8691853 magnetization       0.4311139

 Broyden mixing:
  rms(total) = 0.10655E+01    rms(broyden)= 0.10655E+01
  rms(prec ) = 0.13991E+01
  weight for this iteration     100.00

 Free energy of the ion-electron system (eV)
  ---------------------------------------------------
  alpha Z        PSCENC =        13.23599366
  Ewald energy   TEWEN  =      -909.22868307
  -Hartree energ DENC   =       -45.00318594
  -exchange      EXHF   =         0.00000000
  -V(xc)+E(xc)   XCENC  =       -69.76115721
  PAW double counting   =       699.59382407     -561.27664189
  entropy T*S    EENTRO =        -0.00000091
  eigenvalues    EBANDS =         5.76601500
  atomic energy  EATOM  =       820.60650216
  Solvation  Ediel_sol  =         0.00000000
  ---------------------------------------------------
  free energy    TOTEN  =       -46.06733413 eV

  energy without entropy =      -46.06733322  energy(sigma->0) =      -46.06733368


--------------------------------------------------------------------------------------------------------




--------------------------------------- Iteration      1(   6)  ---------------------------------------


    POTLOK:  cpu time    0.0205: real time    0.0214
    SETDIJ:  cpu time    0.1927: real time    0.1927
     EDDAV:  cpu time    2.7708: real time    2.7705
       DOS:  cpu time    0.0047: real time    0.0047
    CHARGE:  cpu time    0.0881: real time    0.0881
    MIXING:  cpu time    0.0009: real time    0.0011
    --------------------------------------------
      LOOP:  cpu time    3.0777: real time    3.0784

 eigenvalue-minimisations  : 14168
 total energy-change (2. order) :-0.1318520E+00  (-0.4249395E-01)
 number of electron      31.9999999 magnetization      -0.2787806
 augmentation part       -1.8485501 magnetization      -0.2697255

 Broyden mixing:
  rms(total) = 0.59913E+00    rms(broyden)= 0.59913E+00
  rms(prec ) = 0.79741E+00
  weight for this iteration     100.00

 eigenvalues of (default mixing * dielectric matrix)
  average eigenvalue GAMMA=   1.2075
  1.2075

 Free energy of the ion-electron system (eV)
  ---------------------------------------------------
  alpha Z        PSCENC =        13.23599366
  Ewald energy   TEWEN  =      -909.22868307
  -Hartree energ DENC   =       -50.64050058
  -exchange      EXHF   =         0.00000000
  -V(xc)+E(xc)   XCENC  =       -69.15889974
  PAW double counting   =      1509.90951265    -1371.98418361
  entropy T*S    EENTRO =        -0.00000000
  eigenvalues    EBANDS =        11.06107241
  atomic energy  EATOM  =       820.60650216
  Solvation  Ediel_sol  =         0.00000000
  ---------------------------------------------------
  free energy    TOTEN  =       -46.19918613 eV

  energy without entropy =      -46.19918613  energy(sigma->0) =      -46.19918613


--------------------------------------------------------------------------------------------------------




--------------------------------------- Iteration      1(   7)  ---------------------------------------


    POTLOK:  cpu time    0.0201: real time    0.0211
    SETDIJ:  cpu time    0.1932: real time    0.1932
     EDDAV:  cpu time    2.7871: real time    2.7869
       DOS:  cpu time    0.0047: real time    0.0047
    CHARGE:  cpu time    0.0867: real time    0.0867
    MIXING:  cpu time    0.0004: real time    0.0004
    --------------------------------------------
      LOOP:  cpu time    3.0923: real time    3.0931

 eigenvalue-minimisations  : 13944
 total energy-change (2. order) : 0.2462835E+00  (-0.5278884E-01)
 number of electron      31.9999999 magnetization      -0.1282314
 augmentation part       -1.8321637 magnetization      -0.1351702

 Broyden mixing:
  rms(total) = 0.23326E+00    rms(broyden)= 0.23326E+00
  rms(prec ) = 0.26509E+00
  weight for this iteration     100.00

 eigenvalues of (default mixing * dielectric matrix)
  average eigenvalue GAMMA=   1.2945
  0.7317  1.8573

 Free energy of the ion-electron system (eV)
  ---------------------------------------------------
  alpha Z        PSCENC =        13.23599366
  Ewald energy   TEWEN  =      -909.22868307
  -Hartree energ DENC   =       -57.19757344
  -exchange      EXHF   =         0.00000000
  -V(xc)+E(xc)   XCENC  =       -68.06711244
  PAW double counting   =      2856.39595564    -2718.83761202
  entropy T*S    EENTRO =        -0.00000000
  eigenvalues    EBANDS =        17.13962691
  atomic energy  EATOM  =       820.60650216
  Solvation  Ediel_sol  =         0.00000000
  ---------------------------------------------------
  free energy    TOTEN  =       -45.95290260 eV

  energy without entropy =      -45.95290260  energy(sigma->0) =      -45.95290260


--------------------------------------------------------------------------------------------------------




--------------------------------------- Iteration      1(   8)  ---------------------------------------


    POTLOK:  cpu time    0.0209: real time    0.0222
    SETDIJ:  cpu time    0.1925: real time    0.1925
     EDDAV:  cpu time    2.8597: real time    2.8595
       DOS:  cpu time    0.0047: real time    0.0047
    CHARGE:  cpu time    0.0865: real time    0.0865
    MIXING:  cpu time    0.0003: real time    0.0003
    --------------------------------------------
      LOOP:  cpu time    3.1647: real time    3.1656

 eigenvalue-minimisations  : 14856
 total energy-change (2. order) :-0.7663889E-02  (-0.6398511E-02)
 number of electron      31.9999999 magnetization      -0.0160889
 augmentation part       -1.8285222 magnetization      -0.0183783

 Broyden mixing:
  rms(total) = 0.75395E-01    rms(broyden)= 0.75395E-01
  rms(prec ) = 0.82283E-01
  weight for this iteration     100.00

 eigenvalues of (default mixing * dielectric matrix)
  average eigenvalue GAMMA=   1.3204
  2.3622  0.9730  0.6261

 Free energy of the ion-electron system (eV)
  ---------------------------------------------------
  alpha Z        PSCENC =        13.23599366
  Ewald energy   TEWEN  =      -909.22868307
  -Hartree energ DENC   =       -58.95655747
  -exchange      EXHF   =         0.00000000
  -V(xc)+E(xc)   XCENC  =       -67.76217077
  PAW double counting   =      3305.96998802    -3168.50144022
  entropy T*S    EENTRO =        -0.00000000
  eigenvalues    EBANDS =        18.67580120
  atomic energy  EATOM  =       820.60650216
  Solvation  Ediel_sol  =         0.00000000
  ---------------------------------------------------
  free energy    TOTEN  =       -45.96056649 eV

  energy without entropy =      -45.96056649  energy(sigma->0) =      -45.96056649


--------------------------------------------------------------------------------------------------------




--------------------------------------- Iteration      1(   9)  ---------------------------------------


    POTLOK:  cpu time    0.0202: real time    0.0226
    SETDIJ:  cpu time    0.1928: real time    0.1928
     EDDAV:  cpu time    2.8239: real time    2.8235
       DOS:  cpu time    0.0048: real time    0.0048
    CHARGE:  cpu time    0.0869: real time    0.0868
    MIXING:  cpu time    0.0004: real time    0.0004
    --------------------------------------------
      LOOP:  cpu time    3.1289: real time    3.1309

 eigenvalue-minimisations  : 14680
 total energy-change (2. order) :-0.3405665E-02  (-0.7296565E-03)
 number of electron      31.9999999 magnetization       0.0045439
 augmentation part       -1.8289680 magnetization       0.0043916

 Broyden mixing:
  rms(total) = 0.20329E-01    rms(broyden)= 0.20329E-01
  rms(prec ) = 0.28125E-01
  weight for this iteration     100.00

 eigenvalues of (default mixing * dielectric matrix)
  average eigenvalue GAMMA=   1.2307
  2.3614  1.0360  0.8999  0.6255

 Free energy of the ion-electron system (eV)
  ---------------------------------------------------
  alpha Z        PSCENC =        13.23599366
  Ewald energy   TEWEN  =      -909.22868307
  -Hartree energ DENC   =       -59.19407816
  -exchange      EXHF   =         0.00000000
  -V(xc)+E(xc)   XCENC  =       -67.70366713
  PAW double counting   =      3389.97079574    -3252.50097492
  entropy T*S    EENTRO =        -0.00000000
  eigenvalues    EBANDS =        18.85013956
  atomic energy  EATOM  =       820.60650216
  Solvation  Ediel_sol  =         0.00000000
  ---------------------------------------------------
  free energy    TOTEN  =       -45.96397215 eV

  energy without entropy =      -45.96397215  energy(sigma->0) =      -45.96397215


--------------------------------------------------------------------------------------------------------




--------------------------------------- Iteration      1(  10)  ---------------------------------------


    POTLOK:  cpu time    0.0212: real time    0.0219
    SETDIJ:  cpu time    0.1932: real time    0.1932
     EDDAV:  cpu time    2.8696: real time    2.8694
       DOS:  cpu time    0.0047: real time    0.0047
    CHARGE:  cpu time    0.0875: real time    0.0875
    MIXING:  cpu time    0.0004: real time    0.0004
    --------------------------------------------
      LOOP:  cpu time    3.1766: real time    3.1770

 eigenvalue-minimisations  : 15032
 total energy-change (2. order) :-0.4654383E-03  (-0.1240197E-03)
 number of electron      31.9999999 magnetization       0.0025774
 augmentation part       -1.8301429 magnetization       0.0024975

 Broyden mixing:
  rms(total) = 0.12870E-01    rms(broyden)= 0.12870E-01
  rms(prec ) = 0.16447E-01
  weight for this iteration     100.00

 eigenvalues of (default mixing * dielectric matrix)
  average eigenvalue GAMMA=   1.1979
  2.3142  1.3243  0.9999  0.7079  0.6434

 Free energy of the ion-electron system (eV)
  ---------------------------------------------------
  alpha Z        PSCENC =        13.23599366
  Ewald energy   TEWEN  =      -909.22868307
  -Hartree energ DENC   =       -59.12875304
  -exchange      EXHF   =         0.00000000
  -V(xc)+E(xc)   XCENC  =       -67.69859256
  PAW double counting   =      3381.04771070    -3243.56176713
  entropy T*S    EENTRO =        -0.00000000
  eigenvalues    EBANDS =        18.76315169
  atomic energy  EATOM  =       820.60650216
  Solvation  Ediel_sol  =         0.00000000
  ---------------------------------------------------
  free energy    TOTEN  =       -45.96443759 eV

  energy without entropy =      -45.96443759  energy(sigma->0) =      -45.96443759


--------------------------------------------------------------------------------------------------------




--------------------------------------- Iteration      1(  11)  ---------------------------------------


    POTLOK:  cpu time    0.0200: real time    0.0221
    SETDIJ:  cpu time    0.1941: real time    0.1941
     EDDAV:  cpu time    2.8677: real time    2.8674
       DOS:  cpu time    0.0047: real time    0.0047
    CHARGE:  cpu time    0.0869: real time    0.0869
    MIXING:  cpu time    0.0005: real time    0.0005
    --------------------------------------------
      LOOP:  cpu time    3.1739: real time    3.1757

 eigenvalue-minimisations  : 14624
 total energy-change (2. order) :-0.2292381E-03  (-0.2036752E-04)
 number of electron      31.9999999 magnetization      -0.0012452
 augmentation part       -1.8307319 magnetization      -0.0011838

 Broyden mixing:
  rms(total) = 0.69684E-02    rms(broyden)= 0.69684E-02
  rms(prec ) = 0.82674E-02
  weight for this iteration     100.00

 eigenvalues of (default mixing * dielectric matrix)
  average eigenvalue GAMMA=   1.3349
  2.3634  2.3634  1.0723  0.9598  0.6252  0.6252

 Free energy of the ion-electron system (eV)
  ---------------------------------------------------
  alpha Z        PSCENC =        13.23599366
  Ewald energy   TEWEN  =      -909.22868307
  -Hartree energ DENC   =       -59.11852548
  -exchange      EXHF   =         0.00000000
  -V(xc)+E(xc)   XCENC  =       -67.69020469
  PAW double counting   =      3369.75246467    -3232.25711515
  entropy T*S    EENTRO =        -0.00000000
  eigenvalues    EBANDS =        18.73490108
  atomic energy  EATOM  =       820.60650216
  Solvation  Ediel_sol  =         0.00000000
  ---------------------------------------------------
  free energy    TOTEN  =       -45.96466683 eV

  energy without entropy =      -45.96466683  energy(sigma->0) =      -45.96466683


--------------------------------------------------------------------------------------------------------




--------------------------------------- Iteration      1(  12)  ---------------------------------------


    POTLOK:  cpu time    0.0211: real time    0.0222
    SETDIJ:  cpu time    0.1935: real time    0.1934
     EDDAV:  cpu time    2.9006: real time    2.9004
       DOS:  cpu time    0.0047: real time    0.0047
    CHARGE:  cpu time    0.0867: real time    0.0867
    MIXING:  cpu time    0.0004: real time    0.0004
    --------------------------------------------
      LOOP:  cpu time    3.2070: real time    3.2079

 eigenvalue-minimisations  : 15208
 total energy-change (2. order) :-0.5670875E-04  (-0.4943112E-05)
 number of electron      31.9999999 magnetization      -0.0008830
 augmentation part       -1.8309152 magnetization      -0.0008393

 Broyden mixing:
  rms(total) = 0.26347E-02    rms(broyden)= 0.26347E-02
  rms(prec ) = 0.32153E-02
  weight for this iteration     100.00

 eigenvalues of (default mixing * dielectric matrix)
  average eigenvalue GAMMA=   1.3537
  2.6025  2.6025  1.1930  1.0055  0.8218  0.6254  0.6254

 Free energy of the ion-electron system (eV)
  ---------------------------------------------------
  alpha Z        PSCENC =        13.23599366
  Ewald energy   TEWEN  =      -909.22868307
  -Hartree energ DENC   =       -59.14411351
  -exchange      EXHF   =         0.00000000
  -V(xc)+E(xc)   XCENC  =       -67.68242761
  PAW double counting   =      3361.97260468    -3224.47467337
  entropy T*S    EENTRO =        -0.00000000
  eigenvalues    EBANDS =        18.75007353
  atomic energy  EATOM  =       820.60650216
  Solvation  Ediel_sol  =         0.00000000
  ---------------------------------------------------
  free energy    TOTEN  =       -45.96472354 eV

  energy without entropy =      -45.96472354  energy(sigma->0) =      -45.96472354


--------------------------------------------------------------------------------------------------------




--------------------------------------- Iteration      1(  13)  ---------------------------------------


    POTLOK:  cpu time    0.0205: real time    0.0217
    SETDIJ:  cpu time    0.1933: real time    0.1933
     EDDAV:  cpu time    2.8488: real time    2.8486
       DOS:  cpu time    0.0047: real time    0.0047
    CHARGE:  cpu time    0.0870: real time    0.0869
    MIXING:  cpu time    0.0004: real time    0.0004
    --------------------------------------------
      LOOP:  cpu time    3.1548: real time    3.1557

 eigenvalue-minimisations  : 14840
 total energy-change (2. order) :-0.7604323E-05  (-0.1359454E-05)
 number of electron      31.9999999 magnetization      -0.0000114
 augmentation part       -1.8308773 magnetization      -0.0000482

 Broyden mixing:
  rms(total) = 0.86382E-03    rms(broyden)= 0.86382E-03
  rms(prec ) = 0.10860E-02
  weight for this iteration     100.00

 eigenvalues of (default mixing * dielectric matrix)
  average eigenvalue GAMMA=   1.4050
  2.7991  2.4688  1.8444  1.0735  1.0297  0.7718  0.6262  0.6262

 Free energy of the ion-electron system (eV)
  ---------------------------------------------------
  alpha Z        PSCENC =        13.23599366
  Ewald energy   TEWEN  =      -909.22868307
  -Hartree energ DENC   =       -59.17002293
  -exchange      EXHF   =         0.00000000
  -V(xc)+E(xc)   XCENC  =       -67.67857166
  PAW double counting   =      3356.55631118    -3219.05903599
  entropy T*S    EENTRO =        -0.00000000
  eigenvalues    EBANDS =        18.77277551
  atomic energy  EATOM  =       820.60650216
  Solvation  Ediel_sol  =         0.00000000
  ---------------------------------------------------
  free energy    TOTEN  =       -45.96473114 eV

  energy without entropy =      -45.96473114  energy(sigma->0) =      -45.96473114


--------------------------------------------------------------------------------------------------------




--------------------------------------- Iteration      1(  14)  ---------------------------------------


    POTLOK:  cpu time    0.0205: real time    0.0220
    SETDIJ:  cpu time    0.1933: real time    0.1933
     EDDAV:  cpu time    2.8605: real time    2.8602
       DOS:  cpu time    0.0048: real time    0.0048
    CHARGE:  cpu time    0.0868: real time    0.0868
    MIXING:  cpu time    0.0004: real time    0.0004
    --------------------------------------------
      LOOP:  cpu time    3.1664: real time    3.1676

 eigenvalue-minimisations  : 14912
 total energy-change (2. order) :-0.1811648E-05  (-0.2687950E-06)
 number of electron      31.9999999 magnetization       0.0000183
 augmentation part       -1.8308306 magnetization       0.0000112

 Broyden mixing:
  rms(total) = 0.16691E-03    rms(broyden)= 0.16691E-03
  rms(prec ) = 0.20618E-03
  weight for this iteration     100.00

 eigenvalues of (default mixing * dielectric matrix)
  average eigenvalue GAMMA=   1.3471
  2.8319  2.3936  2.0468  1.0999  1.0215  0.8109  0.6705  0.6245  0.6245

 Free energy of the ion-electron system (eV)
  ---------------------------------------------------
  alpha Z        PSCENC =        13.23599366
  Ewald energy   TEWEN  =      -909.22868307
  -Hartree energ DENC   =       -59.18278245
  -exchange      EXHF   =         0.00000000
  -V(xc)+E(xc)   XCENC  =       -67.67720438
  PAW double counting   =      3353.87081280    -3216.37411572
  entropy T*S    EENTRO =        -0.00000000
  eigenvalues    EBANDS =        18.78474404
  atomic energy  EATOM  =       820.60650216
  Solvation  Ediel_sol  =         0.00000000
  ---------------------------------------------------
  free energy    TOTEN  =       -45.96473295 eV

  energy without entropy =      -45.96473295  energy(sigma->0) =      -45.96473295


--------------------------------------------------------------------------------------------------------




--------------------------------------- Iteration      1(  15)  ---------------------------------------


[...]
      4      -3.7115      1.00000
      5      -1.1783      1.00000
      6      -1.1659      1.00000
      7      -0.6402      1.00000
      8      -0.2238      1.00000
      9       3.0058      1.00000
     10       3.0089      1.00000
     11       3.6658      1.00000
     12       3.9754      1.00000
     13       3.9835      1.00000
     14       4.1001      1.00000
     15       4.3630      1.00000
     16       4.3780      1.00000
     17       7.4588      0.00000
     18       7.7286      0.00000
     19       7.9402      0.00000
     20       7.9463      0.00000
     21       8.8524      0.00000
     22       8.8826      0.00000
     23       8.8940      0.00000
     24       8.9442      0.00000

 k-point   118 :      -0.4444   -0.3333    0.3333
  band No.  band energies     occupation 
      1      -4.5765      1.00000
      2      -4.1984      1.00000
      3      -3.7183      1.00000
      4      -3.7054      1.00000
      5      -1.1822      1.00000
      6      -1.1744      1.00000
      7      -0.6413      1.00000
      8      -0.2149      1.00000
      9       3.0078      1.00000
     10       3.0228      1.00000
     11       3.6744      1.00000
     12       3.9736      1.00000
     13       3.9751      1.00000
     14       4.0920      1.00000
     15       4.3596      1.00000
     16       4.3754      1.00000
     17       7.4555      0.00000
     18       7.7262      0.00000
     19       7.9394      0.00000
     20       7.9455      0.00000
     21       8.8448      0.00000
     22       8.8836      0.00000
     23       8.8923      0.00000
     24       8.9387      0.00000

 k-point   119 :      -0.3333   -0.4444    0.3333
  band No.  band energies     occupation 
      1      -4.5766      1.00000
      2      -4.1953      1.00000
      3      -3.7174      1.00000
      4      -3.7113      1.00000
      5      -1.1787      1.00000
      6      -1.1662      1.00000
      7      -0.6509      1.00000
      8      -0.2143      1.00000
      9       3.0088      1.00000
     10       3.0118      1.00000
     11       3.6751      1.00000
     12       3.9723      1.00000
     13       3.9812      1.00000
     14       4.0978      1.00000
     15       4.3619      1.00000
     16       4.3721      1.00000
     17       7.4548      0.00000
     18       7.7307      0.00000
     19       7.9349      0.00000
     20       7.9410      0.00000
     21       8.8556      0.00000
     22       8.8875      0.00000
     23       8.8983      0.00000
     24       8.9438      0.00000

 k-point   120 :       0.4444    0.4444    0.3333
  band No.  band energies     occupation 
      1      -4.3018      1.00000
      2      -4.0029      1.00000
      3      -3.9957      1.00000
      4      -3.8237      1.00000
      5      -1.2075      1.00000
      6      -1.0279      1.00000
      7      -1.0152      1.00000
      8      -0.6939      1.00000
      9       3.4092      1.00000
     10       3.6546      1.00000
     11       3.6645      1.00000
     12       4.1002      1.00000
     13       4.2397      1.00000
     14       4.2748      1.00000
     15       4.2802      1.00000
     16       4.5300      1.00000
     17       7.3876      0.00000
     18       7.7194      0.00000
     19       7.7263      0.00000
     20       7.7323      0.00000
     21       8.7747      0.00000
     22       8.7819      0.00000
     23       8.9638      0.00000
     24       9.0131      0.00000

 k-point   121 :       0.3333    0.4444    0.4444
  band No.  band energies     occupation 
      1      -4.3014      1.00000
      2      -4.0078      1.00000
      3      -3.9956      1.00000
      4      -3.8183      1.00000
      5      -1.2196      1.00000
      6      -1.0195      1.00000
      7      -1.0121      1.00000
      8      -0.6944      1.00000
      9       3.4104      1.00000
     10       3.6643      1.00000
     11       3.6654      1.00000
     12       4.0926      1.00000
     13       4.2450      1.00000
     14       4.2596      1.00000
     15       4.2762      1.00000
     16       4.5396      1.00000
     17       7.3874      0.00000
     18       7.7220      0.00000
     19       7.7236      0.00000
     20       7.7360      0.00000
     21       8.7663      0.00000
     22       8.7709      0.00000
     23       8.9692      0.00000
     24       9.0060      0.00000

 k-point   122 :      -0.4444   -0.4444    0.3333
  band No.  band energies     occupation 
      1      -4.3051      1.00000
      2      -4.0026      1.00000
      3      -3.9959      1.00000
      4      -3.8183      1.00000
      5      -1.2194      1.00000
      6      -1.0280      1.00000
      7      -1.0157      1.00000
      8      -0.6843      1.00000
      9       3.4173      1.00000
     10       3.6611      1.00000
     11       3.6714      1.00000
     12       4.0920      1.00000
     13       4.2372      1.00000
     14       4.2679      1.00000
     15       4.2729      1.00000
     16       4.5332      1.00000
     17       7.3841      0.00000
     18       7.7207      0.00000
     19       7.7285      0.00000
     20       7.7339      0.00000
     21       8.7632      0.00000
     22       8.7706      0.00000
     23       8.9641      0.00000
     24       9.0015      0.00000

 k-point   123 :      -0.3333   -0.4444    0.4444
  band No.  band energies     occupation 
      1      -4.3052      1.00000
      2      -4.0028      1.00000
      3      -3.9907      1.00000
      4      -3.8241      1.00000
      5      -1.2071      1.00000
      6      -1.0312      1.00000
      7      -1.0239      1.00000
      8      -0.6838      1.00000
      9       3.4167      1.00000
     10       3.6604      1.00000
     11       3.6614      1.00000
     12       4.1002      1.00000
     13       4.2311      1.00000
     14       4.2713      1.00000
     15       4.2881      1.00000
     16       4.5238      1.00000
     17       7.3844      0.00000
     18       7.7246      0.00000
     19       7.7247      0.00000
     20       7.7303      0.00000
     21       8.7745      0.00000
     22       8.7788      0.00000
     23       8.9583      0.00000
     24       9.0129      0.00000

 k-point   124 :       0.4444    0.4444    0.4444
  band No.  band energies     occupation 
      1      -4.1029      1.00000
      2      -3.9366      1.00000
      3      -3.9239      1.00000
      4      -3.9233      1.00000
      5      -1.2716      1.00000
      6      -1.2638      1.00000
      7      -1.2550      1.00000
      8      -1.0799      1.00000
      9       4.1276      1.00000
     10       4.1393      1.00000
     11       4.1434      1.00000
     12       4.3561      1.00000
     13       4.3566      1.00000
     14       4.3648      1.00000
     15       4.4552      1.00000
     16       4.4688      1.00000
     17       7.0634      0.00000
     18       7.3202      0.00000
     19       7.3203      0.00000
     20       7.3252      0.00000
     21       8.8398      0.00000
     22       8.8408      0.00000
     23       8.8517      0.00000
     24       8.9310      0.00000

 k-point   125 :      -0.4444   -0.4444    0.4444
  band No.  band energies     occupation 
      1      -4.1075      1.00000
      2      -3.9308      1.00000
      3      -3.9297      1.00000
      4      -3.9175      1.00000
      5      -1.2759      1.00000
      6      -1.2671      1.00000
      7      -1.2595      1.00000
      8      -1.0689      1.00000
      9       4.1390      1.00000
     10       4.1432      1.00000
     11       4.1540      1.00000
     12       4.3449      1.00000
     13       4.3550      1.00000
     14       4.3565      1.00000
     15       4.4533      1.00000
     16       4.4650      1.00000
     17       7.0601      0.00000
     18       7.3200      0.00000
     19       7.3250      0.00000
     20       7.3251      0.00000
     21       8.8289      0.00000
     22       8.8390      0.00000
     23       8.8414      0.00000
     24       8.9235      0.00000


--------------------------------------------------------------------------------------------------------


 soft charge-density along one line, spin component           1
         0         1         2         3         4         5         6         7         8         9
 total charge-density along one line
 
 soft charge-density along one line, spin component           2
         0         1         2         3         4         5         6         7         8         9
 total charge-density along one line
 
 pseudopotential strength for first ion, spin component:           1
 18.420  25.698   0.000  -0.000   0.000   0.000  -0.000   0.000
 25.698  35.857   0.000  -0.000   0.000   0.000  -0.000   0.000
  0.000   0.000   4.179   0.000  -0.000   7.785   0.000  -0.000
 -0.000  -0.000   0.000   4.179   0.000   0.000   7.785   0.000
  0.000   0.000  -0.000   0.000   4.179  -0.000   0.000   7.785
  0.000   0.000   7.785   0.000  -0.000  14.515   0.000  -0.000
 -0.000  -0.000   0.000   7.785   0.000   0.000  14.515   0.000
  0.000   0.000  -0.000   0.000   7.785  -0.000   0.000  14.515
 pseudopotential strength for first ion, spin component:           2
 18.420  25.698   0.000  -0.000   0.000   0.000  -0.000   0.000
 25.698  35.857   0.000  -0.000   0.000   0.000  -0.000   0.000
  0.000   0.000   4.179   0.000  -0.000   7.785   0.000  -0.000
 -0.000  -0.000   0.000   4.179   0.000   0.000   7.785   0.000
  0.000   0.000  -0.000   0.000   4.179  -0.000   0.000   7.785
  0.000   0.000   7.785   0.000  -0.000  14.515   0.000  -0.000
 -0.000  -0.000   0.000   7.785   0.000   0.000  14.515   0.000
  0.000   0.000  -0.000   0.000   7.785  -0.000   0.000  14.515
 total augmentation occupancy for first ion, spin component:           1
  5.781  -2.198   0.000   0.000   0.019  -0.000  -0.000  -0.006
 -2.198   0.948  -0.000  -0.000  -0.009   0.000   0.000   0.003
  0.000   0.000   2.876   0.021  -0.000  -0.639  -0.006   0.000
  0.000  -0.000   0.021   2.876   0.000  -0.006  -0.639  -0.000
  0.019  -0.009  -0.000   0.000   2.876   0.000  -0.000  -0.639
 -0.000   0.000  -0.639  -0.006   0.000   0.150   0.002  -0.000
 -0.000   0.000  -0.006  -0.639  -0.000   0.002   0.150   0.000
 -0.006   0.003   0.000  -0.000  -0.639  -0.000   0.000   0.150
 total augmentation occupancy for first ion, spin component:           2
 -0.000   0.000   0.000  -0.000  -0.000   0.000   0.000   0.000
  0.000  -0.000   0.000   0.000   0.000  -0.000  -0.000  -0.000
  0.000   0.000  -0.000  -0.000   0.000   0.000   0.000  -0.000
 -0.000   0.000  -0.000  -0.000  -0.000   0.000   0.000   0.000
 -0.000   0.000   0.000  -0.000  -0.000  -0.000   0.000   0.000
  0.000  -0.000   0.000   0.000  -0.000  -0.000  -0.000   0.000
  0.000  -0.000   0.000   0.000   0.000  -0.000  -0.000  -0.000
  0.000  -0.000  -0.000   0.000   0.000   0.000  -0.000  -0.000


------------------------ aborting loop because EDIFF is reached ----------------------------------------


 


 total charge     
 
# of ion       s       p       d       tot
------------------------------------------
    1        0.752   0.927   0.000   1.680
    2        0.752   0.927   0.000   1.680
    3        0.752   0.927   0.000   1.680
    4        0.752   0.927   0.000   1.680
    5        0.752   0.928   0.000   1.681
    6        0.752   0.928   0.000   1.681
    7        0.752   0.926   0.000   1.679
    8        0.752   0.926   0.000   1.679
--------------------------------------------------
tot          6.018   7.418   0.000  13.436
 


 magnetization (x)
 
# of ion       s       p       d       tot
------------------------------------------
    1       -0.000  -0.000   0.000  -0.000
    2       -0.000  -0.000   0.000  -0.000
    3       -0.000  -0.000   0.000  -0.000
    4       -0.000  -0.000   0.000  -0.000
    5       -0.000  -0.000   0.000  -0.000
    6       -0.000  -0.000   0.000  -0.000
    7       -0.000  -0.000   0.000  -0.000
    8       -0.000  -0.000   0.000  -0.000
--------------------------------------------------
tot         -0.000  -0.000   0.000  -0.000
 
    CHARGE:  cpu time    0.0968: real time    0.0968
    FORLOC:  cpu time    0.0004: real time    0.0005
    FORNL :  cpu time    0.1478: real time    0.1478
    STRESS:  cpu time    0.2668: real time    0.2672
    FORCOR:  cpu time    0.0183: real time    0.0184
    FORHAR:  cpu time    0.0028: real time    0.0032
    MIXING:  cpu time    0.0007: real time    0.0007
    OFIELD:  cpu time    0.0001: real time    0.0002

  FORCE on cell =-STRESS in cart. coord.  units (eV):
  Direction    XX          YY          ZZ          XY          YZ          ZX
  --------------------------------------------------------------------------------------
  Alpha Z    13.23599    13.23599    13.23599
  Ewald    -303.08351  -303.07336  -303.07336     0.00000     0.77729    -0.00000
  Hartree    19.72683    19.72893    19.72893     0.00000     0.08774    -0.00000
  E(xc)    -101.81266  -101.81279  -101.81279     0.00000    -0.01000    -0.00000
  Local    -116.99174  -117.00364  -117.00364     0.00000    -0.81499    -0.00000
  n-local   309.28052   309.93674   308.62838    -2.38349     0.15915    -0.18209
  augment   -46.05261   -46.05273   -46.05273     0.00000    -0.00706     0.00000
  Kinetic   224.46681   223.21667   225.71635    -3.56051    -0.09939    -0.20821
  Fock        0.00000     0.00000     0.00000     0.00000     0.00000     0.00000
  -------------------------------------------------------------------------------------
  Total      -1.23036    -1.22853    -1.22853     0.00000     0.09274     0.00000
  in kB     -12.11062   -12.09260   -12.09260     0.00000     0.91284     0.00000
  external pressure =      -12.10 kB  Pullay stress =        0.00 kB


 VOLUME and BASIS-vectors are now :
 -----------------------------------------------------------------------------
  energy-cutoff  :      700.00
  volume of cell :      162.77
      direct lattice vectors                 reciprocal lattice vectors
     5.460000000  0.000000000  0.000000000     0.183150183  0.000000000  0.000000000
    -0.000000000  5.460000000  0.000000000    -0.000000000  0.183150183  0.000000000
    -0.000000000 -0.000000000  5.460000000    -0.000000000 -0.000000000  0.183150183

  length of vectors
     5.460000000  5.460000000  5.460000000     0.183150183  0.183150183  0.183150183


 FORCES acting on ions
    electron-ion (+dipol)            ewald-force                    non-local-force                 convergence-correction
 -----------------------------------------------------------------------------------------------
   0.453E+00 0.109E-11 -.963E-08   -.415E+00 0.213E-13 -.178E-13   -.168E+00 -.180E-16 -.302E-16   0.446E-04 0.139E-14 0.180E-14
   0.242E-01 -.925E-14 0.250E-12   -.634E-01 0.000E+00 -.107E-13   0.223E-01 0.686E-17 -.196E-16   -.317E-04 -.149E-14 -.232E-14
   -.120E+00 -.250E-13 -.168E-14   0.121E+00 0.000E+00 -.142E-13   0.843E-02 0.112E-16 -.381E-17   -.442E-05 0.162E-14 -.136E-14
   -.120E+00 -.122E-13 -.120E-13   0.121E+00 0.000E+00 -.107E-13   0.843E-02 -.631E-17 -.183E-16   -.442E-05 -.141E-14 0.204E-14
   -.579E-01 -.176E+00 -.176E+00   0.583E-01 0.151E+00 0.151E+00   0.323E-01 0.489E-01 0.489E-01   -.408E-06 -.199E-04 -.199E-04
   -.579E-01 0.176E+00 0.176E+00   0.583E-01 -.151E+00 -.151E+00   0.323E-01 -.489E-01 -.489E-01   -.408E-06 0.199E-04 0.199E-04
   -.603E-01 0.175E+00 -.175E+00   0.603E-01 -.150E+00 0.150E+00   0.323E-01 -.483E-01 0.483E-01   -.147E-05 0.182E-04 -.182E-04
   -.603E-01 -.175E+00 0.175E+00   0.603E-01 0.150E+00 -.150E+00   0.323E-01 0.483E-01 -.483E-01   -.147E-05 -.182E-04 0.182E-04
 -----------------------------------------------------------------------------------------------
   0.163E-05 0.155E-11 -.964E-08   -.107E-13 -.344E-14 -.222E-15   0.187E-05 -.416E-16 -.486E-16   0.298E-06 0.186E-14 0.165E-14
 
 
 POSITION                                       TOTAL-FORCE (eV/Angst)
 -----------------------------------------------------------------------------------
      2.74000      2.73000      2.73000        -0.130323     -0.000000     -0.000000
      2.73000      0.00000      0.00000        -0.016879     -0.000000     -0.000000
     -0.00000      2.73000      0.00000         0.008658      0.000000      0.000000
     -0.00000     -0.00000      2.73000         0.008658      0.000000      0.000000
      4.09500      4.09500      4.09500         0.032620      0.023648      0.023648
      4.09500      1.36500      1.36500         0.032620     -0.023648     -0.023648
      1.36500      4.09500      1.36500         0.032323     -0.023076      0.023076
      1.36500      1.36500      4.09500         0.032323      0.023076     -0.023076
 -----------------------------------------------------------------------------------
    total drift:                                0.000004      0.000000     -0.000000


--------------------------------------------------------------------------------------------------------



  FREE ENERGIE OF THE ION-ELECTRON SYSTEM (eV)
  ---------------------------------------------------
  free  energy   TOTEN  =       -45.96473305 eV

  energy  without entropy=      -45.96473305  energy(sigma->0) =      -45.96473305
 


--------------------------------------------------------------------------------------------------------


    POTLOK:  cpu time    0.2139: real time    0.2138


--------------------------------------------------------------------------------------------------------


 stress matrix after NEB project (eV)
     -1.23036      0.00000      0.00000
      0.00000     -1.22853      0.09274
      0.00000      0.09274     -1.22853
  FORCES: max atom, RMS     0.130323    0.057013
  FORCE total and by dimension    0.161256    0.130323
  Stress total and by dimension    2.132976    1.230364
     LOOP+:  cpu time   47.1761: real time   47.2130
    4ORBIT:  cpu time    0.0000: real time    0.0000
 


 total charge     
 
# of ion       s       p       d       tot
------------------------------------------
    1        0.752   0.927   0.000   1.680
    2        0.752   0.927   0.000   1.680
    3        0.752   0.927   0.000   1.680
    4        0.752   0.927   0.000   1.680
    5        0.752   0.928   0.000   1.681
    6        0.752   0.928   0.000   1.681
    7        0.752   0.926   0.000   1.679
    8        0.752   0.926   0.000   1.679
--------------------------------------------------
tot          6.018   7.418   0.000  13.436
 


 magnetization (x)
 
# of ion       s       p       d       tot
------------------------------------------
    1       -0.000  -0.000   0.000  -0.000
    2       -0.000  -0.000   0.000  -0.000
    3       -0.000  -0.000   0.000  -0.000
    4       -0.000  -0.000   0.000  -0.000
    5       -0.000  -0.000   0.000  -0.000
    6       -0.000  -0.000   0.000  -0.000
    7       -0.000  -0.000   0.000  -0.000
    8       -0.000  -0.000   0.000  -0.000
--------------------------------------------------
tot         -0.000  -0.000   0.000  -0.000
 

 total amount of memory used by VASP MPI-rank0    36222. kBytes
=======================================================================

   base      :      30000. kBytes
   nonl-proj :       1202. kBytes
   fftplans  :        410. kBytes
   grid      :        860. kBytes
   one-center:          6. kBytes
   wavefun   :       3744. kBytes
 
  
  
 General timing and accounting informations for this job:
 ========================================================
  
                  Total CPU time used (sec):       53.975
                            User time (sec):       52.754
                          System time (sec):        1.221
                         Elapsed time (sec):       55.257
  
                   Maximum memory used (kb):      232564.
                   Average memory used (kb):           0.
  
                          Minor page faults:        22214
                          Major page faults:            0
                 Voluntary context switches:         7089
