------------------------------------------------------------
          Invoking FHI-aims ...

          When using FHI-aims, please cite the following reference:

            Volker Blum, Ralf Gehrke, Felix Hanke, Paula Havu,
            Ville Havu, Xinguo Ren, Karsten Reuter, and Matthias Scheffler,
            'Ab Initio Molecular Simulations with Numeric Atom-Centered Orbitals',
            Computer Physics Communications 180, 2175-2196 (2009)

          In addition, many other developments in FHI-aims are likely important for
          your particular application. If so, please cite them. A partial list of references
          is written at the end of this file. Thank you for giving credit to the authors
          of these developments.

          For general information about FHI-aims please find us at

            https://fhi-aims.org

          Online tutorials can be found at

            https://fhi-aims-club.gitlab.io/tutorials/tutorials-overview/

          For any questions about FHI-aims, please visit our slack channel at

            https://fhi-aims.slack.com

          and our main development and support site at

            https://aims-git.rz-berlin.mpg.de .

          The latter site, in particular, has a wiki to collect information, as well
          as an issue tracker to log discussions, suggest improvements, and report issues
          or bugs. https://aims-git.rz-berlin.mpg.de is also the main development site
          of the project and all new and updated code versions can be obtained there.
          Please send an email to aims-coordinators@fhi-berlin.mpg.de and we will add
          you to these sites. They are for you and everyone is welcome there.

------------------------------------------------------------



  Date     :  20231009, Time     :  142726.116
  Time zero on CPU 1             :   0.297073000000000E+00  s.
  Internal wall clock time zero  :           466093646.116  s.

  FHI-aims created a unique identifier for this run for later identification
  aims_uuid : A56CA8B3-40E5-4494-A2D9-47CE3F18DB54

  Build configuration of the current instance of FHI-aims
  -------------------------------------------------------
  FHI-aims version      : 230813
  Commit number         : 7484aa5be
  CMake host system     : Linux-5.15.0-78-generic
  CMake version         : 3.22.1
  Fortran compiler      : /opt/intel/oneapi/mpi/2021.10.0/bin/mpiifort (Intel) version 2021.10.0.20230609
  Fortran compiler flags: -O3 -ip -fp-model precise
  C compiler            : /opt/intel/oneapi/compiler/2023.2.1/linux/bin/intel64/icc (Intel) version 2021.10.0.20230609
  C compiler flags      : -O3 -ip -fp-model precise -std=gnu99 -diag-disable=10441
  C++ compiler          : /usr/bin/c++ (GNU) version 11.4.0
  C++ compiler flags    :
  HIP compiler          :
  HIP compiler flags    :
  HIP GPU arch          :
  Using MPI
  Using ScaLAPACK
  Using LibXC
  Using i-PI
  Using RLSY
  Linking against: /opt/intel/oneapi/mkl/latest/lib/intel64/libmkl_intel_lp64.so
                   /opt/intel/oneapi/mkl/latest/lib/intel64/libmkl_sequential.so
                   /opt/intel/oneapi/mkl/latest/lib/intel64/libmkl_core.so
                   /opt/intel/oneapi/mkl/latest/lib/intel64/libmkl_blacs_intelmpi_lp64.so
                   /opt/intel/oneapi/mkl/latest/lib/intel64/libmkl_scalapack_lp64.so

  Using        4 parallel tasks.
  Task        0 on host andrey-Latitude-5411 reporting.
  Task        1 on host andrey-Latitude-5411 reporting.
  Task        2 on host andrey-Latitude-5411 reporting.
  Task        3 on host andrey-Latitude-5411 reporting.

  Obtaining array dimensions for all initial allocations:
  
  -----------------------------------------------------------------------
  Parsing control.in (first pass over file, find array dimensions only).
  The contents of control.in will be repeated verbatim below
  unless switched off by setting 'verbatim_writeout .false.' .
  in the first line of control.in .
  -----------------------------------------------------------------------
  
  #===============================================================================
  # Created using the Atomic Simulation Environment (ASE)
  
  # Mon Oct  9 14:27:25 2023
  
  #===============================================================================
  xc                                 pbe
  relativistic                       atomic_zora scalar
  k_grid                             4 4 4
  #===============================================================================
  
  ################################################################################
  #
  #  FHI-aims code project
  #  VB, Fritz-Haber Institut, 2009
  #
  #  Suggested "light" defaults for Si atom (to be pasted into control.in file)
  #  Be sure to double-check any results obtained with these settings for post-processing,
  #  e.g., with the "tight" defaults and larger basis sets.
  #
  #  2020/09/08 Added f function to "light" after reinspection of Delta test outcomes.
  #             This was done for all of Al-Cl and is a tricky decision since it makes
  #             "light" calculations measurably more expensive for these elements.
  #             Nevertheless, outcomes for P, S, Cl (and to some extent, Si) appear
  #             to justify this choice.
  #
  ################################################################################
    species        Si
  #     global species definitions
      nucleus             14
      mass                28.0855
  #
      l_hartree           4
  #
      cut_pot             3.5          1.5  1.0
      basis_dep_cutoff    1e-4
  #
      radial_base         42 5.0
      radial_multiplier   1
      angular_grids       specified
        division   0.5866   50
        division   0.9616  110
        division   1.2249  194
        division   1.3795  302
  #      division   1.4810  434
  #      division   1.5529  590
  #      division   1.6284  770
  #      division   1.7077  974
  #      division   2.4068 1202
  #      outer_grid   974
        outer_grid 302
  ################################################################################
  #
  #  Definition of "minimal" basis
  #
  ################################################################################
  #     valence basis states
      valence      3  s   2.
      valence      3  p   2.
  #     ion occupancy
      ion_occ      3  s   1.
      ion_occ      3  p   1.
  ################################################################################
  #
  #  Suggested additional basis functions. For production calculations,
  #  uncomment them one after another (the most important basis functions are
  #  listed first).
  #
  #  Constructed for dimers: 1.75 A, 2.0 A, 2.25 A, 2.75 A, 3.75 A
  #
  ################################################################################
  #  "First tier" - improvements: -571.96 meV to -37.03 meV
       hydro 3 d 4.2
       hydro 2 p 1.4
       hydro 4 f 6.2
       ionic 3 s auto
  #  "Second tier" - improvements: -16.76 meV to -3.03 meV
  #     hydro 3 d 9
  #     hydro 5 g 9.4
  #     hydro 4 p 4
  #     hydro 1 s 0.65
  #  "Third tier" - improvements: -3.89 meV to -0.60 meV
  #     ionic 3 d auto
  #     hydro 3 s 2.6
  #     hydro 4 f 8.4
  #     hydro 3 d 3.4
  #     hydro 3 p 7.8
  #  "Fourth tier" - improvements: -0.33 meV to -0.11 meV
  #     hydro 2 p 1.6
  #     hydro 5 g 10.8
  #     hydro 5 f 11.2
  #     hydro 3 d 1
  #     hydro 4 s 4.5
  #  Further basis functions that fell out of the optimization - noise
  #  level... < -0.08 meV
  #     hydro 4 d 6.6
  #     hydro 5 g 16.4
  #     hydro 4 d 9
  
  -----------------------------------------------------------------------
  Completed first pass over input file control.in .
  -----------------------------------------------------------------------
  
  
  -----------------------------------------------------------------------
  Parsing geometry.in (first pass over file, find array dimensions only).
  The contents of geometry.in will be repeated verbatim below
  unless switched off by setting 'verbatim_writeout .false.' .
  in the first line of geometry.in .
  -----------------------------------------------------------------------
  
  #===============================================================================
  # Created using the Atomic Simulation Environment (ASE)
  
  # Mon Oct  9 14:27:25 2023
  
  #=======================================================
  lattice_vector 0.0000000000000000 2.7149999999999999 2.7149999999999999
  lattice_vector 2.7149999999999999 0.0000000000000000 2.7149999999999999
  lattice_vector 2.7149999999999999 2.7149999999999999 0.0000000000000000
  atom_frac 0.0000000000000000 0.0000000000000000 -0.0000000000000000 Si
  atom_frac 0.2500000000000000 0.2500000000000000 0.2500000000000000 Si
  
  -----------------------------------------------------------------------
  Completed first pass over input file geometry.in .
  -----------------------------------------------------------------------
  

  Basic array size parameters:
  | Number of species                 :        1
  | Number of atoms                   :        2
  | Number of lattice vectors         :        3
  | Max. basis fn. angular momentum   :        3
  | Max. atomic/ionic basis occupied n:        3
  | Max. number of basis fn. types    :        3
  | Max. radial fns per species/type  :        5
  | Max. logarithmic grid size        :     1346
  | Max. radial integration grid size :       42
  | Max. angular integration grid size:      302
  | Max. angular grid division number :        8
  | Radial grid for Hartree potential :     1346
  | Number of spin channels           :        1

------------------------------------------------------------
          Reading file control.in.
------------------------------------------------------------
  XC: Using PBE gradient-corrected functionals.
  Scalar relativistic treatment of kinetic energy: on-site free-atom approximation to ZORA.
  Found k-point grid:         4         4         4
 
  Reading configuration options for species Si                  .
  | Found nuclear charge :  14.0000
  | Found atomic mass :    28.0855000000000      amu
  | Found l_max for Hartree potential  :   4
  | Found cutoff potl. onset [A], width [A], scale factor :    3.50000    1.50000    1.00000
  | Threshold for basis-dependent cutoff potential is   0.100000E-03
  | Found data for basic radial integration grid :    42 points, outermost radius =    5.000 A
  | Found multiplier for basic radial grid :   1
  | Found angular grid specification: user-specified.
  | Specified grid contains     5 separate shells.
  | Check grid settings after all constraints further below.
  | Found free-atom valence shell :  3 s   2.000
  | Found free-atom valence shell :  3 p   2.000
  | Found free-ion valence shell :  3 s   1.000
  | Found free-ion valence shell :  3 p   1.000
  | Found hydrogenic basis function :  3 d   4.200
  | Found hydrogenic basis function :  2 p   1.400
  | Found hydrogenic basis function :  4 f   6.200
  | Found ionic basis function :  3 s , default cutoff radius.
  Species Si                  : Missing cutoff potential type.
  Defaulting to exp(1/x)/(1-x)^2 type cutoff potential.
  Species Si: No 'logarithmic' tag. Using default grid for free atom:
  | Default logarithmic grid data [bohr] : 0.1000E-03 0.1000E+03 0.1012E+01
  | Will include ionic basis functions of  2.0-fold positive Si                   ion.
  Species Si: On-site basis accuracy parameter (for Gram-Schmidt orthonormalisation) not specified.
  Using default value basis_acc =  0.1000000E-03.
  Species Si                  : Using default innermost maximum threshold i_radial=  2 for radial functions.
  Species Si                  : Default cutoff onset for free atom density etc. : 0.35000000E+01 AA.
  Species Si                  : Basic radial grid will be enhanced according to radial_multiplier =   1, to contain    42 grid points.
 
  Finished reading input file 'control.in'.
 
------------------------------------------------------------


------------------------------------------------------------
          Reading geometry description geometry.in.
------------------------------------------------------------
  | The smallest distance between any two atoms is         2.35125897 AA.
  | The first atom of this pair is atom number                      1 .
  | The second atom of this pair is atom number                     2 .
  | Wigner-Seitz cell of the first atom image           0     1     0 .
  | (The Wigner-Seitz cell of the second atom is 0 0 0  by definition.)

  Symmetry information by spglib:
  | Precision set to  0.1E-04
  | Number of Operations  : 48
  | Space group           : 227
  | International         : Fd-3m
  | Schoenflies           : Oh^7
  Input structure read successfully.
  The structure contains        2 atoms,  and a total of         28.000 electrons.

  Input geometry:
  | Unit cell:
  |        0.00000000        2.71500000        2.71500000
  |        2.71500000        0.00000000        2.71500000
  |        2.71500000        2.71500000        0.00000000
  | Atomic structure:
  |       Atom                x [A]            y [A]            z [A]
  |    1: Species Si            0.00000000        0.00000000        0.00000000
  |    2: Species Si            1.35750000        1.35750000        1.35750000

  Lattice parameters for 3D lattice (in Angstroms) :     3.839590    3.839590    3.839590
  Angle(s) between unit vectors (in degrees)       :    60.000000   60.000000   60.000000


  Quantities derived from the lattice vectors (in Angstrom^-1):
  | Reciprocal lattice vector 1: -1.157124  1.157124  1.157124
  | Reciprocal lattice vector 2:  1.157124 -1.157124  1.157124
  | Reciprocal lattice vector 3:  1.157124  1.157124 -1.157124
  | Unit cell volume                               :   0.400258E+02  Angstrom^3

  Fractional coordinates:
                         L1                L2                L3
       atom_frac         0.00000000        0.00000000        0.00000000  Si
       atom_frac         0.25000000        0.25000000        0.25000000  Si

 
  Finished reading input file 'geometry.in'.
 

 
  Consistency checks for stacksize environment parameter are next.
 
  | Maximum stacksize for task 0: unlimited
  | Maximum stacksize for task 1: unlimited
  | Maximum stacksize for task 2: unlimited
  | Maximum stacksize for task 3: unlimited
  | Current stacksize for task 0: unlimited
  | Current stacksize for task 1: unlimited
  | Current stacksize for task 2: unlimited
  | Current stacksize for task 3: unlimited
 
  Consistency checks for the contents of control.in are next.
 
  MPI_IN_PLACE appears to work with this MPI implementation.
  | Keeping use_mpi_in_place .true. (see manual).
  Target number of points in a grid batch is not set. Defaulting to  100
  Method for grid partitioning is not set. Defaulting to parallel hash+maxmin partitioning.
  Batch size limit is not set. Defaulting to    200
  By default, will store active basis functions for each batch.
  If in need of memory, prune_basis_once .false. can be used to disable this option.
  communication_type for Hartree potential was not specified.
  Defaulting to calc_hartree .
  Defaulting to Pulay charge density mixer.
  Pulay mixer: Number of relevant iterations not set.
  Defaulting to    8 iterations.
  Pulay mixer: Number of initial linear mixing iterations not set.
  Defaulting to    0 iterations.
  Work space size for distributed Hartree potential not set.
  Defaulting to   0.200000E+03 MB.
  Mixing parameter for charge density mixing has not been set.
  Using default: charge_mix_param =     0.0500.
  The mixing parameter will be adjusted in iteration number     2 of the first full s.c.f. cycle only.
  Algorithm-dependent basis array size parameters:
  | n_max_pulay                         :        8
  Maximum number of self-consistency iterations not provided.
  Presetting  1000 iterations.
  Presetting      1001 iterations before the initial mixing cycle
  is restarted anyway using the sc_init_iter criterion / keyword.
  Presetting a factor      1.000 between actual scf density residual
  and density convergence criterion sc_accuracy_rho below which sc_init_iter
  takes no effect.
 * No s.c.f. convergence criteria (sc_accuracy_*) were provided in control.in.
 * The run will proceed with a reasonable default guess, but please check whether.
 * the s.c.f. cycles seem to take too much or too little time.
  Calculation of forces was not defined in control.in. No forces will be calculated.
  Geometry relaxation not requested: no relaxation will be performed.
 * Notice: The s.c.f. convergence criterion sc_accuracy_rho was not provided.
 * We used to stop in this case, and ask the user to provide reasonable
 * scf convergence criteria. However, this led some users to employ criteria
 * that led to extremely long run times, e.g., for simple relaxation.
 * We now preset a default value for sc_accuracy_rho if it is not set.
 * You may still wish to check if this setting is too tight or too loose for your needs.
 * Based on n_atoms and forces and force-correction status, FHI-aims chose sc_accuracy_rho =  0.800000E-05 .
  No accuracy limit for integral partition fn. given. Defaulting to  0.1000E-14.
  No threshold value for u(r) in integrations given. Defaulting to  0.1000E-05.
  No occupation type (smearing scheme) given. Defaulting to Gaussian broadening, width =  0.1000E-01 eV.
  The width will be adjusted in iteration number     2 of the first full s.c.f. cycle only.
  S.C.F. convergence parameters will be adjusted in iteration number     2 of the first full s.c.f. cycle only.
  No accuracy for occupation numbers given. Defaulting to  0.1000E-12.
  No threshold value for occupation numbers given. Defaulting to  0.0000E+00.
  No accuracy for fermi level given. Defaulting to  0.1000E-19.
  Maximum # of iterations to find E_F not set. Defaulting to  200.
  Preferred method for the eigenvalue solver ('KS_method') not specified in 'control.in'.
  Defaulting to serial version, LAPACK (via ELSI), since more k-points than CPUs available.
  Will not use alltoall communication since running on < 1024 CPUs.
  Threshold for basis singularities not set.
  Default threshold for basis singularities:  0.1000E-04
  partition_type (choice of integration weights) for integrals was not specified.
  | Using a version of the partition function of Stratmann and coworkers ('stratmann_sparse').
  | At each grid point, the set of atoms used to build the partition table is smoothly restricted to
  | only those atoms whose free-atom density would be non-zero at that grid point.
  Partitioning for Hartree potential was not defined. Using partition_type for integrals.
  | Adjusted default value of keyword multip_moments_threshold to:       0.10000000E-11
  | This value may affect high angular momentum components of the Hartree potential in periodic systems.
  Spin handling was not defined in control.in. Defaulting to unpolarized case.
  Angular momentum expansion for Kerker preconditioner not set explicitly.
  | Using default value of   0
  No explicit requirement for turning off preconditioner.
  | By default, it will be turned off when the charge convergence reaches
  | sc_accuracy_rho  =   0.800000E-05
  No special mixing parameter while Kerker preconditioner is on.
  Using default: charge_mix_param =     0.0500.
  No q(lm)/r^(l+1) cutoff set for long-range Hartree potential.
  | Using default value of  0.100000E-09 .
  | Verify using the multipole_threshold keyword.
  Defaulting to new monopole extrapolation.
  Density update method: automatic selection selected.
  Using density matrix based charge density update.
  Using density matrix based charge density update.
  Using packed matrix style: index .
  Defaulting to use time-reversal symmetry for k-point grid.
  Charge integration errors on the 3D integration grid will be compensated
  by explicit normalization and distribution of residual charges.
  Use the "compensate_multipole_errors" flag to change this behaviour.
  Set 'collect_eigenvectors' to be '.true.' for all serial calculations. This is mandatory.
  Set 'collect_eigenvectors' to be '.true.' for KS_method lapack_fast and serial.
 
  Consistency checks for the contents of geometry.in are next.
 

  Range separation radius for Ewald summation (hartree_convergence_parameter):      3.88818726 bohr.
  Number of empty states per atom not set in control.in - providing a guess from actual geometry.
  | Total number of empty states used during s.c.f. cycle:        6
  If you use a very high smearing, use empty_states (per atom!) in control.in to increase this value.

  Structure-dependent array size parameters: 
  | Maximum number of distinct radial functions  :        9
  | Maximum number of basis functions            :       50
  | Number of Kohn-Sham states (occupied + empty):       20
------------------------------------------------------------
  After read_input_data [GB]:     22.33

  Performing system and environment tests:
  | Environment variable OMP_NUM_THREADS correctly set to 1.
  | Checking for ScaLAPACK...
  | Testing pdtran()...
  | All pdtran() tests passed.
  After prepare_system [GB]:     22.30

------------------------------------------------------------
          Preparing all fixed parts of the calculation.
------------------------------------------------------------
  Determining machine precision:
    2.225073858507201E-308
  Setting up grids for atomic and cluster calculations.

  Creating wave function, potential, and density for free atoms.
  Runtime choices for atomic solver:
  | atomic solver xc        : PBE
  | compute density gradient: 1
  | compute kinetic density : F

  Species: Si

  List of occupied orbitals and eigenvalues:
    n    l              occ      energy [Ha]    energy [eV]
    1    0           2.0000       -65.767597     -1789.6274
    2    0           2.0000        -5.115610      -139.2028
    3    0           2.0000        -0.388877       -10.5819
    2    1           6.0000        -3.500197       -95.2452
    3    1           2.0000        -0.140803        -3.8315


  Adding cutoff potential to free-atom effective potential.
  Creating fixed part of basis set: Ionic, confined, hydrogenic.
 
  Si                   ion:

  List of free ionic orbitals and eigenvalues:
    n    l      energy [Ha]    energy [eV]
    1    0       -66.641157     -1813.3982
    2    0        -5.964274      -162.2962
    3    0        -1.073878       -29.2217
    2    1        -4.350005      -118.3697
    3    1        -0.776571       -21.1316


  List of ionic basis orbitals and eigenvalues:
    n    l      energy [Ha]    energy [eV]    outer radius [A]
    3    0        -1.073857       -29.2211       4.214062

 
  Si                   hydrogenic:
 
  List of hydrogenic basis orbitals: 
    n    l      effective z      eigenvalue [eV]  inner max. [A]     outer max. [A]     outer radius [A]   
    3    2         4.200000       -26.6624           1.139231           1.139231           4.534782
    2    1         1.400000        -6.4613           1.472672           1.472672           4.590560
    4    3         6.200000       -32.6778           1.368518           1.368518           4.534782
 
  Creating atomic-like basis functions for current effective potential.

  Species Si                  :

  List of atomic basis orbitals and eigenvalues:
    n    l      energy [Ha]    energy [eV]    outer radius [A]
    1    0       -65.767597     -1789.6274       0.789468
    2    0        -5.115610      -139.2028       2.815114
    3    0        -0.388877       -10.5819       4.534782
    2    1        -3.500197       -95.2452       3.259919
    3    1        -0.140803        -3.8315       4.590560

  Assembling full basis from fixed parts.
  | Species Si :   atomic orbital   1 s accepted.
  | Species Si :   atomic orbital   2 s accepted.
  | Species Si :    ionic orbital   3 s accepted.
  | Species Si :   atomic orbital   3 s accepted.
  | Species Si :   atomic orbital   2 p accepted.
  | Species Si :   atomic orbital   3 p accepted.
  | Species Si :    hydro orbital   2 p accepted.
  | Species Si :    hydro orbital   3 d accepted.
  | Species Si :    hydro orbital   4 f accepted.
 
  Basis size parameters after reduction:
  | Total number of radial functions:        9
  | Total number of basis functions :       50
 
  Per-task memory consumption for arrays in subroutine allocate_ext:
  |           3.102808MB.
  Testing on-site integration grid accuracy.
  |  Species  Function  <phi|h_atom|phi> (log., in eV)  <phi|h_atom|phi> (rad., in eV)
           1        1              -1789.6273740966              -1789.6266345813
           1        2               -139.2028173376               -139.2028132357
           1        3                -10.2237226190                -10.2235219160
           1        4                  5.6355365073                  5.5558633521 ***
           1        5                -95.2452114632                -95.2452114537
           1        6                 -3.8413965043                 -3.8571292824
           1        7                  6.4035522332                  6.2277973139 ***
           1        8                  6.3860095444                  6.3839142324
           1        9                 19.3722793793                 19.3677446767
 * Note: Onsite integrals marked "***" above are less accurate than
 * onsite_accuracy_threshold =    0.03000 eV. Usually, this is harmless.
 * When in doubt, tighten the "radial" and/or "radial_multiplier" flags to check.

  Preparing densities etc. for the partition functions (integrals / Hartree potential).

  Preparations completed.
  max(cpu_time)          :      0.119 s.
  Wall clock time (cpu1) :      0.118 s.
------------------------------------------------------------
  After prepare_scf [GB]:     22.26

  Initializing index lists of integration centers etc. from given atomic structure:
  Mapping all atomic coordinates to central unit cell.

  Initializing the k-points
  Using symmetry for reducing the k-points
  | k-points reduced from:       64 to       36
  | Number of k-points                             :        36
  The eigenvectors in the calculations are COMPLEX.
  | K-points in task   0:         9
  | K-points in task   1:         9
  | K-points in task   2:         9
  | K-points in task   3:         9
  | Number of basis functions in the Hamiltonian integrals :      2179
  | Number of basis functions in a single unit cell        :        50
  | Number of centers in hartree potential         :       732
  | Number of centers in hartree multipole         :       318
  | Number of centers in electron density summation:       198
  | Number of centers in basis integrals           :       228
  | Number of centers in integrals                 :       101
  | Number of centers in hamiltonian               :       198
  | Consuming         63 KiB for k_phase.
  | Number of super-cells (origin) [n_cells]                     :        2197
  | Number of super-cells (after PM_index) [n_cells]             :         112
  | Number of super-cells in hamiltonian [n_cells_in_hamiltonian]:         112
  | Size of matrix packed + index [n_hamiltonian_matrix_size] :       89403
  After initialize_bc_dependent_lists [GB]:     22.26

------------------------------------------------------------
          Begin self-consistency loop: Initialization.

          Date     :  20231009, Time     :  142726.285
------------------------------------------------------------
  Available memory per node after initialize_hartree_non_periodic_ewald [GB]:     22.26
  | Estimated reciprocal-space cutoff momentum G_max:         2.40094914 bohr^-1 .
  | Reciprocal lattice points for long-range Hartree potential:      58
  Available memory per node after initialize_recip_hartree_potential [GB]:     22.26
  Available memory per node after initialize_scalapack [GB]:     22.26
  Available memory per node after aims_elsi_init_scf [GB]:     22.26
  Available memory per node after initialize_fixed_grids [GB]:     22.26
  Partitioning the integration grid into batches with parallel hashing+maxmin method.
  | Number of batches:      141
  | Maximal batch size:     107
  | Minimal batch size:      50
  | Average batch size:      79.489
  | Standard deviation of batch sizes:      15.046

  Integration load balanced across     4 MPI tasks.
  Work distribution over tasks is as follows:
  Task     0 has       2848 integration points.
  Task     1 has       2793 integration points.
  Task     2 has       2765 integration points.
  Task     3 has       2802 integration points.
  Available memory per node after partition_grid [GB]:     22.26
  Initializing partition tables, free-atom densities, potentials, etc. across the integration grid (initialize_grid_storage).
  | initialize_grid_storage: Actual outermost partition radius vs. multipole_radius_free
  | (-- VB: in principle, multipole_radius_free should be larger, hence this output)
  | Species        1: Confinement radius =              4.999999999999999 AA, multipole_radius_free =              5.000694715736543 AA.
  | Species        1: outer_partition_radius set to              5.000694715736543 AA .
  | The sparse table of interatomic distances needs        255.65 kbyte instead of       415.87 kbyte of memory.
  | Net number of integration points:    11208
  | of which are non-zero points    :     9820
  | Numerical average free-atom electrostatic potential    :    -13.13394093 eV
  Available memory per node after initialize_grid_storage_p1 [GB]:     22.25
  Renormalizing the initial density to the exact electron count on the 3D integration grid.
  | Initial density: Formal number of electrons (from input files) :      28.0000000000
  | Integrated number of electrons on 3D grid     :      28.0049838157
  | Charge integration error                      :       0.0049838157
  | Normalization factor for density and gradient :       0.9998220383
  Renormalizing the free-atom superposition density to the exact electron count on the 3D integration grid.
  | Formal number of electrons (from input files) :      28.0000000000
  | Integrated number of electrons on 3D grid     :      28.0049838157
  | Charge integration error                      :       0.0049838157
  | Normalization factor for density and gradient :       0.9998220383
  Obtaining max. number of non-zero basis functions in each batch (get_n_compute_maxes).
  | Maximal number of non-zero basis functions:      694 in task     0
  | Maximal number of non-zero basis functions:      694 in task     1
  | Maximal number of non-zero basis functions:      691 in task     2
  | Maximal number of non-zero basis functions:      685 in task     3
  Available memory per node after get_n_compute_maxes_p1 [GB]:     22.25
  Allocating        0.137 MB for KS_eigenvector_complex
  Available memory per node after allocate_matrices [GB]:     22.25
  Available memory per node after init_comm_sparse_local_matrix_scalapack [GB]:     22.25
  Integrating Hamiltonian matrix: batch-based integration.
  Time summed over all CPUs for integration: real work        0.765 s, elapsed        0.784 s
  Available memory per node after integrate hamiltonian matrix [GB]:     22.23
  Integrating overlap matrix.
  Time summed over all CPUs for integration: real work        0.541 s, elapsed        0.581 s
  Available memory per node after integrate ovlp matrix [GB]:     22.22
  Available memory per node after ASI_callbacks invoke [GB]:     22.22
  Decreasing sparse matrix size:
  | Tolerance:  0.1000E-12
  Hamiltonian matrix
  | Array has    77221 nonzero elements out of    89403 elements
  | Sparsity factor is 0.136
  Overlap matrix
  | Array has    74518 nonzero elements out of    89403 elements
  | Sparsity factor is 0.166
  New size of hamiltonian matrix:       77719
  Available memory per node after save_overlap_scalapack [GB]:     22.22

  Updating Kohn-Sham eigenvalues and eigenvectors using ELSI and the (modified) LAPACK eigensolver.
  Singularity check in k-point 4, task 0 (analysis for other k-points/tasks may follow below):
  Overlap matrix is not singular
  | Lowest and highest eigenvalues :  0.6373E-03,  0.7419E+01
  Finished singularity check of overlap matrix
  | Time :     0.001 s
  Starting LAPACK eigensolver
  Finished Cholesky decomposition
  | Time :     0.000 s
  Finished transformation to standard eigenproblem
  | Time :     0.000 s
  Finished solving standard eigenproblem
  | Time :     0.000 s
  Finished back-transformation of eigenvectors
  | Time :     0.000 s

  Obtaining occupation numbers and electronic chemical potential using ELSI.
  | Note that, for insulating systems, the printed 'chemical potential' value is not uniquely defined.
  | It can be anywhere in the energy gap, as long as it correctly separates occupied and unoccupied states.
  | In systems with a gap, the physically relevant chemical potential is the VBM or HOMO.

  | Chemical potential (Fermi level):    -5.48706590 eV
  Available memory per node after advance_KS_solution [GB]:     22.22
  Writing Kohn-Sham eigenvalues.
  K-point:       1 at    0.000000    0.000000    0.000000 (in units of recip. lattice)

  State    Occupation    Eigenvalue [Ha]    Eigenvalue [eV]
      1       2.00000         -65.789115        -1790.21291
      2       2.00000         -65.789115        -1790.21291
      3       2.00000          -5.141764         -139.91451
      4       2.00000          -5.141478         -139.90674
      5       2.00000          -3.526367          -95.95733
      6       2.00000          -3.526367          -95.95733
      7       2.00000          -3.526367          -95.95733
      8       2.00000          -3.525741          -95.94029
      9       2.00000          -3.525741          -95.94029
     10       2.00000          -3.525741          -95.94029
     11       2.00000          -0.662177          -18.01875
     12       2.00000          -0.226113           -6.15285
     13       2.00000          -0.226113           -6.15285
     14       2.00000          -0.226113           -6.15285
     15       0.00000          -0.123886           -3.37110
     16       0.00000          -0.123886           -3.37110
     17       0.00000          -0.123886           -3.37110
     18       0.00000          -0.102335           -2.78468
     19       0.00000           0.072041            1.96033
     20       0.00000           0.072041            1.96033

  What follows are estimated values for band gap, HOMO, LUMO, etc.
  | They are estimated on a discrete k-point grid and not necessarily exact.
  | For converged numbers, create a DOS and/or band structure plot on a denser k-grid.

  Highest occupied state (VBM) at     -6.15284783 eV (relative to internal zero)
  | Occupation number:      2.00000000
  | K-point:       1 at    0.000000    0.000000    0.000000 (in units of recip. lattice)

  Lowest unoccupied state (CBM) at    -5.13562258 eV (relative to internal zero)
  | Occupation number:      0.00000000
  | K-point:      29 at    0.500000    0.500000    0.000000 (in units of recip. lattice)

  ESTIMATED overall HOMO-LUMO gap:      1.01722526 eV between HOMO at k-point 1 and LUMO at k-point 29
  | This appears to be an indirect band gap.
  | Smallest direct gap :      2.78175086 eV for k_point 1 at    0.000000    0.000000    0.000000 (in units of recip. lattice)
  The gap value is above 0.2 eV. Unless you are using a very sparse k-point grid,
  this system is most likely an insulator or a semiconductor.
  Calculating total energy contributions from superposition of free atom densities.

  Total energy components:
  | Sum of eigenvalues            :        -329.30358265 Ha       -8960.80640468 eV
  | XC energy correction          :         -41.72346576 Ha       -1135.35326941 eV
  | XC potential correction       :          53.88391950 Ha        1466.25605176 eV
  | Free-atom electrostatic energy:        -263.59230454 Ha       -7172.71155008 eV
  | Hartree energy correction     :           0.00000000 Ha           0.00000000 eV
  | Entropy correction            :           0.00000000 Ha           0.00000000 eV
  | ---------------------------
  | Total energy                  :        -580.73543345 Ha      -15802.61517241 eV
  | Total energy, T -> 0          :        -580.73543345 Ha      -15802.61517241 eV  <-- do not rely on this value for anything but (periodic) metals
  | Electronic free energy        :        -580.73543345 Ha      -15802.61517241 eV

  Derived energy quantities:
  | Kinetic energy                :         582.31713432 Ha       15845.65544284 eV
  | Electrostatic energy          :       -1121.32910201 Ha      -30512.91734584 eV
  | Energy correction for multipole
  | error in Hartree potential    :           0.00000000 Ha           0.00000000 eV
  | Sum of eigenvalues per atom                           :       -4480.40320234 eV
  | Total energy (T->0) per atom                          :       -7901.30758620 eV  <-- do not rely on this value for anything but (periodic) metals
  | Electronic free energy per atom                       :       -7901.30758620 eV
  Initialize hartree_potential_storage
  Max. number of atoms included in rho_multipole:            2

  End scf initialization - timings             :  max(cpu_time)    wall_clock(cpu1)
  | Time for scf. initialization                :        0.464 s           0.464 s
  | Boundary condition initialization           :        0.022 s           0.023 s
  | Integration                                 :        0.345 s           0.345 s
  | Solution of K.-S. eqns.                     :        0.012 s           0.012 s
  | Grid partitioning                           :        0.017 s           0.017 s
  | Preloading free-atom quantities on grid     :        0.077 s           0.078 s
  | Free-atom superposition energy              :        0.010 s           0.010 s
  | Total energy evaluation                     :        0.000 s           0.000 s

  Partial memory accounting:
  | Current value for overall tracked memory usage:
  |   Minimum:        1.653 MB (on task 0)
  |   Maximum:        1.653 MB (on task 0)
  |   Average:        1.653 MB
  | Peak value for overall tracked memory usage:
  |   Minimum:        7.150 MB (on task 3 after allocating wave)
  |   Maximum:        7.266 MB (on task 0 after allocating wave)
  |   Average:        7.227 MB
  | Largest tracked array allocation so far:
  |   Minimum:        3.580 MB (hamiltonian_shell on task 3)
  |   Maximum:        3.675 MB (hamiltonian_shell on task 0)
  |   Average:        3.643 MB
  Note:  These values currently only include a subset of arrays which are explicitly tracked.
  The "true" memory usage will be greater.
------------------------------------------------------------
  Available memory after initialize_scf [GB]:     22.22
  Available memory after allocating mixing [GB]:     22.22
  Evaluating new KS density using the density matrix
  Evaluating density matrix
  Time summed over all CPUs for getting density from density matrix: real work        1.639 s, elapsed        1.678 s
  Integration grid: deviation in total charge (<rho> - N_e) =  -1.065814E-14

  Time for density update prior                :  max(cpu_time)    wall_clock(cpu1)
  | self-consistency iterative process          :        0.422 s           0.422 s
  Available memory before start of SCF loop [GB]:     22.20

------------------------------------------------------------
          Begin self-consistency iteration #    1

  Date     :  20231009, Time     :  142727.171
------------------------------------------------------------
  Pulay mixing of updated and previous charge densities.
  Available memory per node after mixing [GB]:     22.20
  Renormalizing the density to the exact electron count on the 3D integration grid.
  | Formal number of electrons (from input files) :      28.0000000000
  | Integrated number of electrons on 3D grid     :      27.9997946006
  | Charge integration error                      :      -0.0002053994
  | Normalization factor for density and gradient :       1.0000073357

  Evaluating partitioned Hartree potential by multipole expansion.
  | Original multipole sum: apparent total charge =  -0.972820E-14
  | Sum of charges compensated after spline to logarithmic grids =  -0.452675E-05
  | Analytical far-field extrapolation by fixed multipoles:
  | Hartree multipole sum: apparent total charge =   0.000000E+00
  Summing up the Hartree potential.
  Time summed over all CPUs for potential: real work        0.034 s, elapsed        0.034 s
  | RMS charge density error from multipole expansion :   0.578382E-03
  | Average real-space part of the electrostatic potential :      0.02042287 eV

  Integrating Hamiltonian matrix: batch-based integration.
  Time summed over all CPUs for integration: real work        0.690 s, elapsed        0.715 s

  Updating Kohn-Sham eigenvalues and eigenvectors using ELSI and the (modified) LAPACK eigensolver.
  Starting LAPACK eigensolver
  Finished Cholesky decomposition
  | Time :     0.001 s
  Finished transformation to standard eigenproblem
  | Time :     0.000 s
  Finished solving standard eigenproblem
  | Time :     0.000 s
  Finished back-transformation of eigenvectors
  | Time :     0.000 s

  Obtaining occupation numbers and electronic chemical potential using ELSI.
  | Note that, for insulating systems, the printed 'chemical potential' value is not uniquely defined.
  | It can be anywhere in the energy gap, as long as it correctly separates occupied and unoccupied states.
  | In systems with a gap, the physically relevant chemical potential is the VBM or HOMO.

  | Chemical potential (Fermi level):    -5.46418325 eV
  Writing Kohn-Sham eigenvalues.
  K-point:       1 at    0.000000    0.000000    0.000000 (in units of recip. lattice)

  State    Occupation    Eigenvalue [Ha]    Eigenvalue [eV]
      1       2.00000         -65.786515        -1790.14216
      2       2.00000         -65.786515        -1790.14216
      3       2.00000          -5.139874         -139.86308
      4       2.00000          -5.139588         -139.85531
      5       2.00000          -3.524418          -95.90429
      6       2.00000          -3.524418          -95.90429
      7       2.00000          -3.524418          -95.90429
      8       2.00000          -3.523792          -95.88726
      9       2.00000          -3.523792          -95.88726
     10       2.00000          -3.523792          -95.88726
     11       2.00000          -0.661363          -17.99660
     12       2.00000          -0.225045           -6.12378
     13       2.00000          -0.225045           -6.12378
     14       2.00000          -0.225045           -6.12378
     15       0.00000          -0.123260           -3.35409
     16       0.00000          -0.123260           -3.35409
     17       0.00000          -0.123260           -3.35409
     18       0.00000          -0.101104           -2.75118
     19       0.00000           0.072626            1.97624
     20       0.00000           0.072626            1.97624

  What follows are estimated values for band gap, HOMO, LUMO, etc.
  | They are estimated on a discrete k-point grid and not necessarily exact.
  | For converged numbers, create a DOS and/or band structure plot on a denser k-grid.

  Highest occupied state (VBM) at     -6.12377766 eV (relative to internal zero)
  | Occupation number:      2.00000000
  | K-point:       1 at    0.000000    0.000000    0.000000 (in units of recip. lattice)

  Lowest unoccupied state (CBM) at    -5.12569391 eV (relative to internal zero)
  | Occupation number:      0.00000000
  | K-point:      25 at    0.500000    0.000000    0.500000 (in units of recip. lattice)

  ESTIMATED overall HOMO-LUMO gap:      0.99808375 eV between HOMO at k-point 1 and LUMO at k-point 25
  | This appears to be an indirect band gap.
  | Smallest direct gap :      2.76969118 eV for k_point 1 at    0.000000    0.000000    0.000000 (in units of recip. lattice)
  The gap value is above 0.2 eV. Unless you are using a very sparse k-point grid,
  this system is most likely an insulator or a semiconductor.

  Total energy components:
  | Sum of eigenvalues            :        -329.25527515 Ha       -8959.49189081 eV
  | XC energy correction          :         -41.72691916 Ha       -1135.44724130 eV
  | XC potential correction       :          53.88838711 Ha        1466.37762172 eV
  | Free-atom electrostatic energy:        -263.59230454 Ha       -7172.71155008 eV
  | Hartree energy correction     :          -0.04870757 Ha          -1.32540033 eV
  | Entropy correction            :           0.00000000 Ha           0.00000000 eV
  | ---------------------------
  | Total energy                  :        -580.73481931 Ha      -15802.59846080 eV
  | Total energy, T -> 0          :        -580.73481931 Ha      -15802.59846080 eV  <-- do not rely on this value for anything but (periodic) metals
  | Electronic free energy        :        -580.73481931 Ha      -15802.59846080 eV

  Derived energy quantities:
  | Kinetic energy                :         582.33559076 Ha       15846.15766822 eV
  | Electrostatic energy          :       -1121.34349091 Ha      -30513.30888772 eV
  | Energy correction for multipole
  | error in Hartree potential    :           0.00074935 Ha           0.02039088 eV
  | Sum of eigenvalues per atom                           :       -4479.74594541 eV
  | Total energy (T->0) per atom                          :       -7901.29923040 eV  <-- do not rely on this value for anything but (periodic) metals
  | Electronic free energy per atom                       :       -7901.29923040 eV
  Evaluating new KS density using the density matrix
  Evaluating density matrix
  Time summed over all CPUs for getting density from density matrix: real work        1.560 s, elapsed        1.609 s
  Integration grid: deviation in total charge (<rho> - N_e) =  -7.105427E-15

  Self-consistency convergence accuracy:
  | Change of charge density      :  0.1171E+00
  | Change of unmixed KS density  :  0.3262E+02
  | Change of sum of eigenvalues  :  0.1315E+01 eV
  | Change of total energy        :  0.1671E-01 eV


------------------------------------------------------------
  End self-consistency iteration #     1       :  max(cpu_time)    wall_clock(cpu1)
  | Time for this iteration                     :        0.684 s           0.684 s
  | Charge density update                       :        0.404 s           0.405 s
  | Density mixing & preconditioning            :        0.055 s           0.055 s
  | Hartree multipole update                    :        0.001 s           0.001 s
  | Hartree multipole summation                 :        0.036 s           0.035 s
  | Integration                                 :        0.180 s           0.181 s
  | Solution of K.-S. eqns.                     :        0.007 s           0.007 s
  | Total energy evaluation                     :        0.000 s           0.000 s

  Partial memory accounting:
  | Current value for overall tracked memory usage:
  |   Minimum:        3.193 MB (on task 2)
  |   Maximum:        3.240 MB (on task 0)
  |   Average:        3.214 MB
  | Peak value for overall tracked memory usage:
  |   Minimum:       10.149 MB (on task 3 after allocating gradient_basis_wave)
  |   Maximum:       10.314 MB (on task 0 after allocating gradient_basis_wave)
  |   Average:       10.242 MB
  | Largest tracked array allocation so far:
  |   Minimum:        3.580 MB (hamiltonian_shell on task 3)
  |   Maximum:        3.675 MB (hamiltonian_shell on task 0)
  |   Average:        3.643 MB
  Note:  These values currently only include a subset of arrays which are explicitly tracked.
  The "true" memory usage will be greater.
------------------------------------------------------------

------------------------------------------------------------
          Begin self-consistency iteration #    2

  Date     :  20231009, Time     :  142727.855
------------------------------------------------------------
  Pulay mixing of updated and previous charge densities.
  Available memory per node after mixing [GB]:     22.18
  Renormalizing the density to the exact electron count on the 3D integration grid.
  | Formal number of electrons (from input files) :      28.0000000000
  | Integrated number of electrons on 3D grid     :      27.9964298516
  | Charge integration error                      :      -0.0035701484
  | Normalization factor for density and gradient :       1.0001275216

  Evaluating partitioned Hartree potential by multipole expansion.
  | Original multipole sum: apparent total charge =  -0.231398E-13
  | Sum of charges compensated after spline to logarithmic grids =  -0.853493E-04
  | Analytical far-field extrapolation by fixed multipoles:
  | Hartree multipole sum: apparent total charge =   0.000000E+00
  Summing up the Hartree potential.
  Time summed over all CPUs for potential: real work        0.041 s, elapsed        0.042 s
  | RMS charge density error from multipole expansion :   0.108981E-01
  | Average real-space part of the electrostatic potential :      0.38092233 eV

  Integrating Hamiltonian matrix: batch-based integration.
  Time summed over all CPUs for integration: real work        0.713 s, elapsed        0.724 s

  Updating Kohn-Sham eigenvalues and eigenvectors using ELSI and the (modified) LAPACK eigensolver.
  Starting LAPACK eigensolver
  Finished Cholesky decomposition
  | Time :     0.000 s
  Finished transformation to standard eigenproblem
  | Time :     0.000 s
  Finished solving standard eigenproblem
  | Time :     0.000 s
  Finished back-transformation of eigenvectors
  | Time :     0.000 s

  Obtaining occupation numbers and electronic chemical potential using ELSI.
  | Note that, for insulating systems, the printed 'chemical potential' value is not uniquely defined.
  | It can be anywhere in the energy gap, as long as it correctly separates occupied and unoccupied states.
  | In systems with a gap, the physically relevant chemical potential is the VBM or HOMO.

  | Chemical potential (Fermi level):    -4.99645504 eV
  What follows are estimated values for band gap, HOMO, LUMO, etc.
  | They are estimated on a discrete k-point grid and not necessarily exact.
  | For converged numbers, create a DOS and/or band structure plot on a denser k-grid.

  Highest occupied state (VBM) at     -5.56814432 eV (relative to internal zero)
  | Occupation number:      2.00000000
  | K-point:       1 at    0.000000    0.000000    0.000000 (in units of recip. lattice)

  Lowest unoccupied state (CBM) at    -4.89032946 eV (relative to internal zero)
  | Occupation number:      0.00000000
  | K-point:       9 at    0.000000    0.500000    0.500000 (in units of recip. lattice)

  ESTIMATED overall HOMO-LUMO gap:      0.67781485 eV between HOMO at k-point 1 and LUMO at k-point 9
  | This appears to be an indirect band gap.
  | Smallest direct gap :      2.54176677 eV for k_point 1 at    0.000000    0.000000    0.000000 (in units of recip. lattice)
  The gap value is above 0.2 eV. Unless you are using a very sparse k-point grid,
  this system is most likely an insulator or a semiconductor.

  Checking to see if s.c.f. parameters should be adjusted.
  The system likely has a gap. Increased the default Pulay mixing parameter (charge_mix_param). Value:   0.200000 .
  Kept the default occupation width. Value:   0.010000 eV.

  Total energy components:
  | Sum of eigenvalues            :        -328.40253710 Ha       -8936.28770771 eV
  | XC energy correction          :         -41.80197390 Ha       -1137.48958468 eV
  | XC potential correction       :          53.98417800 Ha        1468.98422446 eV
  | Free-atom electrostatic energy:        -263.59230454 Ha       -7172.71155008 eV
  | Hartree energy correction     :          -0.91759206 Ha         -24.96895048 eV
  | Entropy correction            :          -0.00000000 Ha          -0.00000000 eV
  | ---------------------------
  | Total energy                  :        -580.73022960 Ha      -15802.47356849 eV
  | Total energy, T -> 0          :        -580.73022960 Ha      -15802.47356849 eV  <-- do not rely on this value for anything but (periodic) metals
  | Electronic free energy        :        -580.73022960 Ha      -15802.47356849 eV

  Derived energy quantities:
  | Kinetic energy                :         582.63035804 Ha       15854.17869407 eV
  | Electrostatic energy          :       -1121.55861374 Ha      -30519.16267788 eV
  | Energy correction for multipole
  | error in Hartree potential    :           0.01412462 Ha           0.38435057 eV
  | Sum of eigenvalues per atom                           :       -4468.14385385 eV
  | Total energy (T->0) per atom                          :       -7901.23678424 eV  <-- do not rely on this value for anything but (periodic) metals
  | Electronic free energy per atom                       :       -7901.23678424 eV
  Evaluating new KS density using the density matrix
  Evaluating density matrix
  Time summed over all CPUs for getting density from density matrix: real work        1.632 s, elapsed        1.704 s
  Integration grid: deviation in total charge (<rho> - N_e) =  -2.486900E-14

  Self-consistency convergence accuracy:
  | Change of charge density      :  0.1110E+00
  | Change of unmixed KS density  :  0.9997E-03
  | Change of sum of eigenvalues  :  0.2320E+02 eV
  | Change of total energy        :  0.1249E+00 eV


------------------------------------------------------------
  End self-consistency iteration #     2       :  max(cpu_time)    wall_clock(cpu1)
  | Time for this iteration                     :        0.713 s           0.713 s
  | Charge density update                       :        0.429 s           0.429 s
  | Density mixing & preconditioning            :        0.050 s           0.050 s
  | Hartree multipole update                    :        0.001 s           0.001 s
  | Hartree multipole summation                 :        0.043 s           0.043 s
  | Integration                                 :        0.182 s           0.182 s
  | Solution of K.-S. eqns.                     :        0.008 s           0.008 s
  | Total energy evaluation                     :        0.000 s           0.000 s

  Partial memory accounting:
  | Current value for overall tracked memory usage:
  |   Minimum:        3.194 MB (on task 2)
  |   Maximum:        3.240 MB (on task 0)
  |   Average:        3.215 MB
  | Peak value for overall tracked memory usage:
  |   Minimum:       10.150 MB (on task 3 after allocating gradient_basis_wave)
  |   Maximum:       10.314 MB (on task 0 after allocating gradient_basis_wave)
  |   Average:       10.242 MB
  | Largest tracked array allocation so far:
  |   Minimum:        3.580 MB (hamiltonian_shell on task 3)
  |   Maximum:        3.675 MB (hamiltonian_shell on task 0)
  |   Average:        3.643 MB
  Note:  These values currently only include a subset of arrays which are explicitly tracked.
  The "true" memory usage will be greater.
------------------------------------------------------------

------------------------------------------------------------
          Begin self-consistency iteration #    3

  Date     :  20231009, Time     :  142728.568
------------------------------------------------------------
  Pulay mixing of updated and previous charge densities.
  Available memory per node after mixing [GB]:     22.18
  Renormalizing the density to the exact electron count on the 3D integration grid.
  | Formal number of electrons (from input files) :      28.0000000000
  | Integrated number of electrons on 3D grid     :      28.0006048943
  | Charge integration error                      :       0.0006048943
  | Normalization factor for density and gradient :       0.9999783971

  Evaluating partitioned Hartree potential by multipole expansion.
  | Original multipole sum: apparent total charge =  -0.879276E-14
  | Sum of charges compensated after spline to logarithmic grids =  -0.908135E-04
  | Analytical far-field extrapolation by fixed multipoles:
  | Hartree multipole sum: apparent total charge =   0.000000E+00
  Summing up the Hartree potential.
  Time summed over all CPUs for potential: real work        0.041 s, elapsed        0.042 s
  | RMS charge density error from multipole expansion :   0.114131E-01
  | Average real-space part of the electrostatic potential :      0.36099727 eV

  Integrating Hamiltonian matrix: batch-based integration.
  Time summed over all CPUs for integration: real work        0.702 s, elapsed        0.721 s

  Updating Kohn-Sham eigenvalues and eigenvectors using ELSI and the (modified) LAPACK eigensolver.
  Starting LAPACK eigensolver
  Finished Cholesky decomposition
  | Time :     0.000 s
  Finished transformation to standard eigenproblem
  | Time :     0.000 s
  Finished solving standard eigenproblem
  | Time :     0.001 s
  Finished back-transformation of eigenvectors
  | Time :     0.000 s

  Obtaining occupation numbers and electronic chemical potential using ELSI.
  | Note that, for insulating systems, the printed 'chemical potential' value is not uniquely defined.
  | It can be anywhere in the energy gap, as long as it correctly separates occupied and unoccupied states.
  | In systems with a gap, the physically relevant chemical potential is the VBM or HOMO.

  | Chemical potential (Fermi level):    -5.02032014 eV
  What follows are estimated values for band gap, HOMO, LUMO, etc.
  | They are estimated on a discrete k-point grid and not necessarily exact.
  | For converged numbers, create a DOS and/or band structure plot on a denser k-grid.

  Highest occupied state (VBM) at     -5.60142301 eV (relative to internal zero)
  | Occupation number:      2.00000000
  | K-point:       1 at    0.000000    0.000000    0.000000 (in units of recip. lattice)

  Lowest unoccupied state (CBM) at    -4.89500501 eV (relative to internal zero)
  | Occupation number:      0.00000000
  | K-point:       9 at    0.000000    0.500000    0.500000 (in units of recip. lattice)

  ESTIMATED overall HOMO-LUMO gap:      0.70641801 eV between HOMO at k-point 1 and LUMO at k-point 9
  | This appears to be an indirect band gap.
  | Smallest direct gap :      2.54848201 eV for k_point 1 at    0.000000    0.000000    0.000000 (in units of recip. lattice)
  The gap value is above 0.2 eV. Unless you are using a very sparse k-point grid,
  this system is most likely an insulator or a semiconductor.

  Total energy components:
  | Sum of eigenvalues            :        -328.56064277 Ha       -8940.58998195 eV
  | XC energy correction          :         -41.78816822 Ha       -1137.11391291 eV
  | XC potential correction       :          53.96623870 Ha        1468.49607132 eV
  | Free-atom electrostatic energy:        -263.59230454 Ha       -7172.71155008 eV
  | Hartree energy correction     :          -0.75517087 Ha         -20.54924477 eV
  | Entropy correction            :          -0.00000000 Ha          -0.00000000 eV
  | ---------------------------
  | Total energy                  :        -580.73004769 Ha      -15802.46861839 eV
  | Total energy, T -> 0          :        -580.73004769 Ha      -15802.46861839 eV  <-- do not rely on this value for anything but (periodic) metals
  | Electronic free energy        :        -580.73004769 Ha      -15802.46861839 eV

  Derived energy quantities:
  | Kinetic energy                :         582.42459282 Ha       15848.57953737 eV
  | Electrostatic energy          :       -1121.36647229 Ha      -30513.93424285 eV
  | Energy correction for multipole
  | error in Hartree potential    :           0.01491840 Ha           0.40595026 eV
  | Sum of eigenvalues per atom                           :       -4470.29499097 eV
  | Total energy (T->0) per atom                          :       -7901.23430919 eV  <-- do not rely on this value for anything but (periodic) metals
  | Electronic free energy per atom                       :       -7901.23430919 eV
  Evaluating new KS density using the density matrix
  Evaluating density matrix
  Time summed over all CPUs for getting density from density matrix: real work        1.820 s, elapsed        1.861 s
  Integration grid: deviation in total charge (<rho> - N_e) =   1.421085E-14

  Self-consistency convergence accuracy:
  | Change of charge density      :  0.1708E-01
  | Change of unmixed KS density  :  0.1732E-01
  | Change of sum of eigenvalues  : -0.4302E+01 eV
  | Change of total energy        :  0.4950E-02 eV


------------------------------------------------------------
  End self-consistency iteration #     3       :  max(cpu_time)    wall_clock(cpu1)
  | Time for this iteration                     :        0.751 s           0.751 s
  | Charge density update                       :        0.467 s           0.467 s
  | Density mixing & preconditioning            :        0.050 s           0.050 s
  | Hartree multipole update                    :        0.001 s           0.000 s
  | Hartree multipole summation                 :        0.044 s           0.044 s
  | Integration                                 :        0.182 s           0.182 s
  | Solution of K.-S. eqns.                     :        0.008 s           0.007 s
  | Total energy evaluation                     :        0.000 s           0.000 s

  Partial memory accounting:
  | Current value for overall tracked memory usage:
  |   Minimum:        3.194 MB (on task 2)
  |   Maximum:        3.240 MB (on task 0)
  |   Average:        3.215 MB
  | Peak value for overall tracked memory usage:
  |   Minimum:       10.150 MB (on task 3 after allocating gradient_basis_wave)
  |   Maximum:       10.314 MB (on task 0 after allocating gradient_basis_wave)
  |   Average:       10.242 MB
  | Largest tracked array allocation so far:
  |   Minimum:        3.580 MB (hamiltonian_shell on task 3)
  |   Maximum:        3.675 MB (hamiltonian_shell on task 0)
  |   Average:        3.643 MB
  Note:  These values currently only include a subset of arrays which are explicitly tracked.
  The "true" memory usage will be greater.
------------------------------------------------------------

------------------------------------------------------------
          Begin self-consistency iteration #    4

  Date     :  20231009, Time     :  142729.319
------------------------------------------------------------
  Pulay mixing of updated and previous charge densities.
  Available memory per node after mixing [GB]:     22.17
  Renormalizing the density to the exact electron count on the 3D integration grid.
  | Formal number of electrons (from input files) :      28.0000000000
  | Integrated number of electrons on 3D grid     :      28.0003867473
  | Charge integration error                      :       0.0003867473
  | Normalization factor for density and gradient :       0.9999861878

  Evaluating partitioned Hartree potential by multipole expansion.
  | Original multipole sum: apparent total charge =   0.531688E-14
  | Sum of charges compensated after spline to logarithmic grids =  -0.974359E-04
  | Analytical far-field extrapolation by fixed multipoles:
  | Hartree multipole sum: apparent total charge =   0.000000E+00
  Summing up the Hartree potential.
  Time summed over all CPUs for potential: real work        0.042 s, elapsed        0.042 s
  | RMS charge density error from multipole expansion :   0.121723E-01
  | Average real-space part of the electrostatic potential :      0.36024271 eV

  Integrating Hamiltonian matrix: batch-based integration.
  Time summed over all CPUs for integration: real work        0.722 s, elapsed        0.736 s

  Updating Kohn-Sham eigenvalues and eigenvectors using ELSI and the (modified) LAPACK eigensolver.
  Starting LAPACK eigensolver
  Finished Cholesky decomposition
  | Time :     0.000 s
  Finished transformation to standard eigenproblem
  | Time :     0.000 s
  Finished solving standard eigenproblem
  | Time :     0.001 s
  Finished back-transformation of eigenvectors
  | Time :     0.000 s

  Obtaining occupation numbers and electronic chemical potential using ELSI.
  | Note that, for insulating systems, the printed 'chemical potential' value is not uniquely defined.
  | It can be anywhere in the energy gap, as long as it correctly separates occupied and unoccupied states.
  | In systems with a gap, the physically relevant chemical potential is the VBM or HOMO.

  | Chemical potential (Fermi level):    -5.01590304 eV
  What follows are estimated values for band gap, HOMO, LUMO, etc.
  | They are estimated on a discrete k-point grid and not necessarily exact.
  | For converged numbers, create a DOS and/or band structure plot on a denser k-grid.

  Highest occupied state (VBM) at     -5.60087989 eV (relative to internal zero)
  | Occupation number:      2.00000000
  | K-point:       1 at    0.000000    0.000000    0.000000 (in units of recip. lattice)

  Lowest unoccupied state (CBM) at    -4.88562459 eV (relative to internal zero)
  | Occupation number:      0.00000000
  | K-point:       9 at    0.000000    0.500000    0.500000 (in units of recip. lattice)

  ESTIMATED overall HOMO-LUMO gap:      0.71525530 eV between HOMO at k-point 1 and LUMO at k-point 9
  | This appears to be an indirect band gap.
  | Smallest direct gap :      2.54417516 eV for k_point 1 at    0.000000    0.000000    0.000000 (in units of recip. lattice)
  The gap value is above 0.2 eV. Unless you are using a very sparse k-point grid,
  this system is most likely an insulator or a semiconductor.

  Total energy components:
  | Sum of eigenvalues            :        -328.63483045 Ha       -8942.60873151 eV
  | XC energy correction          :         -41.78277942 Ha       -1136.96727629 eV
  | XC potential correction       :          53.95906683 Ha        1468.30091470 eV
  | Free-atom electrostatic energy:        -263.59230454 Ha       -7172.71155008 eV
  | Hartree energy correction     :          -0.67910390 Ha         -18.47935732 eV
  | Entropy correction            :          -0.00000000 Ha          -0.00000000 eV
  | ---------------------------
  | Total energy                  :        -580.72995148 Ha      -15802.46600050 eV
  | Total energy, T -> 0          :        -580.72995148 Ha      -15802.46600050 eV  <-- do not rely on this value for anything but (periodic) metals
  | Electronic free energy        :        -580.72995148 Ha      -15802.46600050 eV

  Derived energy quantities:
  | Kinetic energy                :         582.30338828 Ha       15845.28139425 eV
  | Electrostatic energy          :       -1121.25056035 Ha      -30510.78011846 eV
  | Energy correction for multipole
  | error in Hartree potential    :           0.01597502 Ha           0.43470243 eV
  | Sum of eigenvalues per atom                           :       -4471.30436575 eV
  | Total energy (T->0) per atom                          :       -7901.23300025 eV  <-- do not rely on this value for anything but (periodic) metals
  | Electronic free energy per atom                       :       -7901.23300025 eV
  Evaluating new KS density using the density matrix
  Evaluating density matrix
  Time summed over all CPUs for getting density from density matrix: real work        1.621 s, elapsed        1.654 s
  Integration grid: deviation in total charge (<rho> - N_e) =   3.552714E-15

  Self-consistency convergence accuracy:
  | Change of charge density      :  0.8492E-02
  | Change of unmixed KS density  :  0.2312E-02
  | Change of sum of eigenvalues  : -0.2019E+01 eV
  | Change of total energy        :  0.2618E-02 eV


------------------------------------------------------------
  End self-consistency iteration #     4       :  max(cpu_time)    wall_clock(cpu1)
  | Time for this iteration                     :        0.703 s           0.703 s
  | Charge density update                       :        0.416 s           0.416 s
  | Density mixing & preconditioning            :        0.050 s           0.050 s
  | Hartree multipole update                    :        0.001 s           0.000 s
  | Hartree multipole summation                 :        0.044 s           0.044 s
  | Integration                                 :        0.185 s           0.186 s
  | Solution of K.-S. eqns.                     :        0.008 s           0.007 s
  | Total energy evaluation                     :        0.000 s           0.000 s

  Partial memory accounting:
  | Current value for overall tracked memory usage:
  |   Minimum:        3.194 MB (on task 2)
  |   Maximum:        3.240 MB (on task 0)
  |   Average:        3.215 MB
  | Peak value for overall tracked memory usage:
  |   Minimum:       10.150 MB (on task 3 after allocating gradient_basis_wave)
  |   Maximum:       10.314 MB (on task 0 after allocating gradient_basis_wave)
  |   Average:       10.242 MB
  | Largest tracked array allocation so far:
  |   Minimum:        3.580 MB (hamiltonian_shell on task 3)
  |   Maximum:        3.675 MB (hamiltonian_shell on task 0)
  |   Average:        3.643 MB
  Note:  These values currently only include a subset of arrays which are explicitly tracked.
  The "true" memory usage will be greater.
------------------------------------------------------------

------------------------------------------------------------
          Begin self-consistency iteration #    5

  Date     :  20231009, Time     :  142730.022
------------------------------------------------------------
  Pulay mixing of updated and previous charge densities.
  Available memory per node after mixing [GB]:     22.17
  Renormalizing the density to the exact electron count on the 3D integration grid.
  | Formal number of electrons (from input files) :      28.0000000000
  | Integrated number of electrons on 3D grid     :      28.0009135650
  | Charge integration error                      :       0.0009135650
  | Normalization factor for density and gradient :       0.9999673737

  Evaluating partitioned Hartree potential by multipole expansion.
  | Original multipole sum: apparent total charge =   0.773946E-14
  | Sum of charges compensated after spline to logarithmic grids =  -0.963076E-04
  | Analytical far-field extrapolation by fixed multipoles:
  | Hartree multipole sum: apparent total charge =   0.000000E+00
  Summing up the Hartree potential.
  Time summed over all CPUs for potential: real work        0.042 s, elapsed        0.043 s
  | RMS charge density error from multipole expansion :   0.122373E-01
  | Average real-space part of the electrostatic potential :      0.34410834 eV

  Integrating Hamiltonian matrix: batch-based integration.
  Time summed over all CPUs for integration: real work        0.747 s, elapsed        0.800 s

  Updating Kohn-Sham eigenvalues and eigenvectors using ELSI and the (modified) LAPACK eigensolver.
  Starting LAPACK eigensolver
  Finished Cholesky decomposition
  | Time :     0.000 s
  Finished transformation to standard eigenproblem
  | Time :     0.000 s
  Finished solving standard eigenproblem
  | Time :     0.001 s
  Finished back-transformation of eigenvectors
  | Time :     0.000 s

  Obtaining occupation numbers and electronic chemical potential using ELSI.
  | Note that, for insulating systems, the printed 'chemical potential' value is not uniquely defined.
  | It can be anywhere in the energy gap, as long as it correctly separates occupied and unoccupied states.
  | In systems with a gap, the physically relevant chemical potential is the VBM or HOMO.

  | Chemical potential (Fermi level):    -5.02629770 eV
  What follows are estimated values for band gap, HOMO, LUMO, etc.
  | They are estimated on a discrete k-point grid and not necessarily exact.
  | For converged numbers, create a DOS and/or band structure plot on a denser k-grid.

  Highest occupied state (VBM) at     -5.61300038 eV (relative to internal zero)
  | Occupation number:      2.00000000
  | K-point:       1 at    0.000000    0.000000    0.000000 (in units of recip. lattice)

  Lowest unoccupied state (CBM) at    -4.89088240 eV (relative to internal zero)
  | Occupation number:      0.00000000
  | K-point:       9 at    0.000000    0.500000    0.500000 (in units of recip. lattice)

  ESTIMATED overall HOMO-LUMO gap:      0.72211798 eV between HOMO at k-point 1 and LUMO at k-point 9
  | This appears to be an indirect band gap.
  | Smallest direct gap :      2.54846064 eV for k_point 1 at    0.000000    0.000000    0.000000 (in units of recip. lattice)
  The gap value is above 0.2 eV. Unless you are using a very sparse k-point grid,
  this system is most likely an insulator or a semiconductor.

  Total energy components:
  | Sum of eigenvalues            :        -328.67908169 Ha       -8943.81286909 eV
  | XC energy correction          :         -41.78215558 Ha       -1136.95030086 eV
  | XC potential correction       :          53.95802929 Ha        1468.27268185 eV
  | Free-atom electrostatic energy:        -263.59230454 Ha       -7172.71155008 eV
  | Hartree energy correction     :          -0.63439005 Ha         -17.26263151 eV
  | Entropy correction            :          -0.00000000 Ha          -0.00000000 eV
  | ---------------------------
  | Total energy                  :        -580.72990258 Ha      -15802.46466969 eV
  | Total energy, T -> 0          :        -580.72990258 Ha      -15802.46466969 eV  <-- do not rely on this value for anything but (periodic) metals
  | Electronic free energy        :        -580.72990258 Ha      -15802.46466969 eV

  Derived energy quantities:
  | Kinetic energy                :         582.31317415 Ha       15845.54768124 eV
  | Electrostatic energy          :       -1121.26092114 Ha      -30511.06205007 eV
  | Energy correction for multipole
  | error in Hartree potential    :           0.01596431 Ha           0.43441089 eV
  | Sum of eigenvalues per atom                           :       -4471.90643454 eV
  | Total energy (T->0) per atom                          :       -7901.23233485 eV  <-- do not rely on this value for anything but (periodic) metals
  | Electronic free energy per atom                       :       -7901.23233485 eV
  Evaluating new KS density using the density matrix
  Evaluating density matrix
  Time summed over all CPUs for getting density from density matrix: real work        1.653 s, elapsed        1.721 s
  Integration grid: deviation in total charge (<rho> - N_e) =  -7.105427E-15

  Self-consistency convergence accuracy:
  | Change of charge density      :  0.3182E-02
  | Change of unmixed KS density  :  0.1136E-02
  | Change of sum of eigenvalues  : -0.1204E+01 eV
  | Change of total energy        :  0.1331E-02 eV


------------------------------------------------------------
  End self-consistency iteration #     5       :  max(cpu_time)    wall_clock(cpu1)
  | Time for this iteration                     :        0.740 s           0.740 s
  | Charge density update                       :        0.432 s           0.432 s
  | Density mixing & preconditioning            :        0.051 s           0.051 s
  | Hartree multipole update                    :        0.001 s           0.001 s
  | Hartree multipole summation                 :        0.045 s           0.045 s
  | Integration                                 :        0.201 s           0.202 s
  | Solution of K.-S. eqns.                     :        0.009 s           0.009 s
  | Total energy evaluation                     :        0.000 s           0.000 s

  Partial memory accounting:
  | Current value for overall tracked memory usage:
  |   Minimum:        3.194 MB (on task 2)
  |   Maximum:        3.240 MB (on task 0)
  |   Average:        3.215 MB
  | Peak value for overall tracked memory usage:
  |   Minimum:       10.150 MB (on task 3 after allocating gradient_basis_wave)
  |   Maximum:       10.314 MB (on task 0 after allocating gradient_basis_wave)
  |   Average:       10.242 MB
  | Largest tracked array allocation so far:
  |   Minimum:        3.580 MB (hamiltonian_shell on task 3)
  |   Maximum:        3.675 MB (hamiltonian_shell on task 0)
  |   Average:        3.643 MB
  Note:  These values currently only include a subset of arrays which are explicitly tracked.
  The "true" memory usage will be greater.
------------------------------------------------------------

------------------------------------------------------------
          Begin self-consistency iteration #    6

  Date     :  20231009, Time     :  142730.762
------------------------------------------------------------
  Pulay mixing of updated and previous charge densities.
  Available memory per node after mixing [GB]:     22.15
  Renormalizing the density to the exact electron count on the 3D integration grid.
  | Formal number of electrons (from input files) :      28.0000000000
  | Integrated number of electrons on 3D grid     :      27.9999628704
  | Charge integration error                      :      -0.0000371296
  | Normalization factor for density and gradient :       1.0000013261

  Evaluating partitioned Hartree potential by multipole expansion.
  | Original multipole sum: apparent total charge =  -0.309884E-13
  | Sum of charges compensated after spline to logarithmic grids =  -0.960961E-04
  | Analytical far-field extrapolation by fixed multipoles:
  | Hartree multipole sum: apparent total charge =   0.000000E+00
  Summing up the Hartree potential.
  Time summed over all CPUs for potential: real work        0.041 s, elapsed        0.041 s
  | RMS charge density error from multipole expansion :   0.121974E-01
  | Average real-space part of the electrostatic potential :      0.34210784 eV

  Integrating Hamiltonian matrix: batch-based integration.
  Time summed over all CPUs for integration: real work        0.716 s, elapsed        0.732 s

  Updating Kohn-Sham eigenvalues and eigenvectors using ELSI and the (modified) LAPACK eigensolver.
  Starting LAPACK eigensolver
  Finished Cholesky decomposition
  | Time :     0.000 s
  Finished transformation to standard eigenproblem
  | Time :     0.000 s
  Finished solving standard eigenproblem
  | Time :     0.000 s
  Finished back-transformation of eigenvectors
  | Time :     0.000 s

  Obtaining occupation numbers and electronic chemical potential using ELSI.
  | Note that, for insulating systems, the printed 'chemical potential' value is not uniquely defined.
  | It can be anywhere in the energy gap, as long as it correctly separates occupied and unoccupied states.
  | In systems with a gap, the physically relevant chemical potential is the VBM or HOMO.

  | Chemical potential (Fermi level):    -5.02988087 eV
  What follows are estimated values for band gap, HOMO, LUMO, etc.
  | They are estimated on a discrete k-point grid and not necessarily exact.
  | For converged numbers, create a DOS and/or band structure plot on a denser k-grid.

  Highest occupied state (VBM) at     -5.61726010 eV (relative to internal zero)
  | Occupation number:      2.00000000
  | K-point:       1 at    0.000000    0.000000    0.000000 (in units of recip. lattice)

  Lowest unoccupied state (CBM) at    -4.89255418 eV (relative to internal zero)
  | Occupation number:      0.00000000
  | K-point:       9 at    0.000000    0.500000    0.500000 (in units of recip. lattice)

  ESTIMATED overall HOMO-LUMO gap:      0.72470592 eV between HOMO at k-point 1 and LUMO at k-point 9
  | This appears to be an indirect band gap.
  | Smallest direct gap :      2.54996180 eV for k_point 1 at    0.000000    0.000000    0.000000 (in units of recip. lattice)
  The gap value is above 0.2 eV. Unless you are using a very sparse k-point grid,
  this system is most likely an insulator or a semiconductor.

  Total energy components:
  | Sum of eigenvalues            :        -328.68555711 Ha       -8943.98907404 eV
[...]
  | Energy correction for multipole
  | error in Hartree potential    :           0.01602261 Ha           0.43599735 eV
  | Sum of eigenvalues per atom                           :       -4471.87701935 eV
  | Total energy (T->0) per atom                          :       -7901.23229435 eV  <-- do not rely on this value for anything but (periodic) metals
  | Electronic free energy per atom                       :       -7901.23229435 eV
  Evaluating new KS density using the density matrix
  Evaluating density matrix
  Time summed over all CPUs for getting density from density matrix: real work        1.610 s, elapsed        1.644 s
  Integration grid: deviation in total charge (<rho> - N_e) =   3.552714E-15

  Self-consistency convergence accuracy:
  | Change of charge density      :  0.1187E-04
  | Change of unmixed KS density  :  0.8105E-05
  | Change of sum of eigenvalues  :  0.2108E-02 eV
  | Change of total energy        : -0.1971E-05 eV


------------------------------------------------------------
  End self-consistency iteration #     9       :  max(cpu_time)    wall_clock(cpu1)
  | Time for this iteration                     :        0.696 s           0.697 s
  | Charge density update                       :        0.413 s           0.413 s
  | Density mixing & preconditioning            :        0.049 s           0.050 s
  | Hartree multipole update                    :        0.001 s           0.000 s
  | Hartree multipole summation                 :        0.043 s           0.043 s
  | Integration                                 :        0.183 s           0.183 s
  | Solution of K.-S. eqns.                     :        0.008 s           0.008 s
  | Total energy evaluation                     :        0.000 s           0.000 s

  Partial memory accounting:
  | Current value for overall tracked memory usage:
  |   Minimum:        3.194 MB (on task 2)
  |   Maximum:        3.240 MB (on task 0)
  |   Average:        3.215 MB
  | Peak value for overall tracked memory usage:
  |   Minimum:       10.150 MB (on task 3 after allocating gradient_basis_wave)
  |   Maximum:       10.314 MB (on task 0 after allocating gradient_basis_wave)
  |   Average:       10.242 MB
  | Largest tracked array allocation so far:
  |   Minimum:        3.580 MB (hamiltonian_shell on task 3)
  |   Maximum:        3.675 MB (hamiltonian_shell on task 0)
  |   Average:        3.643 MB
  Note:  These values currently only include a subset of arrays which are explicitly tracked.
  The "true" memory usage will be greater.
------------------------------------------------------------

------------------------------------------------------------
          Begin self-consistency iteration #   10

  Date     :  20231009, Time     :  142733.556
------------------------------------------------------------
  Pulay mixing of updated and previous charge densities.
  Available memory per node after mixing [GB]:     22.15
  Renormalizing the density to the exact electron count on the 3D integration grid.
  | Formal number of electrons (from input files) :      28.0000000000
  | Integrated number of electrons on 3D grid     :      27.9999975581
  | Charge integration error                      :      -0.0000024419
  | Normalization factor for density and gradient :       1.0000000872

  Evaluating partitioned Hartree potential by multipole expansion.
  | Original multipole sum: apparent total charge =   0.342859E-13
  | Sum of charges compensated after spline to logarithmic grids =  -0.967351E-04
  | Analytical far-field extrapolation by fixed multipoles:
  | Hartree multipole sum: apparent total charge =   0.000000E+00
  Summing up the Hartree potential.
  Time summed over all CPUs for potential: real work        0.041 s, elapsed        0.042 s
  | RMS charge density error from multipole expansion :   0.122592E-01
  | Average real-space part of the electrostatic potential :      0.34555347 eV

  Integrating Hamiltonian matrix: batch-based integration.
  Time summed over all CPUs for integration: real work        0.746 s, elapsed        0.755 s

  Updating Kohn-Sham eigenvalues and eigenvectors using ELSI and the (modified) LAPACK eigensolver.
  Starting LAPACK eigensolver
  Finished Cholesky decomposition
  | Time :     0.000 s
  Finished transformation to standard eigenproblem
  | Time :     0.000 s
  Finished solving standard eigenproblem
  | Time :     0.000 s
  Finished back-transformation of eigenvectors
  | Time :     0.000 s

  Obtaining occupation numbers and electronic chemical potential using ELSI.
  | Note that, for insulating systems, the printed 'chemical potential' value is not uniquely defined.
  | It can be anywhere in the energy gap, as long as it correctly separates occupied and unoccupied states.
  | In systems with a gap, the physically relevant chemical potential is the VBM or HOMO.

  | Chemical potential (Fermi level):    -5.02624509 eV
  What follows are estimated values for band gap, HOMO, LUMO, etc.
  | They are estimated on a discrete k-point grid and not necessarily exact.
  | For converged numbers, create a DOS and/or band structure plot on a denser k-grid.

  Highest occupied state (VBM) at     -5.61324378 eV (relative to internal zero)
  | Occupation number:      2.00000000
  | K-point:       1 at    0.000000    0.000000    0.000000 (in units of recip. lattice)

  Lowest unoccupied state (CBM) at    -4.89020998 eV (relative to internal zero)
  | Occupation number:      0.00000000
  | K-point:       9 at    0.000000    0.500000    0.500000 (in units of recip. lattice)

  ESTIMATED overall HOMO-LUMO gap:      0.72303380 eV between HOMO at k-point 1 and LUMO at k-point 9
  | This appears to be an indirect band gap.
  | Smallest direct gap :      2.54835533 eV for k_point 1 at    0.000000    0.000000    0.000000 (in units of recip. lattice)
  The gap value is above 0.2 eV. Unless you are using a very sparse k-point grid,
  this system is most likely an insulator or a semiconductor.

  Total energy components:
  | Sum of eigenvalues            :        -328.67680629 Ha       -8943.75095216 eV
  | XC energy correction          :         -41.78224548 Ha       -1136.95274697 eV
  | XC potential correction       :          53.95818369 Ha        1468.27688335 eV
  | Free-atom electrostatic energy:        -263.59230454 Ha       -7172.71155008 eV
  | Hartree energy correction     :          -0.63672705 Ha         -17.32622450 eV
  | Entropy correction            :          -0.00000000 Ha          -0.00000000 eV
  | ---------------------------
  | Total energy                  :        -580.72989966 Ha      -15802.46459037 eV
  | Total energy, T -> 0          :        -580.72989966 Ha      -15802.46459037 eV  <-- do not rely on this value for anything but (periodic) metals
  | Electronic free energy        :        -580.72989966 Ha      -15802.46459037 eV

  Derived energy quantities:
  | Kinetic energy                :         582.31912771 Ha       15845.70968570 eV
  | Electrostatic energy          :       -1121.26678189 Ha      -30511.22152910 eV
  | Energy correction for multipole
  | error in Hartree potential    :           0.01602349 Ha           0.43602130 eV
  | Sum of eigenvalues per atom                           :       -4471.87547608 eV
  | Total energy (T->0) per atom                          :       -7901.23229518 eV  <-- do not rely on this value for anything but (periodic) metals
  | Electronic free energy per atom                       :       -7901.23229518 eV
  Preliminary charge convergence reached. Turning off preconditioner.


  Self-consistency convergence accuracy:
  | Change of charge density      :  0.5416E-05
  | Change of unmixed KS density  :  0.9782E-06
  | Change of sum of eigenvalues  :  0.3087E-02 eV
  | Change of total energy        : -0.1663E-05 eV

  Writing Kohn-Sham eigenvalues.
  K-point:       1 at    0.000000    0.000000    0.000000 (in units of recip. lattice)

  State    Occupation    Eigenvalue [Ha]    Eigenvalue [eV]
      1       2.00000         -65.758377        -1789.37649
      2       2.00000         -65.758377        -1789.37649
      3       2.00000          -5.118987         -139.29473
      4       2.00000          -5.118704         -139.28701
      5       2.00000          -3.502741          -95.31444
      6       2.00000          -3.502741          -95.31444
      7       2.00000          -3.502741          -95.31444
      8       2.00000          -3.502121          -95.29756
      9       2.00000          -3.502121          -95.29756
     10       2.00000          -3.502121          -95.29756
     11       2.00000          -0.646859          -17.60192
     12       2.00000          -0.206283           -5.61324
     13       2.00000          -0.206283           -5.61324
     14       2.00000          -0.206283           -5.61324
     15       0.00000          -0.112633           -3.06489
     16       0.00000          -0.112633           -3.06489
     17       0.00000          -0.112633           -3.06489
     18       0.00000          -0.081106           -2.20701
     19       0.00000           0.082555            2.24645
     20       0.00000           0.082555            2.24645

  What follows are estimated values for band gap, HOMO, LUMO, etc.
  | They are estimated on a discrete k-point grid and not necessarily exact.
  | For converged numbers, create a DOS and/or band structure plot on a denser k-grid.

  Highest occupied state (VBM) at     -5.61324378 eV (relative to internal zero)
  | Occupation number:      2.00000000
  | K-point:       1 at    0.000000    0.000000    0.000000 (in units of recip. lattice)

  Lowest unoccupied state (CBM) at    -4.89020998 eV (relative to internal zero)
  | Occupation number:      0.00000000
  | K-point:       9 at    0.000000    0.500000    0.500000 (in units of recip. lattice)

  ESTIMATED overall HOMO-LUMO gap:      0.72303380 eV between HOMO at k-point 1 and LUMO at k-point 9
  | This appears to be an indirect band gap.
  | Smallest direct gap :      2.54835533 eV for k_point 1 at    0.000000    0.000000    0.000000 (in units of recip. lattice)
  The gap value is above 0.2 eV. Unless you are using a very sparse k-point grid,
  this system is most likely an insulator or a semiconductor.

  | Chemical Potential                          :    -5.02624509 eV
  | Note that, for insulating systems, the printed 'chemical potential' value is not uniquely defined.
  | It can be anywhere in the energy gap, as long as it correctly separates occupied and unoccupied states.
  | In systems with a gap, the physically relevant chemical potential is the VBM or HOMO.

  Self-consistency cycle converged.


------------------------------------------------------------
  End self-consistency iteration #    10       :  max(cpu_time)    wall_clock(cpu1)
  | Time for this iteration                     :        0.290 s           0.290 s
  | Charge density update                       :        0.000 s           0.000 s
  | Density mixing                              :        0.048 s           0.048 s
  | Hartree multipole update                    :        0.001 s           0.001 s
  | Hartree multipole summation                 :        0.043 s           0.042 s
  | Integration                                 :        0.190 s           0.190 s
  | Solution of K.-S. eqns.                     :        0.008 s           0.008 s
  | Total energy evaluation                     :        0.000 s           0.000 s

  Partial memory accounting:
  | Current value for overall tracked memory usage:
  |   Minimum:        3.194 MB (on task 2)
  |   Maximum:        3.240 MB (on task 0)
  |   Average:        3.215 MB
  | Peak value for overall tracked memory usage:
  |   Minimum:       10.150 MB (on task 3 after allocating gradient_basis_wave)
  |   Maximum:       10.314 MB (on task 0 after allocating gradient_basis_wave)
  |   Average:       10.242 MB
  | Largest tracked array allocation so far:
  |   Minimum:        3.580 MB (hamiltonian_shell on task 3)
  |   Maximum:        3.675 MB (hamiltonian_shell on task 0)
  |   Average:        3.643 MB
  Note:  These values currently only include a subset of arrays which are explicitly tracked.
  The "true" memory usage will be greater.
------------------------------------------------------------

  Energy and forces in a compact form:
  | Total energy uncorrected      :         -0.158024645903670E+05 eV
  | Total energy corrected        :         -0.158024645903670E+05 eV  <-- do not rely on this value for anything but (periodic) metals
  | Electronic free energy        :         -0.158024645903670E+05 eV

  ------------------------------------ 
  Start decomposition of the XC Energy 
  ------------------------------------ 
  X and C from original XC functional choice 
  Hartree-Fock Energy :          0.000000000 Ha              0.000000000 eV
  X Energy            :        -40.688399724 Ha          -1107.187689583 eV
  C Energy            :         -1.093845754 Ha            -29.765057384 eV
  XC Energy w/o HF    :        -41.782245478 Ha          -1136.952746967 eV
  Total XC Energy     :        -41.782245478 Ha          -1136.952746967 eV
  ------------------------------------ 
  LDA X and C from self-consistent density 
  X Energy LDA        :        -37.634017816 Ha          -1024.073729082 eV
  C Energy LDA        :         -2.146687116 Ha            -58.414328526 eV
  ------------------------------------ 
  End decomposition of the XC Energy 
  ------------------------------------ 

------------------------------------------------------------

------------------------------------------------------------------------------
  Final output of selected total energy values:

  The following output summarizes some interesting total energy values
  at the end of a run (AFTER all relaxation, molecular dynamics, etc.).

  | Total energy of the DFT / Hartree-Fock s.c.f. calculation      :         -15802.464590367 eV
  | Final zero-broadening corrected energy (caution - metals only) :         -15802.464590367 eV
  | For reference only, the value of 1 Hartree used in FHI-aims is :             27.211384500 eV
  | For reference only, the overall average (free atom contribution
  | + realspace contribution) of the electrostatic potential after
  | s.c.f. convergence is                                          :            -12.788387460 eV

  Before relying on these values, please be sure to understand exactly which
  total energy value is referred to by a given number. Different objects may
  all carry the same name 'total energy'. Definitions:

  Total energy of the DFT / Hartree-Fock s.c.f. calculation:
  | Note that this energy does not include ANY quantities calculated after the
  | s.c.f. cycle, in particular not ANY RPA, MP2, etc. many-body perturbation terms.

  Final zero-broadening corrected energy:
  | For metallic systems only, a broadening of the occupation numbers at the Fermi
  | level can be extrapolated back to zero broadening by an electron-gas inspired
  | formula. For all systems that are not real metals, this value can be
  | meaningless and should be avoided.

------------------------------------------------------------------------------
  Methods described in the following list of references were used in this FHI-aims run.
  If you publish the results, please make sure to cite these reference if they apply.
  FHI-aims is an academic code, and for our developers (often, Ph.D. students
  and postdocs), scientific credit in the community is essential.
  Thank you for helping us!

  For any use of FHI-aims, please cite:

    Volker Blum, Ralf Gehrke, Felix Hanke, Paula Havu, Ville Havu,
    Xinguo Ren, Karsten Reuter, and Matthias Scheffler
    'Ab initio molecular simulations with numeric atom-centered orbitals'
    Computer Physics Communications 180, 2175-2196 (2009)
    http://doi.org/10.1016/j.cpc.2009.06.022


  The provided symmetry information was generated with SPGlib:

    Atsushi Togo, Yusuke Seto, Dimitar Pashov
    SPGlib 1.7.3 obtained from http://spglib.sourceforge.net
    Copyright (C) 2008 Atsushi Togo


  The ELSI infrastructure was used in your run to solve the Kohn-Sham electronic structure.
  Please check out http://elsi-interchange.org to learn more.
  If scalability is important for your project, please acknowledge ELSI by citing:

    V. W-z. Yu, F. Corsetti, A. Garcia, W. P. Huhn, M. Jacquelin, W. Jia,
    B. Lange, L. Lin, J. Lu, W. Mi, A. Seifitokaldani, A. Vazquez-Mayagoitia,
    C. Yang, H. Yang, and V. Blum
    'ELSI: A unified software interface for Kohn-Sham electronic structure solvers'
    Computer Physics Communications 222, 267-285 (2018).
    http://doi.org/10.1016/j.cpc.2017.09.007


  For the real-space grid partitioning and parallelization used in this calculation, please cite:

    Ville Havu, Volker Blum, Paula Havu, and Matthias Scheffler,
    'Efficient O(N) integration for all-electron electronic structure calculation'
    'using numerically tabulated basis functions'
    Journal of Computational Physics 228, 8367-8379 (2009).
    http://doi.org/10.1016/j.jcp.2009.08.008

  Of course, there are many other important community references, e.g., those cited in the
  above references. Our list is limited to references that describe implementations in the
  FHI-aims code. The reason is purely practical (length of this list) - please credit others as well.

------------------------------------------------------------
          Leaving FHI-aims.
          Date     :  20231009, Time     :  142733.848

          Computational steps:
          | Number of self-consistency cycles          :           10
          | Number of SCF (re)initializations          :            1

          Detailed time accounting                     :  max(cpu_time)    wall_clock(cpu1)
          | Total time                                  :        7.731 s           7.732 s
          | Preparation time                            :        0.119 s           0.118 s
          | Boundary condition initalization            :        0.022 s           0.023 s
          | Grid partitioning                           :        0.017 s           0.017 s
          | Preloading free-atom quantities on grid     :        0.077 s           0.078 s
          | Free-atom superposition energy              :        0.010 s           0.010 s
          | Total time for integrations                 :        2.205 s           2.208 s
          | Total time for solution of K.-S. equations  :        0.090 s           0.090 s
          | Total time for density update               :        4.215 s           4.216 s
          | Total time for mixing & preconditioning     :        0.503 s           0.504 s
          | Total time for Hartree multipole update     :        0.006 s           0.007 s
          | Total time for Hartree multipole sum        :        0.429 s           0.426 s
          | Total time for total energy evaluation      :        0.001 s           0.000 s
          | Total time for scaled ZORA corrections      :        0.000 s           0.000 s

          Partial memory accounting:
          | Residual value for overall tracked memory usage across tasks:     0.000000 MB (should be 0.000000 MB)
          | Peak values for overall tracked memory usage:
          |   Minimum:       10.150 MB (on task 3 after allocating gradient_basis_wave)
          |   Maximum:       10.314 MB (on task 0 after allocating gradient_basis_wave)
          |   Average:       10.242 MB
          | Largest tracked array allocation:
          |   Minimum:        3.580 MB (hamiltonian_shell on task 3)
          |   Maximum:        3.675 MB (hamiltonian_shell on task 0)
          |   Average:        3.643 MB
          Note:  These values currently only include a subset of arrays which are explicitly tracked.
          The "true" memory usage will be greater.

          Have a nice day.
------------------------------------------------------------
