 vasp.6.2.0 18Jan21 (build Jan 29 2021 15:03:46) complex

 executed on             LinuxIFC date 2021.10.29  12:24:49
 running on   40 total cores
 distrk:  each k-point on   40 cores,    1 groups
 distr:  one band on NCORE=   1 cores,   40 groups


--------------------------------------------------------------------------------------------------------


 INCAR:
   ALGO = All
   EDIFF = 1e-05
   EDIFFG = -0.02
   ENAUG = 1360
   ENCUT = 680
   GGA = Pe
   HFSCREEN = 0.2
   IBRION = 2
   ISIF = 3
   ISMEAR = 0
   ISPIN = 2
   KSPACING = 0.4
   LAECHG = True
   LASPH = True
   LCHARG = True
   LELF = True
   LHFCALC = True
   LMIXTAU = True
   LORBIT = 11
   LREAL = Auto
   LVTOT = True
   LWAVE = False
   MAGMOM = 2*0.6
   NELM = 200
   NSW = 99
   PREC = Accurate
   PRECFOCK = Fast
   SIGMA = 0.05

 POTCAR:    PAW_PBE Si 05Jan2001
 WARNING: For LVTOT=.TRUE., VASP.5.x writes the TOTAL local potential to the
     file LOCPOT. If you want only the Hartree contributions, use LVHAR=.TRUE.
     instead.

 -----------------------------------------------------------------------------
|                                                                             |
|           W    W    AA    RRRRR   N    N  II  N    N   GGGG   !!!           |
|           W    W   A  A   R    R  NN   N  II  NN   N  G    G  !!!           |
|           W    W  A    A  R    R  N N  N  II  N N  N  G       !!!           |
|           W WW W  AAAAAA  RRRRR   N  N N  II  N  N N  G  GGG   !            |
|           WW  WW  A    A  R   R   N   NN  II  N   NN  G    G                |
|           W    W  A    A  R    R  N    N  II  N    N   GGGG   !!!           |
|                                                                             |
|     For optimal performance we recommend to set                             |
|       NCORE = 2 up to number-of-cores-per-socket                            |
|     NCORE specifies how many cores store one orbital (NPAR=cpu/NCORE).      |
|     This setting can greatly improve the performance of VASP for DFT.       |
|     The default, NCORE=1 might be grossly inefficient on modern             |
|     multi-core architectures or massively parallel machines. Do your        |
|     own testing! More info at https://www.vasp.at/wiki/index.php/NCORE      |
|     Unfortunately you need to use the default for GW and RPA                |
|     calculations (for HF NCORE is supported but not extensively tested      |
|     yet).                                                                   |
|                                                                             |
 -----------------------------------------------------------------------------

 POTCAR:    PAW_PBE Si 05Jan2001
   SHA256 =  79d9987ad8750f624c4d6acb2a16d13abf6a777132adc04dc6c8399be72b42bb Si/POTCAR
   COPYR  = (c) Copyright 05Jan2001 Georg Kresse
   COPYR  = This file is part of the software VASP. Any use, copying, and all other rights are regul
   COPYR  = If you do not have a valid VASP license, you may not use, copy or distribute this file.
   VRHFIN =Si: s2p2
   LEXCH  = PE
   EATOM  =   103.0669 eV,    7.5752 Ry

   TITEL  = PAW_PBE Si 05Jan2001
   LULTRA =        F    use ultrasoft PP ?
   IUNSCR =        1    unscreen: 0-lin 1-nonlin 2-no
   RPACOR =    1.500    partial core radius
   POMASS =   28.085; ZVAL   =    4.000    mass and valenz
   RCORE  =    1.900    outmost cutoff radius
   RWIGS  =    2.480; RWIGS  =    1.312    wigner-seitz radius (au A)
   ENMAX  =  245.345; ENMIN  =  184.009 eV
   ICORE  =        2    local potential
   LCOR   =        T    correct aug charges
   LPAW   =        T    paw PP
   EAUG   =  322.069
   DEXC   =    0.000
   RMAX   =    1.950    core radius for proj-oper
   RAUG   =    1.300    factor for augmentation sphere
   RDEP   =    1.993    radius for radial grids
   RDEPT  =    1.837    core radius for aug-charge

   Atomic configuration
    6 entries
     n  l   j            E        occ.
     1  0  0.50     -1785.8828   2.0000
     2  0  0.50      -139.4969   2.0000
     2  1  1.50       -95.5546   6.0000
     3  0  0.50       -10.8127   2.0000
     3  1  0.50        -4.0811   2.0000
     3  2  1.50        -4.0817   0.0000
   Description
     l       E           TYP  RCUT    TYP  RCUT
     0    -10.8127223     23  1.900
     0     -7.6451159     23  1.900
     1     -4.0811372     23  1.900
     1      2.4879257     23  1.900
     2     -4.0817478      7  1.900
  local pseudopotential read in
  partial core-charges read in
  partial kinetic energy density read in
  atomic valenz-charges read in
  non local Contribution for L=           0  read in
    real space projection operators read in
  non local Contribution for L=           0  read in
    real space projection operators read in
  non local Contribution for L=           1  read in
    real space projection operators read in
  non local Contribution for L=           1  read in
    real space projection operators read in
    PAW grid and wavefunctions read in

   number of l-projection  operators is LMAX  =           4
   number of lm-projection operators is LMMAX =           8

 -----------------------------------------------------------------------------
|                                                                             |
|               ----> ADVICE to this user running VASP <----                  |
|                                                                             |
|     You have a (more or less) 'small supercell' and for smaller cells       |
|     it is recommended to use the reciprocal-space projection scheme!        |
|     The real-space optimization is not efficient for small cells and it     |
|     is also less accurate ...                                               |
|     Therefore, set LREAL=.FALSE. in the INCAR file.                         |
|                                                                             |
 -----------------------------------------------------------------------------

 Optimization of the real space projectors (new method)

 maximal supplied QI-value         = 19.84
 optimisation between [QCUT,QGAM] = [ 13.29, 26.59] = [ 49.49,197.96] Ry
 Optimized for a Real-space Cutoff    1.12 Angstroem

   l    n(q)    QCUT    max X(q) W(low)/X(q) W(high)/X(q)  e(spline)
   0      9    13.294   159.560    0.23E-03    0.88E-04    0.53E-07
   0      9    13.294   115.863    0.22E-03    0.87E-04    0.52E-07
   1      8    13.294    88.339    0.81E-04    0.17E-03    0.12E-06
   1      8    13.294    48.592    0.79E-04    0.17E-03    0.12E-06
  PAW_PBE Si 05Jan2001                  :
 energy of atom  1       EATOM= -103.0669
 kinetic energy error for atom=    0.0003 (will be added to EATOM!!)


 POSCAR: Si2
  positions in direct lattice
  No initial velocities read in
 exchange correlation table for  LEXCH =        8
   RHO(1)=    0.500       N(1)  =     2000
   RHO(2)=  100.500       N(2)  =     4000



--------------------------------------------------------------------------------------------------------


 ion  position               nearest neighbor table
   1  0.250  0.250  0.250-   2 2.37   2 2.37   2 2.37   2 2.37
   2  0.000  0.000  0.000-   1 2.37   1 2.37   1 2.37   1 2.37

  LATTYP: Found a face centered cubic cell.
 ALAT       =     5.4687280757

  Lattice vectors:

 A1 = (   3.3488980000,   0.0000000000,   1.9334870000)
 A2 = (   1.1162990000,   3.1573720000,   1.9334870000)
 A3 = (   0.0000000000,   0.0000000000,   3.8669750000)


Analysis of symmetry for initial positions (statically):
=====================================================================
 Subroutine PRICEL returns:
 Original cell was already a primitive cell.


 Routine SETGRP: Setting up the symmetry group for a
 face centered cubic supercell.


 Subroutine GETGRP returns: Found 48 space group operations
 (whereof 24 operations were pure point group operations)
 out of a pool of 48 trial point group operations.


The static configuration has the point symmetry T_d .
 The point group associated with its full space group is O_h .


Analysis of symmetry for dynamics (positions and initial velocities):
=====================================================================
 Subroutine PRICEL returns:
 Original cell was already a primitive cell.


 Routine SETGRP: Setting up the symmetry group for a
 face centered cubic supercell.


 Subroutine GETGRP returns: Found 48 space group operations
 (whereof 24 operations were pure point group operations)
 out of a pool of 48 trial point group operations.


The dynamic configuration has the point symmetry T_d .
 The point group associated with its full space group is O_h .


Analysis of structural, dynamic, and magnetic symmetry:
=====================================================================
 Subroutine PRICEL returns:
 Original cell was already a primitive cell.


 Routine SETGRP: Setting up the symmetry group for a
 face centered cubic supercell.


 Subroutine GETGRP returns: Found 48 space group operations
 (whereof 24 operations were pure point group operations)
 out of a pool of 48 trial point group operations.


The overall configuration has the point symmetry T_d .
 The point group associated with its full space group is O_h .


 Subroutine INISYM returns: Found 48 space group operations
 (whereof 24 operations are pure point group operations),
 and found     1 'primitive' translations


----------------------------------------------------------------------------------------

                                     Primitive cell

  volume of cell :      40.8883

  direct lattice vectors                    reciprocal lattice vectors
     3.348898000  0.000000000  1.933487000     0.298605691 -0.105573000  0.000000000
     1.116299000  3.157372000  1.933487000     0.000000000  0.316719094  0.000000000
     0.000000000  0.000000000  3.866975000    -0.149302807 -0.105573020  0.258600069

  length of vectors
     3.866974243  3.866974707  3.866975000     0.316719145  0.316719094  0.316719096

  position of ions in fractional coordinates (direct lattice)
     0.250000000  0.250000000  0.250000000
     0.000000000  0.000000000  0.000000000

  ion indices of the primitive-cell ions
   primitive index   ion index
                 1           1
                 2           2

----------------------------------------------------------------------------------------


 -----------------------------------------------------------------------------
|                                                                             |
|           W    W    AA    RRRRR   N    N  II  N    N   GGGG   !!!           |
|           W    W   A  A   R    R  NN   N  II  NN   N  G    G  !!!           |
|           W    W  A    A  R    R  N N  N  II  N N  N  G       !!!           |
|           W WW W  AAAAAA  RRRRR   N  N N  II  N  N N  G  GGG   !            |
|           WW  WW  A    A  R   R   N   NN  II  N   NN  G    G                |
|           W    W  A    A  R    R  N    N  II  N    N   GGGG   !!!           |
|                                                                             |
|     The requested file  could not be found or opened for reading            |
|     k-point information. Automatic k-point generation is used as a          |
|     fallback, which may lead to unwanted results.                           |
|                                                                             |
 -----------------------------------------------------------------------------



Automatic generation of k-mesh.
 Grid dimensions derived from KSPACING:
 generate k-points for:    5    5    5

 Generating k-lattice:

  Cartesian coordinates                     Fractional coordinates (reciprocal lattice)
     0.059721138 -0.021114600  0.000000000     0.200000000 -0.000000000  0.000000000
     0.000000000  0.063343819  0.000000000     0.000000000  0.200000000  0.000000000
    -0.029860561 -0.021114604  0.051720014    -0.000000000  0.000000000  0.200000000

  Length of vectors
     0.063343829  0.063343819  0.063343819

  Shift w.r.t. Gamma in fractional coordinates (k-lattice)
     0.000000000  0.000000000  0.000000000


 Subroutine IBZKPT returns following result:
 ===========================================

 Found     10 irreducible k-points:

 Following reciprocal coordinates:
            Coordinates               Weight
  0.000000  0.000000  0.000000      1.000000
  0.200000  0.000000  0.000000      8.000000
  0.400000  0.000000  0.000000      8.000000
  0.200000  0.200000  0.000000      6.000000
  0.400000  0.200000  0.000000     24.000000
 -0.400000  0.200000  0.000000     24.000000
 -0.200000  0.200000  0.000000     12.000000
  0.400000  0.400000  0.000000      6.000000
 -0.400000  0.400000  0.000000     12.000000
 -0.400000  0.400000  0.200000     24.000000

 Following cartesian coordinates:
            Coordinates               Weight
  0.000000  0.000000  0.000000      1.000000
  0.059721 -0.021115  0.000000      8.000000
  0.119442 -0.042229  0.000000      8.000000
  0.059721  0.042229  0.000000      6.000000
  0.119442  0.021115  0.000000     24.000000
 -0.119442  0.105573  0.000000     24.000000
 -0.059721  0.084458  0.000000     12.000000
  0.119442  0.084458  0.000000      6.000000
 -0.119442  0.168917  0.000000     12.000000
 -0.149303  0.147802  0.051720     24.000000


 Subroutine IBZKPT_HF returns following result:
 ==============================================

 Found    125 k-points in 1st BZ
 the following    125 k-points will be used (e.g. in the exchange kernel)
 Following reciprocal coordinates:   # in IRBZ
  0.000000  0.000000  0.000000    0.00800000   1 t-inv F
  0.200000  0.000000  0.000000    0.00800000   2 t-inv F
  0.400000  0.000000  0.000000    0.00800000   3 t-inv F
  0.200000  0.200000  0.000000    0.00800000   4 t-inv F
  0.400000  0.200000  0.000000    0.00800000   5 t-inv F
 -0.400000  0.200000  0.000000    0.00800000   6 t-inv F
 -0.200000  0.200000  0.000000    0.00800000   7 t-inv F
  0.400000  0.400000  0.000000    0.00800000   8 t-inv F
 -0.400000  0.400000  0.000000    0.00800000   9 t-inv F
 -0.400000  0.400000  0.200000    0.00800000  10 t-inv F
  0.000000  0.200000  0.000000    0.00800000   2 t-inv F
  0.000000  0.000000  0.200000    0.00800000   2 t-inv F
 -0.200000 -0.200000 -0.200000    0.00800000   2 t-inv F
 -0.200000 -0.000000  0.000000    0.00800000   2 t-inv F
  0.000000 -0.200000 -0.000000    0.00800000   2 t-inv F
 -0.000000  0.000000 -0.200000    0.00800000   2 t-inv F
  0.200000  0.200000  0.200000    0.00800000   2 t-inv F
  0.000000  0.400000  0.000000    0.00800000   3 t-inv F
  0.000000  0.000000  0.400000    0.00800000   3 t-inv F
 -0.400000 -0.400000 -0.400000    0.00800000   3 t-inv F
 -0.400000 -0.000000  0.000000    0.00800000   3 t-inv F
  0.000000 -0.400000 -0.000000    0.00800000   3 t-inv F
 -0.000000  0.000000 -0.400000    0.00800000   3 t-inv F
  0.400000  0.400000  0.400000    0.00800000   3 t-inv F
  0.000000  0.200000  0.200000    0.00800000   4 t-inv F
  0.200000  0.000000  0.200000    0.00800000   4 t-inv F
 -0.200000 -0.200000  0.000000    0.00800000   4 t-inv F
 -0.200000 -0.000000 -0.200000    0.00800000   4 t-inv F
  0.000000 -0.200000 -0.200000    0.00800000   4 t-inv F
  0.000000  0.400000  0.200000    0.00800000   5 t-inv F
  0.200000  0.000000  0.400000    0.00800000   5 t-inv F
 -0.200000 -0.200000  0.200000    0.00800000   5 t-inv F
 -0.400000 -0.200000 -0.400000    0.00800000   5 t-inv F
  0.200000  0.400000  0.000000    0.00800000   5 t-inv F
  0.200000 -0.200000 -0.200000    0.00800000   5 t-inv F
 -0.400000 -0.400000 -0.200000    0.00800000   5 t-inv F
  0.000000  0.200000  0.400000    0.00800000   5 t-inv F
 -0.200000  0.200000 -0.200000    0.00800000   5 t-inv F
 -0.200000 -0.400000 -0.400000    0.00800000   5 t-inv F
  0.400000  0.000000  0.200000    0.00800000   5 t-inv F
 -0.400000 -0.200000  0.000000    0.00800000   5 t-inv F
  0.000000 -0.400000 -0.200000    0.00800000   5 t-inv F
 -0.200000  0.000000 -0.400000    0.00800000   5 t-inv F
  0.200000  0.200000 -0.200000    0.00800000   5 t-inv F
  0.400000  0.200000  0.400000    0.00800000   5 t-inv F
 -0.200000 -0.400000  0.000000    0.00800000   5 t-inv F
 -0.200000  0.200000  0.200000    0.00800000   5 t-inv F
  0.400000  0.400000  0.200000    0.00800000   5 t-inv F
  0.000000 -0.200000 -0.400000    0.00800000   5 t-inv F
  0.200000 -0.200000  0.200000    0.00800000   5 t-inv F
  0.200000  0.400000  0.400000    0.00800000   5 t-inv F
 -0.400000  0.000000 -0.200000    0.00800000   5 t-inv F
  0.000000 -0.400000  0.200000    0.00800000   6 t-inv F
  0.200000  0.000000 -0.400000    0.00800000   6 t-inv F
 -0.200000 -0.200000 -0.600000    0.00800000   6 t-inv F
  0.400000  0.600000  0.400000    0.00800000   6 t-inv F
  0.200000 -0.400000  0.000000    0.00800000   6 t-inv F
 -0.600000 -0.200000 -0.200000    0.00800000   6 t-inv F
  0.400000  0.400000  0.600000    0.00800000   6 t-inv F
  0.000000  0.200000 -0.400000    0.00800000   6 t-inv F
 -0.200000 -0.600000 -0.200000    0.00800000   6 t-inv F
  0.600000  0.400000  0.400000    0.00800000   6 t-inv F
 -0.400000  0.000000  0.200000    0.00800000   6 t-inv F
  0.400000 -0.200000  0.000000    0.00800000   6 t-inv F
  0.000000  0.400000 -0.200000    0.00800000   6 t-inv F
 -0.200000  0.000000  0.400000    0.00800000   6 t-inv F
  0.200000  0.200000  0.600000    0.00800000   6 t-inv F
 -0.400000 -0.600000 -0.400000    0.00800000   6 t-inv F
 -0.200000  0.400000  0.000000    0.00800000   6 t-inv F
  0.600000  0.200000  0.200000    0.00800000   6 t-inv F
 -0.400000 -0.400000 -0.600000    0.00800000   6 t-inv F
  0.000000 -0.200000  0.400000    0.00800000   6 t-inv F
  0.200000  0.600000  0.200000    0.00800000   6 t-inv F
 -0.600000 -0.400000 -0.400000    0.00800000   6 t-inv F
  0.400000  0.000000 -0.200000    0.00800000   6 t-inv F
  0.000000 -0.200000  0.200000    0.00800000   7 t-inv F
  0.200000  0.000000 -0.200000    0.00800000   7 t-inv F
 -0.200000 -0.200000 -0.400000    0.00800000   7 t-inv F
  0.200000  0.400000  0.200000    0.00800000   7 t-inv F
  0.200000 -0.200000  0.000000    0.00800000   7 t-inv F
 -0.400000 -0.200000 -0.200000    0.00800000   7 t-inv F
  0.200000  0.200000  0.400000    0.00800000   7 t-inv F
  0.000000  0.200000 -0.200000    0.00800000   7 t-inv F
 -0.200000 -0.400000 -0.200000    0.00800000   7 t-inv F
  0.400000  0.200000  0.200000    0.00800000   7 t-inv F
 -0.200000  0.000000  0.200000    0.00800000   7 t-inv F
  0.000000  0.400000  0.400000    0.00800000   8 t-inv F
  0.400000  0.000000  0.400000    0.00800000   8 t-inv F
 -0.400000 -0.400000  0.000000    0.00800000   8 t-inv F
 -0.400000  0.000000 -0.400000    0.00800000   8 t-inv F
  0.000000 -0.400000 -0.400000    0.00800000   8 t-inv F
  0.000000 -0.400000  0.400000    0.00800000   9 t-inv F
  0.400000  0.000000 -0.400000    0.00800000   9 t-inv F
 -0.400000 -0.400000 -0.800000    0.00800000   9 t-inv F
  0.400000  0.800000  0.400000    0.00800000   9 t-inv F
  0.400000 -0.400000  0.000000    0.00800000   9 t-inv F
 -0.800000 -0.400000 -0.400000    0.00800000   9 t-inv F
  0.400000  0.400000  0.800000    0.00800000   9 t-inv F
  0.000000  0.400000 -0.400000    0.00800000   9 t-inv F
 -0.400000 -0.800000 -0.400000    0.00800000   9 t-inv F
  0.800000  0.400000  0.400000    0.00800000   9 t-inv F
 -0.400000  0.000000  0.400000    0.00800000   9 t-inv F
  0.200000 -0.400000  0.400000    0.00800000  10 t-inv F
  0.400000  0.200000 -0.400000    0.00800000  10 t-inv F
 -0.400000 -0.200000 -0.800000    0.00800000  10 t-inv F
  0.400000  0.800000  0.600000    0.00800000  10 t-inv F
 -0.200000 -0.600000  0.200000    0.00800000  10 t-inv F
  0.200000 -0.600000 -0.200000    0.00800000  10 t-inv F
 -0.800000 -0.200000 -0.400000    0.00800000  10 t-inv F
  0.600000  0.800000  0.400000    0.00800000  10 t-inv F
  0.600000  0.400000  0.800000    0.00800000  10 t-inv F
  0.200000 -0.200000 -0.600000    0.00800000  10 t-inv F
 -0.800000 -0.400000 -0.200000    0.00800000  10 t-inv F
 -0.200000  0.200000 -0.600000    0.00800000  10 t-inv F
 -0.400000 -0.800000 -0.200000    0.00800000  10 t-inv F
  0.400000  0.600000  0.800000    0.00800000  10 t-inv F
  0.800000  0.600000  0.400000    0.00800000  10 t-inv F
 -0.600000  0.200000 -0.200000    0.00800000  10 t-inv F
 -0.200000 -0.800000 -0.400000    0.00800000  10 t-inv F
 -0.600000 -0.200000  0.200000    0.00800000  10 t-inv F
 -0.200000 -0.400000 -0.800000    0.00800000  10 t-inv F
  0.800000  0.400000  0.600000    0.00800000  10 t-inv F
 -0.400000  0.200000  0.400000    0.00800000  10 t-inv F
  0.400000 -0.400000  0.200000    0.00800000  10 t-inv F
  0.200000  0.400000 -0.400000    0.00800000  10 t-inv F


--------------------------------------------------------------------------------------------------------




 Dimension of arrays:
   k-points           NKPTS =     10   k-points in BZ     NKDIM =    125   number of bands    NBANDS=     40
   number of dos      NEDOS =    301   number of ions     NIONS =      2
   non local maximal  LDIM  =      4   non local SUM 2l+1 LMDIM =      8
   total plane-waves  NPLWV =  46656
   max r-space proj   IRMAX =   6824   max aug-charges    IRDMAX=  38346
   dimension x,y,z NGX =    36 NGY =   36 NGZ =   36
   dimension x,y,z NGXF=    72 NGYF=   72 NGZF=   72
   support grid    NGXF=    72 NGYF=   72 NGZF=   72
   ions per type =               2
   NGX,Y,Z   is equivalent  to a cutoff of  15.48, 15.48, 15.48 a.u.
   NGXF,Y,Z  is equivalent  to a cutoff of  30.95, 30.95, 30.95 a.u.

 SYSTEM =  unknown system
 POSCAR =  Si2

 Startparameter for this run:
   NWRITE =      2    write-flag & timer
   PREC   = accura    normal or accurate (medium, high low for compatibility)
   ISTART =      0    job   : 0-new  1-cont  2-samecut
   ICHARG =      2    charge: 1-file 2-atom 10-const
   ISPIN  =      2    spin polarized calculation?
   LNONCOLLINEAR =      F non collinear calculations
   LSORBIT =      F    spin-orbit coupling
   INIWAV =      1    electr: 0-lowe 1-rand  2-diag
   LASPH  =      T    aspherical Exc in radial PAW
   METAGGA=      F    non-selfconsistent MetaGGA calc.

 Electronic Relaxation 1
   ENCUT  =  680.0 eV  49.98 Ry    7.07 a.u.   8.22  8.22  8.22*2*pi/ulx,y,z
   ENINI  =  680.0     initial cutoff
   ENAUG  = 1360.0 eV  augmentation charge cutoff
   NELM   =    200;   NELMIN=  2; NELMDL= -5     # of ELM steps
   EDIFF  = 0.1E-04   stopping-criterion for ELM
   LREAL  =      T    real-space projection
   NLSPLINE    = F    spline interpolate recip. space projectors
   LCOMPAT=      F    compatible to vasp.4.4
   GGA_COMPAT  = T    GGA compatible to vasp.4.4-vasp.4.6
   LMAXPAW     = -100 max onsite density
   LMAXMIX     =    2 max onsite mixed and CHGCAR
   VOSKOWN=      0    Vosko Wilk Nusair interpolation
   ROPT   =   -0.00025
 Ionic relaxation
   EDIFFG = -.2E-01   stopping-criterion for IOM
   NSW    =     99    number of steps for IOM
   NBLOCK =      1;   KBLOCK =     99    inner block; outer block
   IBRION =      2    ionic relax: 0-MD 1-quasi-New 2-CG
   NFREE  =      1    steps in history (QN), initial steepest desc. (CG)
   ISIF   =      3    stress and relaxation
   IWAVPR =     11    prediction:  0-non 1-charg 2-wave 3-comb
   ISYM   =      3    0-nonsym 1-usesym 2-fastsym
   LCORR  =      T    Harris-Foulkes like correction to forces

   POTIM  = 0.5000    time-step for ionic-motion
   TEIN   =    0.0    initial temperature
   TEBEG  =    0.0;   TEEND  =   0.0 temperature during run
   SMASS  =  -3.00    Nose mass-parameter (am)
   estimated Nose-frequenzy (Omega)   =  0.10E-29 period in steps = 0.13E+47 mass=  -0.342E-27a.u.
   SCALEE = 1.0000    scale energy and forces
   NPACO  =    256;   APACO  = 16.0  distance and # of slots for P.C.
   PSTRESS=    0.0 pullay stress

  Mass of Ions in am
   POMASS =  28.09
  Ionic Valenz
   ZVAL   =   4.00
  Atomic Wigner-Seitz radii
   RWIGS  =  -1.00
  virtual crystal weights
   VCA    =   1.00
   NELECT =       8.0000    total number of electrons
   NUPDOWN=      -1.0000    fix difference up-down

 DOS related values:
   EMIN   =  10.00;   EMAX   =-10.00  energy-range for DOS
   EFERMI =   0.00
   ISMEAR =     0;   SIGMA  =   0.05  broadening in eV -4-tet -1-fermi 0-gaus

 Electronic relaxation 2 (details)
   IALGO  =     58    algorithm
   LDIAG  =      T    sub-space diagonalisation (order eigenvalues)
   LSUBROT=      F    optimize rotation matrix (better conditioning)
   TURBO    =      0    0=normal 1=particle mesh
   IRESTART =      0    0=no restart 2=restart with 2 vectors
   NREBOOT  =      0    no. of reboots
   NMIN     =      0    reboot dimension
   EREF     =   0.00    reference energy to select bands
   IMIX   =      4    mixing-type and parameters
     AMIX     =   0.40;   BMIX     =  1.00
     AMIX_MAG =   1.60;   BMIX_MAG =  1.00
     AMIN     =   0.10
     WC   =   100.;   INIMIX=   1;  MIXPRE=   1;  MAXMIX= -45

 Intra band minimization:
   WEIMIN = 0.0010     energy-eigenvalue tresh-hold
   EBREAK =  0.63E-07  absolut break condition
   DEPER  =   0.30     relativ break condition

   TIME   =   0.40     timestep for ELM

  volume/ion in A,a.u.               =      20.44       137.96
  Fermi-wavevector in a.u.,A,eV,Ry     =   0.950397  1.795990 12.289528  0.903255
  Thomas-Fermi vector in A             =   2.078770

 Write flags
   LWAVE        =      F    write WAVECAR
   LDOWNSAMPLE  =      F    k-point downsampling of WAVECAR
   LCHARG       =      T    write CHGCAR
   LVTOT        =      T    write LOCPOT, total local potential
   LVHAR        =      F    write LOCPOT, Hartree potential only
   LELF         =      T    write electronic localiz. function (ELF)
   LORBIT       =     11    0 simple, 1 ext, 2 COOP (PROOUT), +10 PAW based schemes


 Dipole corrections
   LMONO  =      F    monopole corrections only (constant potential shift)
   LDIPOL =      F    correct potential (dipole corrections)
   IDIPOL =      0    1-x, 2-y, 3-z, 4-all directions
   EPSILON=  1.0000000 bulk dielectric constant

 Exchange correlation treatment:
   GGA     =    PE    GGA type
   LEXCH   =     8    internal setting for exchange type
   VOSKOWN=      0    Vosko Wilk Nusair interpolation
   EXXOEP  =     0    0=HF, 1=EXX-LHF (local Hartree Fock) 2=EXX OEP
   LHFCALC =     T    Hartree Fock is set to
   LSYMGRAD=     F    symmetrize gradient (conserves proper symmetry)
   PRECFOCK=fast      Normal, Fast or Accurate (Low or Medium for compatibility)
   LRHFCALC=     F    long range Hartree Fock
   LRSCOR  =     F    long range correlation only (use DFT for short range part)
   LTHOMAS =     F    Thomas Fermi screening in HF
   LMODELHF=     F    short range full HF, long range fraction AEXX
   LFOCKACE=     T    use Adeptively-Compressed-Exchange operator
   ENCUT4O =  -1.0   cutoff for four orbital integrals eV
   LMAXFOCK=     4    L truncation for augmentation on plane wave grid
   LMAXFOCKAE=  -1    L truncation for all-electron charge restoration on plane wave grid
   NMAXFOCKAE=   1    number of basis functions for all-electron charge restoration
   LFOCKAEDFT=     F  apply the AE augmentation even for DFT
   NKREDX  =     1    reduce k-point grid by
   NKREDY  =     1    reduce k-point grid by
   NKREDZ  =     1    reduce k-point grid by
   SHIFTRED=     F    shift reduced grid of Gamma
   HFKIDENT=     F    idential grid for each k-point
   ODDONLY =     F    use only odd q-grid points
   EVENONLY=     F    use only even q-grid points
   HFALPHA =   -1.0000 decay constant for conv. correction
   MCALPHA =    0.0000 extent of test-charge in conv. correction in multipole expansion
   AEXX    =    0.2500 exact exchange contribution
   HFSCREEN=    0.2000 screening length (either q_TF or 0.3 A-1)
   HFSCREENC=   0.2000 screening length for correlation (either q_TF or 0.3 A-1)
   HFRCUT  =    0.0000 spherical cutoff for potential kernel
   ALDAX   =    0.7500 LDA exchange part
   AGGAX   =    0.7500 GGA exchange part
   ALDAC   =    1.0000 LDA correlation
   AGGAC   =    1.0000 GGA correlation
   ENCUTFOCK=  -1.0 apply spherical cutoff to Coloumb kernel
   NBANDSGWLOW=     1    first orbital included in HF term
   NBLOCK_FOCK=    64    blocking factor in FOCK_ACC
 Linear response parameters
   LEPSILON=     F    determine dielectric tensor
   LRPA    =     F    only Hartree local field effects (RPA)
   LNABLA  =     F    use nabla operator in PAW spheres
   LVEL    =     F    velocity operator in full k-point grid
   LINTERFAST=   F  fast interpolation
   KINTER  =     0    interpolate to denser k-point grid
   CSHIFT  =0.1000    complex shift for real part using Kramers Kronig
   OMEGAMAX=  -1.0    maximum frequency
   DEG_THRESHOLD= 0.2000000E-02 threshold for treating states as degnerate
   RTIME   =   -0.100 relaxation time in fs
  (WPLASMAI=    0.000 imaginary part of plasma frequency in eV, 0.658/RTIME)
   DFIELD  = 0.0000000 0.0000000 0.0000000 field for delta impulse in time

 Orbital magnetization related:
   ORBITALMAG=     F  switch on orbital magnetization
   LCHIMAG   =     F  perturbation theory with respect to B field
   DQ        =  0.001000  dq finite difference perturbation B field
   LLRAUG    =     F  two centre corrections for induced B field



--------------------------------------------------------------------------------------------------------


 conjugate gradient relaxation of ions
 charge density and potential will be updated during run
 spin polarized calculation
 Conjugate gradient for all bands (Freysoldt, et al. PRB 79, 241103 (2009))
 preconditioned conjugated gradient
 perform sub-space diagonalisation
    before iterative eigenvector-optimisation
 modified Broyden-mixing scheme, WC =      100.0
 initial mixing is a Kerker type mixing with AMIX =  0.4000 and BMIX =      1.0000
 Hartree-type preconditioning will be used
 using additional bands           36
 real space projection scheme for non local part
 use partial core corrections
 no Harris-corrections to forces
 use gradient corrections
 use of overlap-Matrix (Vanderbilt PP)
 Gauss-broadening in eV      SIGMA  =   0.05


--------------------------------------------------------------------------------------------------------


  energy-cutoff  :      680.00
  volume of cell :       40.89
      direct lattice vectors                 reciprocal lattice vectors
     3.348898000  0.000000000  1.933487000     0.298605691 -0.105573000  0.000000000
     1.116299000  3.157372000  1.933487000     0.000000000  0.316719094  0.000000000
     0.000000000  0.000000000  3.866975000    -0.149302807 -0.105573020  0.258600069

  length of vectors
     3.866974243  3.866974707  3.866975000     0.316719145  0.316719094  0.316719096



 k-points in units of 2pi/SCALE and weight: read from INCAR
   0.00000000  0.00000000  0.00000000       0.008
   0.05972114 -0.02111460  0.00000000       0.064
   0.11944228 -0.04222920  0.00000000       0.064
   0.05972114  0.04222922  0.00000000       0.048
   0.11944228  0.02111462  0.00000000       0.192
  -0.11944228  0.10557302  0.00000000       0.192
  -0.05972114  0.08445842  0.00000000       0.096
   0.11944228  0.08445844  0.00000000       0.048
  -0.11944228  0.16891684  0.00000000       0.096
  -0.14930284  0.14780223  0.05172001       0.192

 k-points in reciprocal lattice and weights: read from INCAR
   0.00000000  0.00000000  0.00000000       0.008
   0.20000000  0.00000000  0.00000000       0.064
   0.40000000  0.00000000  0.00000000       0.064
   0.20000000  0.20000000  0.00000000       0.048
   0.40000000  0.20000000  0.00000000       0.192
  -0.40000000  0.20000000  0.00000000       0.192
  -0.20000000  0.20000000  0.00000000       0.096
   0.40000000  0.40000000  0.00000000       0.048
  -0.40000000  0.40000000  0.00000000       0.096
  -0.40000000  0.40000000  0.20000000       0.192

 position of ions in fractional coordinates (direct lattice)
   0.25000000  0.25000000  0.25000000
   0.00000000  0.00000000  0.00000000

 position of ions in cartesian coordinates  (Angst):
   1.11629925  0.78934300  1.93348725
   0.00000000  0.00000000  0.00000000



--------------------------------------------------------------------------------------------------------


 k-point   1 :   0.0000 0.0000 0.0000  plane waves:    1639
 k-point   2 :   0.2000 0.0000 0.0000  plane waves:    1654
 k-point   3 :   0.4000 0.0000 0.0000  plane waves:    1646
 k-point   4 :   0.2000 0.2000 0.0000  plane waves:    1640
 k-point   5 :   0.4000 0.2000 0.0000  plane waves:    1644
 k-point   6 :  -0.4000 0.2000 0.0000  plane waves:    1645
 k-point   7 :  -0.2000 0.2000 0.0000  plane waves:    1652
 k-point   8 :   0.4000 0.4000 0.0000  plane waves:    1652
 k-point   9 :  -0.4000 0.4000 0.0000  plane waves:    1650
 k-point  10 :  -0.4000 0.4000 0.2000  plane waves:    1649

 maximum and minimum number of plane-waves per node :      1654     1639

 maximum number of plane-waves:      1654
 maximum index in each direction:
   IXMAX=    8   IYMAX=    8   IZMAX=    8
   IXMIN=   -8   IYMIN=   -8   IZMIN=   -8


 serial   3D FFT for wavefunctions
 parallel 3D FFT for charge:
    minimum data exchange during FFTs selected (reduces bandwidth)


 FFT grid for exact exchange (Hartree Fock)
  NGX = 20; NGY = 20; NGZ = 20


 Radii for the augmentation spheres in the non-local exchange
 for species   1 augmentation radius   1.335 (default was   0.989)
       energy cutoff for augmentation   2720.0
 Maximum index for augmentation-charges in exchange         1961
  SETUP_FOCK is finished

 total amount of memory used by VASP MPI-rank0    38293. kBytes
=======================================================================

   base      :      30000. kBytes
   nonlr-proj:       1540. kBytes
   fftplans  :        551. kBytes
   grid      :       4536. kBytes
   one-center:         12. kBytes
   HF        :          4. kBytes
   wavefun   :       1650. kBytes

     INWAV:  cpu time    0.0000: real time    0.0001
 Broyden mixing: mesh for mixing (old mesh)
   NGX = 17   NGY = 17   NGZ = 17
  (NGX  = 72   NGY  = 72   NGZ  = 72)
  gives a total of   4913 points

 initial charge density was supplied:
 charge density of overlapping atoms calculated
 number of electron       8.0000000 magnetization       1.2000000
 keeping initial charge density in first step


--------------------------------------------------------------------------------------------------------


 Maximum index for non-local projection operator         6603
 Maximum index for augmentation-charges         1237 (set IRDMAX)


--------------------------------------------------------------------------------------------------------


 First call to EWALD:  gamma=   0.514
 Maximum number of real-space cells 3x 3x 3
 Maximum number of reciprocal cells 3x 3x 3

    FEWALD:  cpu time    0.0014: real time    0.0015


--------------------------------------- Iteration      1(   1)  ---------------------------------------


    POTLOK:  cpu time    0.0154: real time    0.0164
    SETDIJ:  cpu time    0.2107: real time    0.2113
    TRIAL :  cpu time    0.3245: real time    0.3382
    CORREC:  cpu time    0.0004: real time    0.0004
    --------------------------------------------
      LOOP:  cpu time    0.5520: real time    0.5684

 eigenvalue-minimisations  :  1600
 total energy-change (2. order) :-0.2611162E+03  (-0.6405139E+03)
 number of electron       8.0000000 magnetization       1.2000000
 augmentation part        8.0000000 magnetization       1.2000000

 Free energy of the ion-electron system (eV)
  ---------------------------------------------------
  alpha Z        PSCENC =         3.29317992
  Ewald energy   TEWEN  =      -226.94489173
  -Hartree energ DENC   =       -11.32339116
  -exchange      EXHF   =         0.00000000
  -V(xc)+E(xc)   XCENC  =       -18.60636939
  PAW double counting   =       176.18363791     -391.56082811
  entropy T*S    EENTRO =        -0.00061705
  eigenvalues    EBANDS =         3.84397296
  atomic energy  EATOM  =       203.99906502
  ---------------------------------------------------
  free energy    TOTEN  =      -261.11624163 eV

  energy without entropy =     -261.11562459  energy(sigma->0) =     -261.11593311
  exchange ACFDT corr.  =         0.00000000  see jH, gK, PRB 81, 115126


--------------------------------------------------------------------------------------------------------




--------------------------------------- Iteration      1(   2)  ---------------------------------------


    TRIAL :  cpu time    0.4943: real time    0.4959
    CORREC:  cpu time    0.0001: real time    0.0001
    --------------------------------------------
      LOOP:  cpu time    0.4971: real time    0.5009

 eigenvalue-minimisations  :  2320
 total energy-change (2. order) :-0.6128403E+01  (-0.6120833E+01)
 number of electron       8.0000000 magnetization       1.2000000
 augmentation part        8.0000000 magnetization       1.2000000

 Free energy of the ion-electron system (eV)
  ---------------------------------------------------
  alpha Z        PSCENC =         3.29317992
  Ewald energy   TEWEN  =      -226.94489173
  -Hartree energ DENC   =       -11.32339116
  -exchange      EXHF   =         0.00000000
  -V(xc)+E(xc)   XCENC  =       -18.60636939
  PAW double counting   =       176.18363791     -391.56082811
  entropy T*S    EENTRO =        -0.00000000
  eigenvalues    EBANDS =        -2.28504719
  atomic energy  EATOM  =       203.99906502
  ---------------------------------------------------
  free energy    TOTEN  =      -267.24464473 eV

  energy without entropy =     -267.24464473  energy(sigma->0) =     -267.24464473
  exchange ACFDT corr.  =         0.00000000  see jH, gK, PRB 81, 115126


--------------------------------------------------------------------------------------------------------




--------------------------------------- Iteration      1(   3)  ---------------------------------------


    TRIAL :  cpu time    0.3302: real time    0.3315
    CORREC:  cpu time    0.0001: real time    0.0001
    --------------------------------------------
      LOOP:  cpu time    0.3310: real time    0.3374

 eigenvalue-minimisations  :  1680
 total energy-change (2. order) :-0.7252808E-02  (-0.7256208E-02)
 number of electron       8.0000000 magnetization       1.2000000
 augmentation part        8.0000000 magnetization       1.2000000

 Free energy of the ion-electron system (eV)
  ---------------------------------------------------
  alpha Z        PSCENC =         3.29317992
  Ewald energy   TEWEN  =      -226.94489173
  -Hartree energ DENC   =       -11.32339116
  -exchange      EXHF   =         0.00000000
  -V(xc)+E(xc)   XCENC  =       -18.60636939
  PAW double counting   =       176.18363791     -391.56082811
  entropy T*S    EENTRO =        -0.00000000
  eigenvalues    EBANDS =        -2.29230000
  atomic energy  EATOM  =       203.99906502
  ---------------------------------------------------
  free energy    TOTEN  =      -267.25189754 eV

  energy without entropy =     -267.25189754  energy(sigma->0) =     -267.25189754
  exchange ACFDT corr.  =         0.00000000  see jH, gK, PRB 81, 115126


--------------------------------------------------------------------------------------------------------




--------------------------------------- Iteration      1(   4)  ---------------------------------------


    TRIAL :  cpu time    0.7739: real time    0.7762
    CORREC:  cpu time    0.0001: real time    0.0001
    --------------------------------------------
      LOOP:  cpu time    0.7790: real time    0.7827

 eigenvalue-minimisations  :  3120
 total energy-change (2. order) :-0.4738745E-05  (-0.4751451E-05)
 number of electron       8.0000000 magnetization       1.2000000
 augmentation part        8.0000000 magnetization       1.2000000

 Free energy of the ion-electron system (eV)
  ---------------------------------------------------
  alpha Z        PSCENC =         3.29317992
  Ewald energy   TEWEN  =      -226.94489173
  -Hartree energ DENC   =       -11.32339116
  -exchange      EXHF   =         0.00000000
  -V(xc)+E(xc)   XCENC  =       -18.60636939
  PAW double counting   =       176.18363791     -391.56082811
  entropy T*S    EENTRO =        -0.00000000
  eigenvalues    EBANDS =        -2.29230473
  atomic energy  EATOM  =       203.99906502
  ---------------------------------------------------
  free energy    TOTEN  =      -267.25190228 eV

  energy without entropy =     -267.25190228  energy(sigma->0) =     -267.25190228
  exchange ACFDT corr.  =         0.00000000  see jH, gK, PRB 81, 115126


--------------------------------------------------------------------------------------------------------




--------------------------------------- Iteration      1(   5)  ---------------------------------------


    POTLOK:  cpu time    0.0294: real time    0.0295
    SETDIJ:  cpu time    0.4077: real time    0.4090
    TRIAL :  cpu time   31.1481: real time   31.2455
    CORREC:  cpu time    0.0001: real time    0.0001
    CHARGE:  cpu time    0.0999: real time    0.1004
    --------------------------------------------
      LOOP:  cpu time   31.6862: real time   31.7902

 eigenvalue-minimisations  :  1840
 total energy-change (2. order) : 0.2544798E+03  (-0.2160380E+00)
 number of electron       8.0000000 magnetization      -0.0000000
 augmentation part       -0.4458827 magnetization       0.0021476

 Free energy of the ion-electron system (eV)
  ---------------------------------------------------
  alpha Z        PSCENC =         3.29317992
  Ewald energy   TEWEN  =      -226.94489173
  -Hartree energ DENC   =       -11.32339116
  -exchange      EXHF   =        11.41884406
  -V(xc)+E(xc)   XCENC  =       -14.89375656
  PAW double counting   =       171.60291941     -143.76794775
  entropy T*S    EENTRO =        -0.00000000
  eigenvalues    EBANDS =        -6.15607706
  atomic energy  EATOM  =       203.99906502
  ---------------------------------------------------
  free energy    TOTEN  =       -12.77205587 eV

  energy without entropy =      -12.77205587  energy(sigma->0) =      -12.77205587
  exchange ACFDT corr.  =        -0.00000000  see jH, gK, PRB 81, 115126


--------------------------------------------------------------------------------------------------------




--------------------------------------- Iteration      1(   6)  ---------------------------------------


    POTLOK:  cpu time    0.0276: real time    0.0278
    SETDIJ:  cpu time    0.4062: real time    0.4075
    TRIAL :  cpu time   30.9634: real time   31.1567
    CORREC:  cpu time   33.8391: real time   33.9417
    CHARGE:  cpu time    0.1003: real time    0.1008
    --------------------------------------------
      LOOP:  cpu time   65.3384: real time   65.6403

 eigenvalue-minimisations  :     0
 total energy-change (2. order) : 0.3646314E+00  (-0.1081358E+00)
 number of electron       8.0000000 magnetization       0.0000000
 augmentation part       -0.4319886 magnetization      -0.0006184

 Free energy of the ion-electron system (eV)
  ---------------------------------------------------
  alpha Z        PSCENC =         3.29317992
  Ewald energy   TEWEN  =      -226.94489173
  -Hartree energ DENC   =       -17.16364107
  -exchange      EXHF   =        11.46625540
  -V(xc)+E(xc)   XCENC  =       -14.30375037
  PAW double counting   =      1669.07135278    -1641.48384951
  entropy T*S    EENTRO =        -0.00000000
  eigenvalues    EBANDS =        -0.34114492
  atomic energy  EATOM  =       203.99906502
  ---------------------------------------------------
  free energy    TOTEN  =       -12.40742449 eV

  energy without entropy =      -12.40742449  energy(sigma->0) =      -12.40742449
  exchange ACFDT corr.  =        -0.00000000  see jH, gK, PRB 81, 115126


--------------------------------------------------------------------------------------------------------




--------------------------------------- Iteration      1(   7)  ---------------------------------------


    POTLOK:  cpu time    0.0281: real time    0.0287
    SETDIJ:  cpu time    0.4059: real time    0.4076
    TRIAL :  cpu time   33.1869: real time   33.3768
    CORREC:  cpu time   33.7379: real time   33.8713
    CHARGE:  cpu time    0.1006: real time    0.1010
    --------------------------------------------
      LOOP:  cpu time   67.4611: real time   67.7910

 eigenvalue-minimisations  :     0
 total energy-change (2. order) :-0.1081080E+00  (-0.1290821E-01)
 number of electron       8.0000000 magnetization       0.0000000
 augmentation part       -0.4318117 magnetization      -0.0003821

 Free energy of the ion-electron system (eV)
  ---------------------------------------------------
  alpha Z        PSCENC =         3.29317992
  Ewald energy   TEWEN  =      -226.94489173
  -Hartree energ DENC   =       -15.61200414
  -exchange      EXHF   =        11.28643803
  -V(xc)+E(xc)   XCENC  =       -14.41287253
  PAW double counting   =      1680.28765261    -1652.64239959
  entropy T*S    EENTRO =        -0.00000000
  eigenvalues    EBANDS =        -1.76970003
  atomic energy  EATOM  =       203.99906502
  ---------------------------------------------------
  free energy    TOTEN  =       -12.51553245 eV

  energy without entropy =      -12.51553245  energy(sigma->0) =      -12.51553245
  exchange ACFDT corr.  =        -0.00000000  see jH, gK, PRB 81, 115126


--------------------------------------------------------------------------------------------------------




--------------------------------------- Iteration      1(   8)  ---------------------------------------


    POTLOK:  cpu time    0.0279: real time    0.0280
    SETDIJ:  cpu time    0.4069: real time    0.4081
    TRIAL :  cpu time   33.3330: real time   33.4447
    CORREC:  cpu time   33.8402: real time   33.9380
    CHARGE:  cpu time    0.0986: real time    0.0989
    --------------------------------------------
      LOOP:  cpu time   67.7093: real time   67.9237

 eigenvalue-minimisations  :     0
 total energy-change (2. order) :-0.1297382E-01  (-0.3123773E-03)
 number of electron       8.0000000 magnetization       0.0000000
 augmentation part       -0.4318060 magnetization      -0.0000895

 Free energy of the ion-electron system (eV)
  ---------------------------------------------------
  alpha Z        PSCENC =         3.29317992
  Ewald energy   TEWEN  =      -226.94489173
  -Hartree energ DENC   =       -15.34528611
  -exchange      EXHF   =        11.24947760
  -V(xc)+E(xc)   XCENC  =       -14.43331541
  PAW double counting   =      1636.92061675    -1609.27241333
  entropy T*S    EENTRO =        -0.00000000
  eigenvalues    EBANDS =        -1.99493897
  atomic energy  EATOM  =       203.99906502
  ---------------------------------------------------
  free energy    TOTEN  =       -12.52850626 eV

  energy without entropy =      -12.52850626  energy(sigma->0) =      -12.52850626
  exchange ACFDT corr.  =        -0.00000000  see jH, gK, PRB 81, 115126


--------------------------------------------------------------------------------------------------------




--------------------------------------- Iteration      1(   9)  ---------------------------------------


    POTLOK:  cpu time    0.0284: real time    0.0285
    SETDIJ:  cpu time    0.4061: real time    0.4072
    TRIAL :  cpu time   33.3778: real time   33.4833
    CORREC:  cpu time   33.8089: real time   33.9282
    CHARGE:  cpu time    0.0985: real time    0.0988
    --------------------------------------------
      LOOP:  cpu time   67.7204: real time   67.9471

 eigenvalue-minimisations  :     0
 total energy-change (2. order) :-0.3116713E-03  (-0.5614440E-04)
 number of electron       8.0000000 magnetization       0.0000000
 augmentation part       -0.4320281 magnetization       0.0000156

 Free energy of the ion-electron system (eV)
  ---------------------------------------------------
  alpha Z        PSCENC =         3.29317992
  Ewald energy   TEWEN  =      -226.94489173
  -Hartree energ DENC   =       -15.33924561
  -exchange      EXHF   =        11.24743288
  -V(xc)+E(xc)   XCENC  =       -14.43377240
  PAW double counting   =      1635.35694408    -1607.70912849
  entropy T*S    EENTRO =        -0.00000000
  eigenvalues    EBANDS =        -1.99840161
  atomic energy  EATOM  =       203.99906502
  ---------------------------------------------------
  free energy    TOTEN  =       -12.52881794 eV

  energy without entropy =      -12.52881794  energy(sigma->0) =      -12.52881794
  exchange ACFDT corr.  =        -0.00000000  see jH, gK, PRB 81, 115126


--------------------------------------------------------------------------------------------------------




--------------------------------------- Iteration      1(  10)  ---------------------------------------


    POTLOK:  cpu time    0.0274: real time    0.0274
    SETDIJ:  cpu time    0.4051: real time    0.4064
    TRIAL :  cpu time   33.4439: real time   33.5392
    CORREC:  cpu time   33.9790: real time   34.0910
    CHARGE:  cpu time    0.1001: real time    0.1004
    --------------------------------------------
      LOOP:  cpu time   67.9573: real time   68.1705

 eigenvalue-minimisations  :     0
 total energy-change (2. order) :-0.5406711E-04  (-0.7292244E-05)
 number of electron       8.0000000 magnetization       0.0000000
 augmentation part       -0.4320982 magnetization      -0.0000034

 Free energy of the ion-electron system (eV)
  ---------------------------------------------------
  alpha Z        PSCENC =         3.29317992
  Ewald energy   TEWEN  =      -226.94489173
  -Hartree energ DENC   =       -15.34017865
  -exchange      EXHF   =        11.24618879
  -V(xc)+E(xc)   XCENC  =       -14.43394150
  PAW double counting   =      1633.27152110    -1605.62429595
  entropy T*S    EENTRO =        -0.00000000
  eigenvalues    EBANDS =        -1.99551900
  atomic energy  EATOM  =       203.99906502
  ---------------------------------------------------
  free energy    TOTEN  =       -12.52887200 eV

  energy without entropy =      -12.52887200  energy(sigma->0) =      -12.52887200
  exchange ACFDT corr.  =         0.00000000  see jH, gK, PRB 81, 115126


--------------------------------------------------------------------------------------------------------




--------------------------------------- Iteration      1(  11)  ---------------------------------------


    POTLOK:  cpu time    0.0279: real time    0.0281
    SETDIJ:  cpu time    0.4061: real time    0.4072
    TRIAL :  cpu time   33.5871: real time   33.7068
    CORREC:  cpu time   33.9939: real time   34.2837
    EDDIAG:  cpu time   33.3351: real time   33.4537
    CHARGE:  cpu time    0.0989: real time    0.0993
    --------------------------------------------
      LOOP:  cpu time  101.4517: real time  101.9863

 eigenvalue-minimisations  :     0
 total energy-change (2. order) :-0.6977383E-05  (-0.6882325E-06)
 number of electron       8.0000000 magnetization       0.0000000
 augmentation part       -0.4320988 magnetization      -0.0000097

 Free energy of the ion-electron system (eV)
  ---------------------------------------------------
  alpha Z        PSCENC =         3.29317992
  Ewald energy   TEWEN  =      -226.94489173
  -Hartree energ DENC   =       -15.34101420
  -exchange      EXHF   =        11.24595955
  -V(xc)+E(xc)   XCENC  =       -14.43394779
  PAW double counting   =      1632.94545032    -1605.29841471
  entropy T*S    EENTRO =        -0.00000000
  eigenvalues    EBANDS =        -1.99426150
  atomic energy  EATOM  =       203.99906502
  ---------------------------------------------------
  free energy    TOTEN  =       -12.52887898 eV

  energy without entropy =      -12.52887898  energy(sigma->0) =      -12.52887898
  exchange ACFDT corr.  =         0.00000000  see jH, gK, PRB 81, 115126


--------------------------------------------------------------------------------------------------------


  average scaling for gradient   1.1428


 average (electrostatic) potential at core
  the test charge radii are     0.9892
  (the norm of the test charge is              1.0000)
       1 -79.7467       2 -79.7467



 E-fermi :   5.5922     XC(G=0):  -7.7661     alpha+bet :-11.7317

 Fermi energy:         5.5921502917

 spin component 1

 k-point     1 :       0.0000    0.0000    0.0000
  band No.  band energies     occupation
      1      -7.8757      1.00000
      2       5.2587      1.00000
      3       5.2587      1.00000
      4       5.2587      1.00000
      5       8.5980      0.00000
      6       8.5980      0.00000
      7       8.5980      0.00000
      8       9.3584      0.00000
      9      13.9956      0.00000
     10      14.0514      0.00000
     11      14.0514      0.00000
     12      17.5346      0.00000
     13      17.5346      0.00000
     14      17.5346      0.00000
     15      21.4236      0.00000
     16      29.7793      0.00000
     17      29.7793      0.00000
     18      29.7793      0.00000
     19      31.0529      0.00000
     20      31.0529      0.00000
     21      32.4583      0.00000
     22      32.4583      0.00000
     23      32.4583      0.00000
     24      35.7669      0.00000
     25      35.7669      0.00000
     26      35.7669      0.00000
     27      41.5787      0.00000
     28      41.5787      0.00000
     29      41.5787      0.00000
     30      44.3520      0.00000
     31      45.2549      0.00000
     32      45.2549      0.00000
     33      47.0160      0.00000
     34      47.0160      0.00000
     35      48.6413      0.00000
     36      48.6413      0.00000
     37      48.6413      0.00000
     38      50.3579      0.00000
     39      50.3579      0.00000
     40      50.4129      0.00000

 k-point     2 :       0.2000    0.0000    0.0000
  band No.  band energies     occupation
      1      -7.3120      1.00000
      2       2.0317      1.00000
      3       4.6568      1.00000
      4       4.6568      1.00000
      5       8.1850      0.00000
      6       9.4373      0.00000
      7       9.4373      0.00000
      8      12.1810      0.00000
      9      13.3181      0.00000
     10      13.3181      0.00000
     11      15.2852      0.00000
     12      17.1686      0.00000
     13      20.1637      0.00000
     14      20.1637      0.00000
     15      24.1220      0.00000
     16      25.6374      0.00000
     17      25.6374      0.00000
     18      26.5339      0.00000
     19      30.7440      0.00000
     20      30.7440      0.00000
     21      33.2367      0.00000
     22      33.2367      0.00000
     23      34.9420      0.00000
     24      36.2416      0.00000
     25      36.7183      0.00000
     26      39.3934      0.00000
     27      39.3934      0.00000
     28      40.4171      0.00000
     29      40.4171      0.00000
     30      41.2721      0.00000
     31      41.2721      0.00000
     32      44.2787      0.00000
     33      44.2787      0.00000
     34      45.2013      0.00000
     35      46.3006      0.00000
     36      46.7890      0.00000
     37      47.8153      0.00000
     38      47.8154      0.00000
     39      50.2101      0.00000
     40      50.3490      0.00000

 k-point     3 :       0.4000    0.0000    0.0000
  band No.  band energies     occupation
      1      -5.8279      1.00000
      2      -1.5799      1.00000
      3       4.0492      1.00000
      4       4.0492      1.00000
      5       7.5397      0.00000
      6       9.5074      0.00000
      7       9.5074      0.00000
      8      14.0007      0.00000
      9      15.3587      0.00000
     10      15.3587      0.00000
     11      16.3510      0.00000
     12      19.7332      0.00000
     13      19.7332      0.00000
     14      20.4273      0.00000
     15      23.4460      0.00000
     16      25.6068      0.00000
     17      25.6068      0.00000
     18      29.3421      0.00000
     19      30.1001      0.00000
     20      30.3980      0.00000
     21      30.3980      0.00000
     22      33.4101      0.00000
     23      33.4101      0.00000
     24      34.5085      0.00000
     25      34.5085      0.00000
     26      36.0167      0.00000
     27      37.3423      0.00000
     28      38.9691      0.00000
     29      38.9691      0.00000
     30      39.8316      0.00000
     31      39.8316      0.00000
     32      40.6508      0.00000
     33      43.3204      0.00000
     34      43.5841      0.00000
     35      47.1878      0.00000
     36      47.1878      0.00000
     37      48.7762      0.00000
     38      48.7762      0.00000
     39      49.2023      0.00000
     40      50.3878      0.00000

 k-point     4 :       0.2000    0.2000    0.0000
  band No.  band energies     occupation
      1      -7.1175      1.00000
      2       2.4230      1.00000
      3       3.6941      1.00000
      4       3.6941      1.00000
      5       7.4041      0.00000
      6       9.9635      0.00000
      7      11.0459      0.00000
      8      11.0459      0.00000
      9      13.2798      0.00000
     10      14.8630      0.00000
     11      16.5610      0.00000
     12      18.7736      0.00000
     13      18.7736      0.00000
     14      19.3352      0.00000
     15      25.1503      0.00000
     16      25.1503      0.00000
     17      25.7409      0.00000
     18      26.3968      0.00000
     19      27.9349      0.00000
     20      30.7243      0.00000
     21      33.4300      0.00000
     22      34.0265      0.00000
     23      34.0265      0.00000
     24      37.4347      0.00000
     25      37.4347      0.00000
     26      37.7144      0.00000
     27      38.8358      0.00000
     28      40.3070      0.00000
     29      40.3070      0.00000
     30      40.4311      0.00000
     31      42.0590      0.00000
     32      44.0166      0.00000
     33      44.9049      0.00000
     34      44.9049      0.00000
     35      47.0201      0.00000
     36      47.0949      0.00000
     37      47.6617      0.00000
     38      47.6618      0.00000
     39      47.6854      0.00000
     40      50.3943      0.00000

 k-point     5 :       0.4000    0.2000    0.0000
  band No.  band energies     occupation
      1      -5.8717      1.00000
      2      -0.5393      1.00000
      3       2.4898      1.00000
      4       3.1272      1.00000
      5       7.7267      0.00000
      6      10.1714      0.00000
      7      11.0609      0.00000
      8      11.6339      0.00000
      9      16.5494      0.00000
     10      16.7930      0.00000
     11      17.0530      0.00000
     12      19.3426      0.00000
     13      19.8305      0.00000
     14      21.5834      0.00000
     15      22.7815      0.00000
     16      24.3543      0.00000
     17      26.0936      0.00000
     18      26.5439      0.00000
     19      28.4705      0.00000
     20      30.1473      0.00000
     21      31.1140      0.00000
     22      32.4359      0.00000
     23      33.5801      0.00000
     24      34.2574      0.00000
     25      35.6458      0.00000
     26      37.0108      0.00000
     27      37.3690      0.00000
     28      37.7378      0.00000
     29      39.3790      0.00000
     30      41.0899      0.00000
     31      42.1448      0.00000
     32      42.7600      0.00000
     33      43.5426      0.00000
     34      43.5603      0.00000
     35      45.4218      0.00000
     36      46.3813      0.00000
     37      49.0905      0.00000
     38      49.8087      0.00000
     39      50.5409      0.00000
     40      50.8760      0.00000

 k-point     6 :      -0.4000    0.2000    0.0000
  band No.  band energies     occupation
      1      -4.9098      1.00000
      2      -2.0690      1.00000
      3       1.6052      1.00000
      4       3.4260      1.00000
      5       8.0382      0.00000
      6      10.6819      0.00000
      7      10.9767      0.00000
      8      13.8569      0.00000
      9      14.6877      0.00000
     10      14.7803      0.00000
     11      17.8441      0.00000
     12      20.6305      0.00000
     13      21.1132      0.00000
     14      21.7236      0.00000
     15      23.6108      0.00000
     16      26.3298      0.00000
     17      26.3717      0.00000
     18      26.8546      0.00000
     19      28.3192      0.00000
     20      28.3401      0.00000
     21      31.3435      0.00000
     22      32.4062      0.00000
     23      32.9014      0.00000
     24      32.9967      0.00000
     25      33.7450      0.00000
     26      35.1048      0.00000
     27      36.0137      0.00000
     28      37.8183      0.00000
     29      38.5564      0.00000
     30      40.3108      0.00000
     31      42.2326      0.00000
     32      42.4087      0.00000
     33      43.1088      0.00000
     34      43.1183      0.00000
     35      45.0346      0.00000
     36      47.3193      0.00000
     37      48.8599      0.00000
     38      49.2651      0.00000
     39      50.1933      0.00000
     40      51.8619      0.00000

 k-point     7 :      -0.2000    0.2000    0.0000
  band No.  band energies     occupation
      1      -6.4049      1.00000
      2       0.3787      1.00000
      3       2.0973      1.00000
      4       4.3608      1.00000
      5       8.9301      0.00000
      6      10.1412      0.00000
      7      10.3413      0.00000
      8      11.9053      0.00000
      9      12.3156      0.00000
     10      17.0234      0.00000
     11      17.2026      0.00000
     12      18.2144      0.00000
     13      20.2195      0.00000
     14      21.2288      0.00000
     15      23.6130      0.00000
     16      24.9538      0.00000
     17      26.5715      0.00000
     18      26.7638      0.00000
     19      28.5810      0.00000
     20      28.7538      0.00000
     21      32.6988      0.00000
     22      33.2644      0.00000
     23      34.1303      0.00000
     24      35.2004      0.00000
     25      36.0571      0.00000
     26      36.3784      0.00000
     27      38.1197      0.00000
     28      39.5201      0.00000
     29      40.0735      0.00000
     30      40.8866      0.00000
     31      41.8830      0.00000
     32      42.3950      0.00000
     33      44.3757      0.00000
     34      44.4908      0.00000
     35      45.6718      0.00000
     36      45.7854      0.00000
     37      45.8040      0.00000
     38      47.2883      0.00000
     39      49.3251      0.00000
     40      50.9954      0.00000

 k-point     8 :       0.4000    0.4000    0.0000
  band No.  band energies     occupation
      1      -4.9103      1.00000
      2      -1.5249      1.00000
      3       2.3592      1.00000
      4       2.3592      1.00000
      5       6.4729      0.00000
      6       7.2578      0.00000
      7      14.8928      0.00000
      8      14.8928      0.00000
      9      17.2663      0.00000
     10      17.6001      0.00000
     11      19.1479      0.00000
     12      19.1479      0.00000
     13      20.1593      0.00000
     14      21.1738      0.00000
     15      22.8539      0.00000
     16      23.6085      0.00000
     17      23.6085      0.00000
     18      25.3492      0.00000
     19      29.0978      0.00000
     20      29.6910      0.00000
     21      29.6910      0.00000
     22      30.5179      0.00000
     23      31.1809      0.00000
     24      33.6934      0.00000
     25      35.8528      0.00000
     26      35.8528      0.00000
     27      36.3240      0.00000
     28      41.2070      0.00000
     29      41.2070      0.00000
     30      41.7061      0.00000
     31      42.2454      0.00000
     32      42.6853      0.00000
     33      45.5546      0.00000
     34      46.1260      0.00000
     35      46.1260      0.00000
     36      46.6069      0.00000
     37      46.6069      0.00000
     38      46.8587      0.00000
     39      48.2089      0.00000
     40      48.9875      0.00000

 k-point     9 :      -0.4000    0.4000    0.0000
  band No.  band energies     occupation
      1      -3.5938      1.00000
      2      -2.9161      1.00000
      3       0.9293      1.00000
      4       2.4875      1.00000
      5       6.9541      0.00000
      6       9.1727      0.00000
      7      14.4790      0.00000
      8      14.9871      0.00000
      9      15.0952      0.00000
     10      15.4173      0.00000
     11      20.8093      0.00000
     12      20.9800      0.00000
     13      21.3451      0.00000
     14      22.3167      0.00000
     15      22.7391      0.00000
     16      23.2077      0.00000
     17      26.2807      0.00000
     18      27.2729      0.00000
     19      27.4929      0.00000
     20      27.5168      0.00000
     21      28.6815      0.00000
     22      29.9254      0.00000
     23      30.8127      0.00000
     24      31.7445      0.00000
     25      36.1673      0.00000
     26      36.6828      0.00000
     27      37.0078      0.00000
     28      38.0777      0.00000
     29      40.9520      0.00000
     30      41.1141      0.00000
     31      41.5730      0.00000
     32      41.9792      0.00000
     33      42.6302      0.00000
     34      44.3838      0.00000
     35      45.5159      0.00000
     36      47.1541      0.00000
     37      48.4184      0.00000
     38      49.5228      0.00000
     39      50.3222      0.00000
     40      50.7206      0.00000

 k-point    10 :      -0.4000    0.4000    0.2000
  band No.  band energies     occupation
      1      -4.4328      1.00000
      2      -1.9508      1.00000
      3       1.0220      1.00000
      4       2.0914      1.00000
      5       9.4310      0.00000
      6       9.8070      0.00000
      7      10.5683      0.00000
      8      14.0926      0.00000
      9      14.8272      0.00000
     10      16.6091      0.00000
     11      19.8478      0.00000
     12      20.8172      0.00000
     13      20.8367      0.00000
     14      22.2293      0.00000
     15      22.9749      0.00000
     16      25.1840      0.00000
     17      26.5695      0.00000
     18      26.6899      0.00000
     19      27.3032      0.00000
     20      27.7971      0.00000
     21      29.7988      0.00000
     22      29.8265      0.00000
     23      32.4071      0.00000
     24      34.4543      0.00000
     25      35.2382      0.00000
     26      35.6241      0.00000
     27      36.3877      0.00000
     28      36.6956      0.00000
     29      38.2099      0.00000
     30      39.3461      0.00000
     31      41.4288      0.00000
     32      43.7738      0.00000
     33      43.8344      0.00000
     34      45.3638      0.00000
     35      47.1629      0.00000
     36      47.2432      0.00000
     37      49.3577      0.00000
     38      49.5789      0.00000
     39      50.1986      0.00000
     40      50.3477      0.00000
 Fermi energy:         5.5921502917

 spin component 2

 k-point     1 :       0.0000    0.0000    0.0000
  band No.  band energies     occupation
      1      -7.8756      1.00000
      2       5.2591      1.00000
      3       5.2591      1.00000
      4       5.2591      1.00000
      5       8.5978      0.00000
      6       8.5978      0.00000
      7       8.5978      0.00000
      8       9.3583      0.00000
      9      13.9953      0.00000
     10      14.0513      0.00000
     11      14.0513      0.00000
     12      17.5343      0.00000
     13      17.5343      0.00000
     14      17.5343      0.00000
     15      21.4232      0.00000
     16      29.7793      0.00000
     17      29.7793      0.00000
     18      29.7793      0.00000
     19      31.0529      0.00000
     20      31.0529      0.00000
     21      32.4584      0.00000
     22      32.4584      0.00000
     23      32.4584      0.00000
     24      35.7669      0.00000
     25      35.7669      0.00000
     26      35.7669      0.00000
     27      41.5786      0.00000
     28      41.5786      0.00000
     29      41.5786      0.00000
     30      44.3517      0.00000
     31      45.2548      0.00000
     32      45.2548      0.00000
     33      47.0158      0.00000
     34      47.0159      0.00000
     35      48.6412      0.00000
     36      48.6412      0.00000
     37      48.6412      0.00000
     38      50.3578      0.00000
     39      50.3581      0.00000
     40      50.4735      0.00000

 k-point     2 :       0.2000    0.0000    0.0000
  band No.  band energies     occupation
      1      -7.3119      1.00000
      2       2.0318      1.00000
      3       4.6571      1.00000
      4       4.6571      1.00000
      5       8.1849      0.00000
      6       9.4372      0.00000
      7       9.4372      0.00000
      8      12.1810      0.00000
      9      13.3179      0.00000
     10      13.3179      0.00000
     11      15.2849      0.00000
     12      17.1683      0.00000
     13      20.1635      0.00000
     14      20.1635      0.00000
     15      24.1216      0.00000
     16      25.6374      0.00000
     17      25.6374      0.00000
     18      26.5338      0.00000
     19      30.7440      0.00000
     20      30.7440      0.00000
     21      33.2368      0.00000
     22      33.2368      0.00000
     23      34.9420      0.00000
     24      36.2416      0.00000
     25      36.7182      0.00000
     26      39.3933      0.00000
     27      39.3933      0.00000
     28      40.4170      0.00000
     29      40.4170      0.00000
     30      41.2720      0.00000
     31      41.2720      0.00000
     32      44.2786      0.00000
     33      44.2786      0.00000
     34      45.2011      0.00000
     35      46.3003      0.00000
     36      46.7889      0.00000
     37      47.8152      0.00000
     38      47.8153      0.00000
     39      50.2150      0.00000
     40      50.3493      0.00000

 k-point     3 :       0.4000    0.0000    0.0000
  band No.  band energies     occupation
      1      -5.8278      1.00000
      2      -1.5799      1.00000
      3       4.0494      1.00000
      4       4.0494      1.00000
      5       7.5396      0.00000
      6       9.5071      0.00000
      7       9.5071      0.00000
      8      14.0003      0.00000
      9      15.3586      0.00000
     10      15.3586      0.00000
     11      16.3509      0.00000
     12      19.7331      0.00000
     13      19.7331      0.00000
     14      20.4272      0.00000
     15      23.4459      0.00000
     16      25.6066      0.00000
     17      25.6066      0.00000
     18      29.3419      0.00000
     19      30.0998      0.00000
     20      30.3979      0.00000
     21      30.3980      0.00000
     22      33.4101      0.00000
     23      33.4101      0.00000
     24      34.5085      0.00000
     25      34.5085      0.00000
     26      36.0165      0.00000
     27      37.3423      0.00000
     28      38.9689      0.00000
     29      38.9689      0.00000
     30      39.8314      0.00000
     31      39.8314      0.00000
     32      40.6506      0.00000
     33      43.3202      0.00000
     34      43.5839      0.00000
     35      47.1876      0.00000
     36      47.1876      0.00000
     37      48.7750      0.00000
     38      48.7750      0.00000
     39      49.2021      0.00000
     40      50.3876      0.00000

 k-point     4 :       0.2000    0.2000    0.0000
  band No.  band energies     occupation
      1      -7.1175      1.00000
      2       2.4233      1.00000
      3       3.6942      1.00000
      4       3.6942      1.00000
      5       7.4039      0.00000
      6       9.9633      0.00000
      7      11.0459      0.00000
      8      11.0459      0.00000
      9      13.2798      0.00000
     10      14.8629      0.00000
     11      16.5608      0.00000
     12      18.7732      0.00000
     13      18.7732      0.00000
     14      19.3350      0.00000
     15      25.1502      0.00000
     16      25.1502      0.00000
     17      25.7406      0.00000
     18      26.3968      0.00000
     19      27.9348      0.00000
     20      30.7243      0.00000
     21      33.4299      0.00000
     22      34.0265      0.00000
     23      34.0265      0.00000
     24      37.4345      0.00000
     25      37.4345      0.00000
     26      37.7144      0.00000
     27      38.8356      0.00000
     28      40.3070      0.00000
     29      40.3070      0.00000
     30      40.4311      0.00000
     31      42.0588      0.00000
     32      44.0165      0.00000
     33      44.9047      0.00000
     34      44.9047      0.00000
     35      47.0200      0.00000
     36      47.0946      0.00000
     37      47.6615      0.00000
     38      47.6616      0.00000
     39      47.6851      0.00000
     40      50.3943      0.00000

 k-point     5 :       0.4000    0.2000    0.0000
  band No.  band energies     occupation
      1      -5.8716      1.00000
      2      -0.5392      1.00000
      3       2.4898      1.00000
      4       3.1273      1.00000
      5       7.7265      0.00000
      6      10.1712      0.00000
      7      11.0608      0.00000
      8      11.6338      0.00000
      9      16.5493      0.00000
     10      16.7928      0.00000
     11      17.0529      0.00000
     12      19.3425      0.00000
     13      19.8303      0.00000
     14      21.5834      0.00000
     15      22.7813      0.00000
     16      24.3540      0.00000
     17      26.0936      0.00000
     18      26.5438      0.00000
     19      28.4704      0.00000
     20      30.1471      0.00000
     21      31.1138      0.00000
     22      32.4358      0.00000
     23      33.5800      0.00000
     24      34.2573      0.00000
     25      35.6457      0.00000
     26      37.0107      0.00000
     27      37.3689      0.00000
     28      37.7376      0.00000
     29      39.3789      0.00000
     30      41.0897      0.00000
     31      42.1448      0.00000
     32      42.7598      0.00000
     33      43.5425      0.00000
     34      43.5601      0.00000
     35      45.4217      0.00000
     36      46.3811      0.00000
     37      49.0903      0.00000
     38      49.8084      0.00000
     39      50.5416      0.00000
     40      50.8837      0.00000

 k-point     6 :      -0.4000    0.2000    0.0000
  band No.  band energies     occupation
      1      -4.9097      1.00000
      2      -2.0689      1.00000
      3       1.6052      1.00000
      4       3.4262      1.00000
      5       8.0380      0.00000
      6      10.6819      0.00000
      7      10.9766      0.00000
      8      13.8568      0.00000
      9      14.6876      0.00000
     10      14.7802      0.00000
     11      17.8438      0.00000
     12      20.6305      0.00000
     13      21.1132      0.00000
     14      21.7236      0.00000
     15      23.6106      0.00000
     16      26.3298      0.00000
     17      26.3716      0.00000
     18      26.8546      0.00000
     19      28.3191      0.00000
     20      28.3399      0.00000
     21      31.3434      0.00000
     22      32.4060      0.00000
     23      32.9012      0.00000
     24      32.9966      0.00000
     25      33.7448      0.00000
     26      35.1046      0.00000
     27      36.0137      0.00000
     28      37.8181      0.00000
     29      38.5562      0.00000
     30      40.3106      0.00000
     31      42.2326      0.00000
     32      42.4087      0.00000
     33      43.1086      0.00000
     34      43.1182      0.00000
     35      45.0345      0.00000
     36      47.3191      0.00000
     37      48.8598      0.00000
     38      49.2649      0.00000
     39      50.1931      0.00000
     40      51.8617      0.00000

 k-point     7 :      -0.2000    0.2000    0.0000
  band No.  band energies     occupation
      1      -6.4048      1.00000
      2       0.3788      1.00000
      3       2.0973      1.00000
      4       4.3611      1.00000
      5       8.9299      0.00000
      6      10.1410      0.00000
      7      10.3413      0.00000
      8      11.9051      0.00000
      9      12.3155      0.00000
     10      17.0232      0.00000
     11      17.2026      0.00000
     12      18.2142      0.00000
     13      20.2194      0.00000
     14      21.2285      0.00000
     15      23.6129      0.00000
     16      24.9537      0.00000
     17      26.5715      0.00000
     18      26.7637      0.00000
     19      28.5806      0.00000
     20      28.7538      0.00000
     21      32.6988      0.00000
     22      33.2644      0.00000
     23      34.1301      0.00000
     24      35.2003      0.00000
     25      36.0569      0.00000
     26      36.3783      0.00000
     27      38.1196      0.00000
     28      39.5200      0.00000
     29      40.0734      0.00000
     30      40.8864      0.00000
     31      41.8829      0.00000
     32      42.3950      0.00000
     33      44.3756      0.00000
     34      44.4906      0.00000
     35      45.6717      0.00000
     36      45.7851      0.00000
     37      45.8037      0.00000
     38      47.2882      0.00000
     39      49.3249      0.00000
     40      50.9945      0.00000

 k-point     8 :       0.4000    0.4000    0.0000
  band No.  band energies     occupation
      1      -4.9103      1.00000
      2      -1.5247      1.00000
      3       2.3593      1.00000
      4       2.3593      1.00000
      5       6.4726      0.00000
      6       7.2575      0.00000
      7      14.8928      0.00000
      8      14.8928      0.00000
      9      17.2663      0.00000
     10      17.6002      0.00000
     11      19.1479      0.00000
     12      19.1479      0.00000
     13      20.1592      0.00000
     14      21.1737      0.00000
     15      22.8537      0.00000
     16      23.6082      0.00000
     17      23.6082      0.00000
     18      25.3491      0.00000
     19      29.0976      0.00000
     20      29.6907      0.00000
     21      29.6907      0.00000
     22      30.5177      0.00000
     23      31.1808      0.00000
     24      33.6934      0.00000
     25      35.8528      0.00000
     26      35.8528      0.00000
     27      36.3238      0.00000
     28      41.2068      0.00000
     29      41.2068      0.00000
     30      41.7059      0.00000
     31      42.2452      0.00000
     32      42.6852      0.00000
     33      45.5545      0.00000
     34      46.1259      0.00000
     35      46.1259      0.00000
     36      46.6062      0.00000
     37      46.6062      0.00000
     38      46.8584      0.00000
     39      48.2085      0.00000
     40      48.9873      0.00000

 k-point     9 :      -0.4000    0.4000    0.0000
  band No.  band energies     occupation
      1      -3.5936      1.00000
      2      -2.9160      1.00000
      3       0.9292      1.00000
      4       2.4876      1.00000
      5       6.9539      0.00000
      6       9.1725      0.00000
      7      14.4789      0.00000
      8      14.9871      0.00000
      9      15.0951      0.00000
     10      15.4173      0.00000
     11      20.8092      0.00000
     12      20.9800      0.00000
     13      21.3451      0.00000
     14      22.3167      0.00000
     15      22.7390      0.00000
     16      23.2074      0.00000
     17      26.2805      0.00000
     18      27.2726      0.00000
     19      27.4927      0.00000
     20      27.5169      0.00000
     21      28.6813      0.00000
     22      29.9252      0.00000
     23      30.8126      0.00000
     24      31.7445      0.00000
     25      36.1674      0.00000
     26      36.6827      0.00000
     27      37.0077      0.00000
     28      38.0775      0.00000
     29      40.9518      0.00000
     30      41.1139      0.00000
     31      41.5728      0.00000
     32      41.9790      0.00000
     33      42.6300      0.00000
     34      44.3835      0.00000
     35      45.5158      0.00000
     36      47.1539      0.00000
     37      48.4182      0.00000
     38      49.5228      0.00000
     39      50.3219      0.00000
     40      50.7198      0.00000

[...]
     31      40.3532      0.00000
     32      41.2162      0.00000
     33      43.8429      0.00000
     34      44.1706      0.00000
     35      47.7727      0.00000
     36      47.7727      0.00000
     37      49.4037      0.00000
     38      49.4037      0.00000
     39      49.8017      0.00000
     40      51.0736      0.00000

 k-point     4 :       0.2000    0.2000    0.0000
  band No.  band energies     occupation
      1      -7.0605      1.00000
      2       2.6088      1.00000
      3       3.8395      1.00000
      4       3.8395      1.00000
      5       7.5698      0.00000
      6      10.1707      0.00000
      7      11.2712      0.00000
      8      11.2712      0.00000
      9      13.6058      0.00000
     10      15.0625      0.00000
     11      16.8439      0.00000
     12      19.0272      0.00000
     13      19.0272      0.00000
     14      19.5950      0.00000
     15      25.5201      0.00000
     16      25.5201      0.00000
     17      26.0898      0.00000
     18      26.7398      0.00000
     19      28.3937      0.00000
     20      31.1272      0.00000
     21      33.9095      0.00000
     22      34.5409      0.00000
     23      34.5409      0.00000
     24      37.9320      0.00000
     25      37.9320      0.00000
     26      38.2037      0.00000
     27      39.3580      0.00000
     28      40.8259      0.00000
     29      40.8259      0.00000
     30      40.9475      0.00000
     31      42.6095      0.00000
     32      44.5775      0.00000
     33      45.4736      0.00000
     34      45.4736      0.00000
     35      47.5900      0.00000
     36      47.7604      0.00000
     37      48.2514      0.00000
     38      48.2514      0.00000
     39      48.3503      0.00000
     40      51.0570      0.00000

 k-point     5 :       0.4000    0.2000    0.0000
  band No.  band energies     occupation
      1      -5.7946      1.00000
      2      -0.4026      1.00000
      3       2.6236      1.00000
      4       3.2657      1.00000
      5       7.8943      0.00000
      6      10.3580      0.00000
      7      11.3134      0.00000
      8      11.8469      0.00000
      9      16.7845      0.00000
     10      17.0654      0.00000
     11      17.3922      0.00000
     12      19.6305      0.00000
     13      20.1600      0.00000
     14      21.9020      0.00000
     15      23.0823      0.00000
     16      24.6852      0.00000
     17      26.5051      0.00000
     18      26.9095      0.00000
     19      28.8947      0.00000
     20      30.5528      0.00000
     21      31.5359      0.00000
     22      32.8841      0.00000
     23      34.0489      0.00000
     24      34.7169      0.00000
     25      36.1458      0.00000
     26      37.5100      0.00000
     27      37.8646      0.00000
     28      38.2202      0.00000
     29      39.9151      0.00000
     30      41.6179      0.00000
     31      42.6859      0.00000
     32      43.3140      0.00000
     33      44.0996      0.00000
     34      44.1455      0.00000
     35      45.9959      0.00000
     36      46.9849      0.00000
     37      49.7362      0.00000
     38      50.4399      0.00000
     39      51.2013      0.00000
     40      51.5391      0.00000

 k-point     6 :      -0.4000    0.2000    0.0000
  band No.  band energies     occupation
      1      -4.8116      1.00000
      2      -1.9636      1.00000
      3       1.7243      1.00000
      4       3.5716      1.00000
      5       8.2154      0.00000
      6      10.9120      0.00000
      7      11.1730      0.00000
      8      14.1037      0.00000
      9      14.9676      0.00000
     10      14.9999      0.00000
     11      18.1074      0.00000
     12      20.9299      0.00000
     13      21.4846      0.00000
     14      22.1016      0.00000
     15      23.9475      0.00000
     16      26.7065      0.00000
     17      26.7423      0.00000
     18      27.2538      0.00000
     19      28.7049      0.00000
     20      28.7313      0.00000
     21      31.7440      0.00000
     22      32.8245      0.00000
     23      33.3590      0.00000
     24      33.4374      0.00000
     25      34.1886      0.00000
     26      35.6027      0.00000
     27      36.5327      0.00000
     28      38.3025      0.00000
     29      39.0558      0.00000
     30      40.8321      0.00000
     31      42.7813      0.00000
     32      43.0014      0.00000
     33      43.6671      0.00000
     34      43.6679      0.00000
     35      45.6209      0.00000
     36      47.9339      0.00000
     37      49.4760      0.00000
     38      49.9002      0.00000
     39      50.8224      0.00000
     40      52.5351      0.00000

 k-point     7 :      -0.2000    0.2000    0.0000
  band No.  band energies     occupation
      1      -6.3363      1.00000
      2       0.5293      1.00000
      3       2.2131      1.00000
      4       4.5236      1.00000
      5       9.1457      0.00000
      6      10.3453      0.00000
      7      10.5556      0.00000
      8      12.1618      0.00000
      9      12.4809      0.00000
     10      17.3091      0.00000
     11      17.5339      0.00000
     12      18.4586      0.00000
     13      20.5146      0.00000
     14      21.5297      0.00000
     15      23.9389      0.00000
     16      25.3550      0.00000
     17      26.9697      0.00000
     18      27.0994      0.00000
     19      28.9609      0.00000
     20      29.1797      0.00000
     21      33.1566      0.00000
     22      33.7380      0.00000
     23      34.6182      0.00000
     24      35.6978      0.00000
     25      36.5249      0.00000
     26      36.8626      0.00000
     27      38.6539      0.00000
     28      40.0329      0.00000
     29      40.5889      0.00000
     30      41.4107      0.00000
     31      42.4211      0.00000
     32      42.9371      0.00000
     33      44.9418      0.00000
     34      45.0369      0.00000
     35      46.2936      0.00000
     36      46.3620      0.00000
     37      46.3864      0.00000
     38      47.9146      0.00000
     39      49.9418      0.00000
     40      51.6747      0.00000

 k-point     8 :       0.4000    0.4000    0.0000
  band No.  band energies     occupation
      1      -4.8201      1.00000
      2      -1.3841      1.00000
      3       2.4856      1.00000
      4       2.4856      1.00000
      5       6.6182      0.00000
      6       7.4013      0.00000
      7      15.1687      0.00000
      8      15.1687      0.00000
      9      17.4954      0.00000
     10      18.0021      0.00000
     11      19.4406      0.00000
     12      19.4406      0.00000
     13      20.5233      0.00000
     14      21.4508      0.00000
     15      23.1446      0.00000
     16      23.9301      0.00000
     17      23.9301      0.00000
     18      25.7723      0.00000
     19      29.4800      0.00000
     20      30.0885      0.00000
     21      30.0885      0.00000
     22      30.9738      0.00000
     23      31.5934      0.00000
     24      34.1520      0.00000
     25      36.3703      0.00000
     26      36.3703      0.00000
     27      36.7772      0.00000
     28      41.7565      0.00000
     29      41.7565      0.00000
     30      42.2661      0.00000
     31      42.7859      0.00000
     32      43.2282      0.00000
     33      46.1939      0.00000
     34      46.6997      0.00000
     35      46.6997      0.00000
     36      47.2106      0.00000
     37      47.2106      0.00000
     38      47.4336      0.00000
     39      48.8025      0.00000
     40      49.6253      0.00000

 k-point     9 :      -0.4000    0.4000    0.0000
  band No.  band energies     occupation
      1      -3.4768      1.00000
      2      -2.7976      1.00000
      3       1.0204      1.00000
      4       2.6165      1.00000
      5       7.1016      0.00000
      6       9.3528      0.00000
      7      14.7475      0.00000
      8      15.2538      0.00000
      9      15.4175      0.00000
     10      15.6289      0.00000
     11      21.2084      0.00000
     12      21.2587      0.00000
     13      21.6680      0.00000
     14      22.6941      0.00000
     15      23.0546      0.00000
     16      23.5314      0.00000
     17      26.6505      0.00000
     18      27.6364      0.00000
     19      27.8524      0.00000
     20      27.9279      0.00000
     21      29.0966      0.00000
     22      30.3511      0.00000
     23      31.2177      0.00000
     24      32.1520      0.00000
     25      36.6915      0.00000
     26      37.2050      0.00000
     27      37.4761      0.00000
     28      38.5744      0.00000
     29      41.5066      0.00000
     30      41.6373      0.00000
     31      42.1011      0.00000
     32      42.5351      0.00000
     33      43.1672      0.00000
     34      44.9317      0.00000
     35      46.1322      0.00000
     36      47.7625      0.00000
     37      49.0631      0.00000
     38      50.1795      0.00000
     39      50.9595      0.00000
     40      51.3551      0.00000

 k-point    10 :      -0.4000    0.4000    0.2000
  band No.  band energies     occupation
      1      -4.3309      1.00000
      2      -1.8156      1.00000
      3       1.1171      1.00000
      4       2.2051      1.00000
      5       9.6202      0.00000
      6       9.9741      0.00000
      7      10.8046      0.00000
      8      14.3419      0.00000
      9      15.1020      0.00000
     10      16.8952      0.00000
     11      20.1668      0.00000
     12      21.1337      0.00000
     13      21.1348      0.00000
     14      22.5890      0.00000
     15      23.3199      0.00000
     16      25.5305      0.00000
     17      26.9659      0.00000
     18      27.0555      0.00000
     19      27.7269      0.00000
     20      28.1764      0.00000
     21      30.2019      0.00000
     22      30.2326      0.00000
     23      32.8628      0.00000
     24      34.9197      0.00000
     25      35.6844      0.00000
     26      36.0854      0.00000
     27      36.8480      0.00000
     28      37.1833      0.00000
     29      38.7357      0.00000
     30      39.8855      0.00000
     31      41.9799      0.00000
     32      44.3418      0.00000
     33      44.4047      0.00000
     34      45.9463      0.00000
     35      47.7610      0.00000
     36      47.8612      0.00000
     37      50.0013      0.00000
     38      50.2099      0.00000
     39      50.8423      0.00000
     40      50.9934      0.00000


--------------------------------------------------------------------------------------------------------


 soft charge-density along one line, spin component           1
         0         1         2         3         4         5         6         7         8         9
 total charge-density along one line

 soft charge-density along one line, spin component           2
         0         1         2         3         4         5         6         7         8         9
 total charge-density along one line

 pseudopotential strength for first ion, spin component:           1
 17.855  24.913  -0.000  -0.000   0.000  -0.000  -0.000   0.000
 24.913  34.764  -0.000  -0.000   0.000  -0.000  -0.000   0.000
 -0.000  -0.000   4.077   0.000  -0.000   7.599   0.000  -0.000
 -0.000  -0.000   0.000   4.077   0.000   0.000   7.599   0.000
  0.000   0.000  -0.000   0.000   4.077  -0.000   0.000   7.599
 -0.000  -0.000   7.599   0.000  -0.000  14.176   0.000  -0.000
 -0.000  -0.000   0.000   7.599   0.000   0.000  14.176   0.000
  0.000   0.000  -0.000   0.000   7.599  -0.000   0.000  14.176
 pseudopotential strength for first ion, spin component:           2
 17.855  24.913  -0.000  -0.000   0.000  -0.000  -0.000   0.000
 24.913  34.764  -0.000  -0.000   0.000  -0.000  -0.000   0.000
 -0.000  -0.000   4.077   0.000  -0.000   7.599   0.000  -0.000
 -0.000  -0.000   0.000   4.077   0.000   0.000   7.599   0.000
  0.000   0.000  -0.000   0.000   4.077  -0.000   0.000   7.599
 -0.000  -0.000   7.599   0.000  -0.000  14.176   0.000  -0.000
 -0.000  -0.000   0.000   7.599   0.000   0.000  14.176   0.000
  0.000   0.000  -0.000   0.000   7.599  -0.000   0.000  14.176
 total augmentation occupancy for first ion, spin component:           1
 10.965  -5.143  -0.000  -0.000   0.000   0.000   0.000  -0.000
 -5.143   2.460   0.000   0.000  -0.000  -0.000  -0.000   0.000
 -0.000   0.000   3.930  -0.000  -0.000  -1.045   0.000   0.000
 -0.000   0.000  -0.000   3.930  -0.000   0.000  -1.045   0.000
  0.000  -0.000  -0.000  -0.000   3.930   0.000   0.000  -1.045
  0.000  -0.000  -1.045   0.000   0.000   0.284  -0.000  -0.000
  0.000  -0.000   0.000  -1.045   0.000  -0.000   0.284  -0.000
 -0.000   0.000   0.000   0.000  -1.045  -0.000  -0.000   0.284
 total augmentation occupancy for first ion, spin component:           2
  0.000  -0.000   0.000   0.000  -0.000  -0.000  -0.000   0.000
 -0.000   0.000   0.000  -0.000   0.000   0.000   0.000  -0.000
  0.000   0.000   0.000   0.000  -0.000   0.000  -0.000   0.000
  0.000  -0.000   0.000   0.000   0.000  -0.000  -0.000  -0.000
 -0.000   0.000  -0.000   0.000  -0.000   0.000  -0.000   0.000
 -0.000   0.000   0.000  -0.000   0.000  -0.000   0.000  -0.000
 -0.000   0.000  -0.000  -0.000  -0.000   0.000   0.000   0.000
  0.000  -0.000   0.000  -0.000   0.000  -0.000   0.000  -0.000


------------------------ aborting loop because EDIFF is reached ----------------------------------------





 total charge

# of ion       s       p       d       tot
------------------------------------------
    1        0.755   0.967   0.000   1.722
    2        0.755   0.967   0.000   1.722
--------------------------------------------------
tot          1.510   1.935   0.000   3.444



 magnetization (x)

# of ion       s       p       d       tot
------------------------------------------
    1        0.000   0.000   0.000   0.000
    2        0.000   0.000   0.000   0.000
--------------------------------------------------
tot          0.000   0.000   0.000   0.000

    FORLOC:  cpu time    0.0002: real time    0.0002
    FORHF :  cpu time    8.1207: real time    8.2306
    FORNL :  cpu time    0.0576: real time    0.0578
    STRESS:  cpu time    0.1685: real time    0.1803
    FORCOR:  cpu time    0.0275: real time    0.0285
    OFIELD:  cpu time    0.0001: real time    0.0001

  FORCE on cell =-STRESS in cart. coord.  units (eV):
  Direction    XX          YY          ZZ          XY          YZ          ZX
  --------------------------------------------------------------------------------------
  Alpha Z     3.35135     3.35135     3.35135
  Ewald     -76.09115   -76.09117   -76.09115    -0.00001     0.00001     0.00001
  Hartree     5.04648     5.04648     5.04648    -0.00000     0.00000     0.00000
  E(xc)     -19.61962   -19.61962   -19.61962     0.00000     0.00000     0.00000
  Local     -29.19276   -29.19275   -29.19277     0.00001    -0.00000    -0.00000
  n-local    70.11617    73.48003    77.89094    -0.89833    -0.31295     0.01171
  augment   -10.65639   -10.65639   -10.65639    -0.00000    -0.00000    -0.00000
  Kinetic    52.92454    55.58922    61.33446     0.74206     0.53965    -0.48095
  Fock       -3.40348    -3.30250    -3.14331    -0.01123     0.00560    -0.00791
  -------------------------------------------------------------------------------------
  Total      -0.00008    -0.00008    -0.00008     0.00000     0.00000     0.00000
  in kB      -0.00311    -0.00311    -0.00311     0.00000     0.00000     0.00000
  external pressure =       -0.00 kB  Pullay stress =        0.00 kB


 VOLUME and BASIS-vectors are now :
 -----------------------------------------------------------------------------
  energy-cutoff  :      680.00
  volume of cell :       40.18
      direct lattice vectors                 reciprocal lattice vectors
     3.329408547  0.000000003  1.922234758     0.300353647 -0.106190996 -0.000000000
     1.109802521  3.138997155  1.922234758    -0.000000000  0.318573083 -0.000000000
     0.000000003  0.000000002  3.844470504    -0.150176785 -0.106191016  0.260113844

  length of vectors
     3.844469760  3.844470216  3.844470504     0.318573133  0.318573083  0.318573085


 FORCES acting on ions:
    Electron-Ion                     Ewald-Force                    Non-Local-Force
 -----------------------------------------------------------------------------------------------
   0.414E-05 -.908E-05 -.101E-04   -.634E-05 0.116E-04 0.142E-04   -.162E-16 0.207E-16 0.632E-17
   -.414E-05 0.904E-05 0.101E-04   0.634E-05 -.116E-04 -.142E-04   0.177E-16 -.209E-16 -.146E-16
 -----------------------------------------------------------------------------------------------
   0.516E-07 -.835E-08 0.467E-07   0.286E-16 0.453E-16 0.101E-15   0.154E-17 -.148E-18 -.828E-17


 POSITION                                       TOTAL-FORCE (eV/Angst)
 -----------------------------------------------------------------------------------
      1.10980      0.78475      1.92224         0.000000      0.000000     -0.000000
     -0.00000     -0.00000     -0.00000        -0.000000     -0.000000      0.000000
 -----------------------------------------------------------------------------------
    total drift:                                0.000000     -0.000000      0.000000


--------------------------------------------------------------------------------------------------------



  FREE ENERGIE OF THE ION-ELECTRON SYSTEM (eV)
  ---------------------------------------------------
  free  energy   TOTEN  =       -12.53265760 eV

  energy  without entropy=      -12.53265760  energy(sigma->0) =      -12.53265760

 d Force = 0.0000000E+00[ 0.000E+00, 0.000E+00]  d Energy = 0.2344931E-02-0.234E-02
 d Force = 0.0000000E+00[ 0.000E+00, 0.000E+00]  d Ewald  =-0.1047766E+01 0.105E+01


--------------------------------------------------------------------------------------------------------


    POTLOK:  cpu time    0.3911: real time    0.4471


--------------------------------------------------------------------------------------------------------




--------------------------------------------------------------------------------------------------------



 reached required accuracy - stopping structural energy minimisation
     LOOP+:  cpu time  313.6921: real time  315.4246
    4ORBIT:  cpu time    0.0000: real time    0.0000



 total charge

# of ion       s       p       d       tot
------------------------------------------
    1        0.755   0.967   0.000   1.722
    2        0.755   0.967   0.000   1.722
--------------------------------------------------
tot          1.510   1.935   0.000   3.444



 magnetization (x)

# of ion       s       p       d       tot
------------------------------------------
    1        0.000   0.000   0.000   0.000
    2        0.000   0.000   0.000   0.000
--------------------------------------------------
tot          0.000   0.000   0.000   0.000


 total amount of memory used by VASP MPI-rank0    52598. kBytes
=======================================================================

   base      :      30000. kBytes
   nonlr-proj:       3403. kBytes
   fftplans  :        551. kBytes
   grid      :       4536. kBytes
   one-center:         12. kBytes
   HF        :          4. kBytes
   wavefun   :       1650. kBytes
   fock_wrk  :      12442. kBytes



 General timing and accounting informations for this job:
 ========================================================

                  Total CPU time used (sec):     1264.087
                            User time (sec):     1260.748
                          System time (sec):        3.339
                         Elapsed time (sec):     1271.084

                   Maximum memory used (kb):      243248.
                   Average memory used (kb):          N/A

                          Minor page faults:       449167
                          Major page faults:            2
                 Voluntary context switches:         1926
