<?xml version="1.0" encoding="ISO-8859-1"?>
<modeling>
 <generator>
  <i name="program" type="string">vasp </i>
  <i name="version" type="string">6.2.0  </i>
  <i name="subversion" type="string">18Jan21 (build Jan 29 2021 15:03:46) complex                          parallel </i>
  <i name="platform" type="string">LinuxIFC </i>
  <i name="date" type="string">2021 10 29 </i>
  <i name="time" type="string">12:24:49 </i>
 </generator>
 <incar>
  <i type="string" name="PREC">Accurate</i>
  <i type="string" name="ALGO">All</i>
  <i type="int" name="ISPIN">     2</i>
  <i type="int" name="NELM">   200</i>
  <i type="int" name="IBRION">     2</i>
  <i name="EDIFF">      0.00001000</i>
  <i name="EDIFFG">     -0.02000000</i>
  <i type="int" name="NSW">    99</i>
  <i type="int" name="ISIF">     3</i>
  <i name="ENCUT">    680.00000000</i>
  <i name="ENAUG">   1360.00000000</i>
  <v name="MAGMOM">      0.60000000      0.60000000</v>
  <i type="string" name="LREAL">Auto</i>
  <i type="int" name="ISMEAR">     0</i>
  <i name="SIGMA">      0.05000000</i>
  <i name="KSPACING">      0.40000000</i>
  <i type="logical" name="LWAVE"> F  </i>
  <i type="logical" name="LCHARG"> T  </i>
  <i type="logical" name="LVTOT"> T  </i>
  <i type="int" name="LORBIT">    11</i>
  <i type="logical" name="LELF"> T  </i>
  <i type="logical" name="LASPH"> T  </i>
  <i type="logical" name="LAECHG"> T  </i>
  <i name="HFSCREEN">      0.20000000</i>
  <i type="logical" name="LHFCALC"> T  </i>
  <i type="string" name="GGA">Pe</i>
  <i type="string" name="PRECFOCK">Fast</i>
  <i type="logical" name="LMIXTAU"> T  </i>
 </incar>
 <primitive_cell>
  <structure name="primitive_cell" >
   <crystal>
    <varray name="basis" >
     <v>       3.34889800       0.00000000       1.93348700 </v>
     <v>       1.11629900       3.15737200       1.93348700 </v>
     <v>       0.00000000       0.00000000       3.86697500 </v>
    </varray>
    <i name="volume">     40.88829843 </i>
    <varray name="rec_basis" >
     <v>       0.29860569      -0.10557300       0.00000000 </v>
     <v>       0.00000000       0.31671909       0.00000000 </v>
     <v>      -0.14930281      -0.10557302       0.25860007 </v>
    </varray>
   </crystal>
   <varray name="positions" >
    <v>       0.25000000       0.25000000       0.25000000 </v>
    <v>       0.00000000       0.00000000       0.00000000 </v>
   </varray>
  </structure>
  <varray name="primitive_index" >
   <v type="int" >        1 </v>
   <v type="int" >        2 </v>
  </varray>
 </primitive_cell>
 <kpoints>
  <generation param="Gamma">
   <v type="int" name="divisions">       5        5        5 </v>
   <v name="usershift">      0.00000000       0.00000000       0.00000000 </v>
   <v name="genvec1">      0.20000000      -0.00000000       0.00000000 </v>
   <v name="genvec2">      0.00000000       0.20000000       0.00000000 </v>
   <v name="genvec3">     -0.00000000       0.00000000       0.20000000 </v>
   <v name="shift">      0.00000000       0.00000000       0.00000000 </v>
  </generation>
  <varray name="kpointlist" >
   <v>       0.00000000       0.00000000       0.00000000 </v>
   <v>       0.20000000       0.00000000       0.00000000 </v>
   <v>       0.40000000       0.00000000       0.00000000 </v>
   <v>       0.20000000       0.20000000       0.00000000 </v>
   <v>       0.40000000       0.20000000       0.00000000 </v>
   <v>      -0.40000000       0.20000000       0.00000000 </v>
   <v>      -0.20000000       0.20000000       0.00000000 </v>
   <v>       0.40000000       0.40000000       0.00000000 </v>
   <v>      -0.40000000       0.40000000       0.00000000 </v>
   <v>      -0.40000000       0.40000000       0.20000000 </v>
  </varray>
  <varray name="weights" >
   <v>       0.00800000 </v>
   <v>       0.06400000 </v>
   <v>       0.06400000 </v>
   <v>       0.04800000 </v>
   <v>       0.19200000 </v>
   <v>       0.19200000 </v>
   <v>       0.09600000 </v>
   <v>       0.04800000 </v>
   <v>       0.09600000 </v>
   <v>       0.19200000 </v>
  </varray>
 </kpoints>
 <parameters>
  <separator name="general" >
   <i type="string" name="SYSTEM">unknown system</i>
   <i type="logical" name="LCOMPAT"> F  </i>
  </separator>
  <separator name="electronic" >
   <i type="string" name="PREC">accura</i>
   <i name="ENMAX">    680.00000000</i>
   <i name="ENAUG">   1360.00000000</i>
   <i name="EDIFF">      0.00001000</i>
   <i type="int" name="IALGO">    58</i>
   <i type="int" name="IWAVPR">    11</i>
   <i type="int" name="NBANDS">    40</i>
   <i type="int" name="NBANDSLOW">    -1</i>
   <i type="int" name="NBANDSHIGH">    -1</i>
   <i name="NELECT">      8.00000000</i>
   <i type="int" name="TURBO">     0</i>
   <i type="int" name="IRESTART">     0</i>
   <i type="int" name="NREBOOT">     0</i>
   <i type="int" name="NMIN">     0</i>
   <i name="EREF">      0.00000000</i>
   <separator name="electronic smearing" >
    <i type="int" name="ISMEAR">     0</i>
    <i name="SIGMA">      0.05000000</i>
    <i name="KSPACING">      0.40000000</i>
    <i type="logical" name="KGAMMA"> T  </i>
    <i type="logical" name="KBLOWUP"> T  </i>
   </separator>
   <separator name="electronic projectors" >
    <i type="logical" name="LREAL"> T  </i>
    <v name="ROPT">     -0.00025000</v>
    <i type="int" name="LMAXPAW">  -100</i>
    <i type="int" name="LMAXMIX">     2</i>
    <i type="logical" name="NLSPLINE"> F  </i>
   </separator>
   <separator name="electronic startup" >
    <i type="int" name="ISTART">     0</i>
    <i type="int" name="ICHARG">     2</i>
    <i type="int" name="INIWAV">     1</i>
   </separator>
   <separator name="electronic spin" >
    <i type="int" name="ISPIN">     2</i>
    <i type="logical" name="LNONCOLLINEAR"> F  </i>
    <v name="MAGMOM">      0.60000000      0.60000000</v>
    <i name="NUPDOWN">     -1.00000000</i>
    <i type="logical" name="LSORBIT"> F  </i>
    <v name="SAXIS">      0.00000000      0.00000000      1.00000000</v>
    <i type="logical" name="LSPIRAL"> F  </i>
    <v name="QSPIRAL">      0.00000000      0.00000000      0.00000000</v>
    <i type="logical" name="LZEROZ"> F  </i>
   </separator>
   <separator name="electronic exchange-correlation" >
    <i type="logical" name="LASPH"> T  </i>
    <i type="logical" name="LMETAGGA"> F  </i>
   </separator>
   <separator name="electronic convergence" >
    <i type="int" name="NELM">   200</i>
    <i type="int" name="NELMDL">    -5</i>
    <i type="int" name="NELMIN">     2</i>
    <i name="ENINI">    680.00000000</i>
    <separator name="electronic convergence detail" >
     <i type="logical" name="LDIAG"> T  </i>
     <i type="logical" name="LSUBROT"> F  </i>
     <i name="WEIMIN">      0.00100000</i>
     <i name="EBREAK">      0.00000006</i>
     <i name="DEPER">      0.30000000</i>
     <i type="int" name="NRMM">     4</i>
     <i name="TIME">      0.40000000</i>
    </separator>
   </separator>
   <separator name="electronic mixer" >
    <i name="AMIX">      0.40000000</i>
    <i name="BMIX">      1.00000000</i>
    <i name="AMIN">      0.10000000</i>
    <i name="AMIX_MAG">      1.60000000</i>
    <i name="BMIX_MAG">      1.00000000</i>
    <separator name="electronic mixer details" >
     <i type="int" name="IMIX">     4</i>
     <i type="logical" name="MIXFIRST"> F  </i>
     <i type="int" name="MAXMIX">   -45</i>
     <i name="WC">    100.00000000</i>
     <i type="int" name="INIMIX">     1</i>
     <i type="int" name="MIXPRE">     1</i>
     <i type="int" name="MREMOVE">     5</i>
    </separator>
   </separator>
   <separator name="electronic dipolcorrection" >
    <i type="logical" name="LDIPOL"> F  </i>
    <i type="logical" name="LMONO"> F  </i>
    <i type="int" name="IDIPOL">     0</i>
    <i name="EPSILON">      1.00000000</i>
    <v name="DIPOL">   -100.00000000   -100.00000000   -100.00000000</v>
    <i name="EFIELD">      0.00000000</i>
   </separator>
  </separator>
  <separator name="grids" >
   <i type="int" name="NGX">    36</i>
   <i type="int" name="NGY">    36</i>
   <i type="int" name="NGZ">    36</i>
   <i type="int" name="NGXF">    72</i>
   <i type="int" name="NGYF">    72</i>
   <i type="int" name="NGZF">    72</i>
   <i type="logical" name="ADDGRID"> F  </i>
  </separator>
  <separator name="ionic" >
   <i type="int" name="NSW">    99</i>
   <i type="int" name="IBRION">     2</i>
   <i type="int" name="MDALGO">     0</i>
   <i type="int" name="ISIF">     3</i>
   <i name="PSTRESS">      0.00000000</i>
   <i name="EDIFFG">     -0.02000000</i>
   <i type="int" name="NFREE">     1</i>
   <i name="POTIM">      0.50000000</i>
   <i name="SMASS">     -3.00000000</i>
   <i name="SCALEE">      1.00000000</i>
  </separator>
  <separator name="ionic md" >
   <i name="TEBEG">      0.00010000</i>
   <i name="TEEND">      0.00010000</i>
   <i type="int" name="NBLOCK">     1</i>
   <i type="int" name="KBLOCK">    99</i>
   <i type="int" name="NPACO">   256</i>
   <i name="APACO">     16.00000000</i>
  </separator>
  <separator name="symmetry" >
   <i type="int" name="ISYM">     3</i>
   <i name="SYMPREC">      0.00001000</i>
  </separator>
  <separator name="dos" >
   <i type="int" name="LORBIT">    11</i>
   <v name="RWIGS">     -1.00000000</v>
   <i type="int" name="NEDOS">   301</i>
   <i name="EMIN">     10.00000000</i>
   <i name="EMAX">    -10.00000000</i>
   <i name="EFERMI">      0.00000000</i>
  </separator>
  <separator name="writing" >
   <i type="int" name="NWRITE">     2</i>
   <i type="logical" name="LWAVE"> F  </i>
   <i type="logical" name="LDOWNSAMPLE"> F  </i>
   <i type="logical" name="LCHARG"> T  </i>
   <i type="logical" name="LPARD"> F  </i>
   <i type="logical" name="LVTOT"> T  </i>
   <i type="logical" name="LVHAR"> F  </i>
   <i type="logical" name="LELF"> T  </i>
   <i type="logical" name="LOPTICS"> F  </i>
   <v name="STM">      0.00000000      0.00000000      0.00000000      0.00000000      0.00000000      0.00000000      0.00000000</v>
  </separator>
  <separator name="performance" >
   <i type="int" name="NPAR">    40</i>
   <i type="int" name="NSIM">     4</i>
   <i type="int" name="NBLK">    -1</i>
   <i type="logical" name="LPLANE"> T  </i>
   <i type="logical" name="LSCALAPACK"> T  </i>
   <i type="logical" name="LSCAAWARE"> F  </i>
   <i type="logical" name="LSCALU"> F  </i>
   <i type="logical" name="LASYNC"> F  </i>
   <i type="logical" name="LORBITALREAL"> F  </i>
  </separator>
  <separator name="miscellaneous" >
   <i type="int" name="IDIOT">     3</i>
   <i type="int" name="PHON_NSTRUCT">    -1</i>
   <i type="logical" name="LMUSIC"> F  </i>
   <v name="POMASS">     28.08500000</v>
   <v name="DARWINR">      0.00000000</v>
   <v name="DARWINV">      1.00000000</v>
   <i type="logical" name="LCORR"> T  </i>
  </separator>
  <i type="logical" name="GGA_COMPAT"> T  </i>
  <i type="logical" name="LBERRY"> F  </i>
  <i type="int" name="ICORELEVEL">     0</i>
  <i type="logical" name="LDAU"> F  </i>
  <i type="int" name="I_CONSTRAINED_M">     0</i>
  <separator name="electronic exchange-correlation" >
   <i type="string" name="GGA">PE</i>
   <i type="int" name="VOSKOWN">     0</i>
   <i type="logical" name="LHFCALC"> T  </i>
   <i type="string" name="PRECFOCK">fast</i>
   <i type="logical" name="LSYMGRAD"> F  </i>
   <i type="logical" name="LHFONE"> F  </i>
   <i type="logical" name="LRHFCALC"> F  </i>
   <i type="logical" name="LTHOMAS"> F  </i>
   <i type="logical" name="LMODELHF"> F  </i>
   <i type="logical" name="LFOCKACE"> T  </i>
   <i name="ENCUT4O">     -1.00000000</i>
   <i type="int" name="EXXOEP">     0</i>
   <i type="int" name="FOURORBIT">     0</i>
   <i name="AEXX">      0.25000000</i>
   <i name="HFALPHA">     -1.00000000</i>
   <i name="MCALPHA">      0.00000000</i>
   <i name="ALDAX">      0.75000000</i>
   <i name="AGGAX">      0.75000000</i>
   <i name="ALDAC">      1.00000000</i>
   <i name="AGGAC">      1.00000000</i>
   <i type="int" name="NKREDX">     1</i>
   <i type="int" name="NKREDY">     1</i>
   <i type="int" name="NKREDZ">     1</i>
   <i type="logical" name="SHIFTRED"> F  </i>
   <i type="logical" name="ODDONLY"> F  </i>
   <i type="logical" name="EVENONLY"> F  </i>
   <i type="int" name="LMAXFOCK">     4</i>
   <i type="int" name="NMAXFOCKAE">     1</i>
   <i type="logical" name="LFOCKAEDFT"> F  </i>
   <i name="HFSCREEN">      0.20000000</i>
   <i name="HFSCREENC">      0.20000000</i>
   <i type="int" name="NBANDSGWLOW">     1</i>
  </separator>
  <separator name="vdW DFT" >
   <i type="logical" name="LUSE_VDW"> F  </i>
   <i name="Zab_VDW">     -0.84910000</i>
   <i name="PARAM1">      0.12340000</i>
   <i name="PARAM2">      1.00000000</i>
   <i name="PARAM3">      0.00000000</i>
  </separator>
  <separator name="model GW" >
   <i type="int" name="MODEL_GW">     0</i>
   <i name="MODEL_EPS0">     12.26648953</i>
   <i name="MODEL_ALPHA">      1.00000000</i>
  </separator>
  <separator name="linear response parameters" >
   <i type="logical" name="LEPSILON"> F  </i>
   <i type="logical" name="LRPA"> F  </i>
   <i type="logical" name="LNABLA"> F  </i>
   <i type="logical" name="LVEL"> F  </i>
   <i type="int" name="KINTER">     0</i>
   <i name="CSHIFT">      0.10000000</i>
   <i name="OMEGAMAX">     -1.00000000</i>
   <i name="DEG_THRESHOLD">      0.00200000</i>
   <i name="RTIME">     -0.10000000</i>
   <i name="WPLASMAI">      0.00000000</i>
   <v name="DFIELD">      0.00000000      0.00000000      0.00000000</v>
   <v name="WPLASMA">      0.00000000      0.00000000      0.00000000      0.00000000      0.00000000      0.00000000      0.00000000      0.00000000      0.00000000</v>
  </separator>
  <separator name="orbital magnetization" >
   <i type="logical" name="NUCIND"> F  </i>
   <v name="MAGPOS">      0.00000000      0.00000000      0.00000000</v>
   <i type="logical" name="LNICSALL"> T  </i>
   <i type="logical" name="ORBITALMAG"> F  </i>
   <i type="logical" name="LMAGBLOCH"> F  </i>
   <i type="logical" name="LCHIMAG"> F  </i>
   <i type="logical" name="LGAUGE"> T  </i>
   <i type="int" name="MAGATOM">     0</i>
   <v name="MAGDIPOL">      0.00000000      0.00000000      0.00000000</v>
   <v name="AVECCONST">      0.00000000      0.00000000      0.00000000</v>
  </separator>
  <separator name="response functions" >
   <i type="logical" name="LFINITE_TEMPERATURE"> F  </i>
   <i type="logical" name="LADDER"> F  </i>
   <i type="logical" name="LRPAFORCE"> F  </i>
   <i type="logical" name="LFXC"> F  </i>
   <i type="logical" name="LHARTREE"> T  </i>
   <i type="int" name="IBSE">     0</i>
   <v type="int" name="KPOINT">    -1     0     0     0</v>
   <i type="logical" name="LTCTC"> F  </i>
   <i type="logical" name="LTCTE"> F  </i>
   <i type="logical" name="LTETE"> F  </i>
   <i type="logical" name="LTRIPLET"> F  </i>
   <i type="logical" name="LFXCEPS"> F  </i>
   <i type="logical" name="LFXHEG"> F  </i>
   <i type="int" name="NATURALO">     2</i>
   <i type="logical" name="LHOLEGF"> F  </i>
   <i type="logical" name="L2ORDER"> F  </i>
   <i type="logical" name="LDMP1"> F  </i>
   <i type="logical" name="LMP2LT"> F  </i>
   <i type="logical" name="LSMP2LT"> F  </i>
   <i type="logical" name="LGWLF"> F  </i>
   <i name="ENCUTGW">     -2.00000000</i>
   <i name="ENCUTGWSOFT">     -2.00000000</i>
   <i name="ENCUTLF">     -1.00000000</i>
   <i type="logical" name="LESF_SPLINES"> F  </i>
   <i type="int" name="LMAXMP2">    -1</i>
   <i name="SCISSOR">      0.00000000</i>
   <i type="int" name="NOMEGA">     0</i>
   <i type="int" name="NOMEGAR">     0</i>
   <i type="int" name="NBANDSGW">    -1</i>
   <i type="int" name="NBANDSO">    -1</i>
   <i type="int" name="NBANDSV">    -1</i>
   <i type="int" name="NELM">   200</i>
   <i type="int" name="NELMHF">     1</i>
   <i type="int" name="DIM">     3</i>
   <i type="int" name="IESPILON">     4</i>
   <i type="int" name="ANTIRES">     0</i>
   <i name="OMEGAMAX">    -30.00000000</i>
   <i name="OMEGAMIN">    -30.00000000</i>
   <i name="OMEGATL">   -200.00000000</i>
   <i type="int" name="OMEGAGRID">     0</i>
   <i name="CSHIFT">     -0.10000000</i>
   <i type="logical" name="LSELFENERGY"> F  </i>
   <i type="logical" name="LSPECTRAL"> F  </i>
   <i type="logical" name="LSPECTRALGW"> F  </i>
   <i type="logical" name="LSINGLES"> F  </i>
   <i type="logical" name="LFERMIGW"> F  </i>
   <i type="logical" name="ODDONLYGW"> F  </i>
   <i type="logical" name="EVENONLYGW"> F  </i>
   <i type="int" name="NKREDLFX">     1</i>
   <i type="int" name="NKREDLFY">     1</i>
   <i type="int" name="NKREDLFZ">     1</i>
   <i type="int" name="MAXMEM">  2800</i>
   <i type="int" name="TELESCOPE">     0</i>
   <i type="int" name="NTAUPAR">    -1</i>
   <i type="int" name="NOMEGAPAR">    -1</i>
   <i name="DAMP_NEWTON">      0.80000001</i>
   <i name="LAMBDA">      1.00000000</i>
  </separator>
  <separator name="External order field" >
   <i name="OFIELD_KAPPA">      0.00000000</i>
   <v name="OFIELD_K">      0.00000000      0.00000000      0.00000000</v>
   <i name="OFIELD_Q6_NEAR">      0.00000000</i>
   <i name="OFIELD_Q6_FAR">      0.00000000</i>
   <i name="OFIELD_A">      0.00000000</i>
  </separator>
 </parameters>
 <atominfo>
  <atoms>       2 </atoms>
  <types>       1 </types>
  <array name="atoms" >
   <dimension dim="1">ion</dimension>
   <field type="string">element</field>
   <field type="int">atomtype</field>
   <set>
    <rc><c>Si</c><c>   1</c></rc>
    <rc><c>Si</c><c>   1</c></rc>
   </set>
  </array>
  <array name="atomtypes" >
   <dimension dim="1">type</dimension>
   <field type="int">atomspertype</field>
   <field type="string">element</field>
   <field>mass</field>
   <field>valence</field>
   <field type="string">pseudopotential</field>
   <set>
    <rc><c>   2</c><c>Si</c><c>     28.08500000</c><c>      4.00000000</c><c>  PAW_PBE Si 05Jan2001                  </c></rc>
   </set>
  </array>
 </atominfo>
 <structure name="initialpos" >
  <crystal>
   <varray name="basis" >
    <v>       3.34889800       0.00000000       1.93348700 </v>
    <v>       1.11629900       3.15737200       1.93348700 </v>
    <v>       0.00000000       0.00000000       3.86697500 </v>
   </varray>
   <i name="volume">     40.88829843 </i>
   <varray name="rec_basis" >
    <v>       0.29860569      -0.10557300       0.00000000 </v>
    <v>       0.00000000       0.31671909       0.00000000 </v>
    <v>      -0.14930281      -0.10557302       0.25860007 </v>
   </varray>
  </crystal>
  <varray name="positions" >
   <v>       0.25000000       0.25000000       0.25000000 </v>
   <v>       0.00000000       0.00000000       0.00000000 </v>
  </varray>
 </structure>
 <calculation>
  <scstep>
   <time name="total">    0.55    0.57</time>
   <energy>
    <i name="alphaZ">      3.29317992 </i>
    <i name="ewald">   -226.94489173 </i>
    <i name="hartreedc">    -11.32339116 </i>
    <i name="XCdc">    -18.60636939 </i>
    <i name="pawpsdc">    176.18363791 </i>
    <i name="pawaedc">   -391.56082811 </i>
    <i name="eentropy">     -0.00061705 </i>
    <i name="bandstr">      3.84397296 </i>
    <i name="atom">    203.99906502 </i>
    <i name="e_fr_energy">   -261.11624163 </i>
    <i name="e_wo_entrp">   -261.11562459 </i>
    <i name="e_0_energy">   -261.11593311 </i>
   </energy>
  </scstep>
  <scstep>
   <time name="total">    0.50    0.50</time>
   <energy>
    <i name="e_fr_energy">   -267.24464473 </i>
    <i name="e_wo_entrp">   -267.24464473 </i>
    <i name="e_0_energy">   -267.24464473 </i>
   </energy>
  </scstep>
  <scstep>
   <time name="total">    0.33    0.34</time>
   <energy>
    <i name="e_fr_energy">   -267.25189754 </i>
    <i name="e_wo_entrp">   -267.25189754 </i>
    <i name="e_0_energy">   -267.25189754 </i>
   </energy>
  </scstep>
  <scstep>
   <time name="total">    0.78    0.78</time>
   <energy>
    <i name="e_fr_energy">   -267.25190228 </i>
    <i name="e_wo_entrp">   -267.25190228 </i>
    <i name="e_0_energy">   -267.25190228 </i>
   </energy>
  </scstep>
  <scstep>
   <time name="total">   31.69   31.79</time>
   <energy>
    <i name="e_fr_energy">    -12.77205587 </i>
    <i name="e_wo_entrp">    -12.77205587 </i>
    <i name="e_0_energy">    -12.77205587 </i>
   </energy>
  </scstep>
  <scstep>
   <time name="total">   65.34   65.64</time>
   <energy>
    <i name="e_fr_energy">    -12.40742449 </i>
    <i name="e_wo_entrp">    -12.40742449 </i>
    <i name="e_0_energy">    -12.40742449 </i>
   </energy>
  </scstep>
  <scstep>
   <time name="total">   67.46   67.79</time>
   <energy>
    <i name="e_fr_energy">    -12.51553245 </i>
    <i name="e_wo_entrp">    -12.51553245 </i>
    <i name="e_0_energy">    -12.51553245 </i>
   </energy>
  </scstep>
  <scstep>
   <time name="total">   67.71   67.92</time>
   <energy>
    <i name="e_fr_energy">    -12.52850626 </i>
    <i name="e_wo_entrp">    -12.52850626 </i>
    <i name="e_0_energy">    -12.52850626 </i>
   </energy>
  </scstep>
  <scstep>
   <time name="total">   67.72   67.95</time>
   <energy>
    <i name="e_fr_energy">    -12.52881794 </i>
    <i name="e_wo_entrp">    -12.52881794 </i>
    <i name="e_0_energy">    -12.52881794 </i>
   </energy>
  </scstep>
  <scstep>
   <time name="total">   67.96   68.17</time>
   <energy>
    <i name="e_fr_energy">    -12.52887200 </i>
    <i name="e_wo_entrp">    -12.52887200 </i>
    <i name="e_0_energy">    -12.52887200 </i>
   </energy>
  </scstep>
  <scstep>
   <time name="total">  101.45  101.99</time>
   <energy>
    <i name="alphaZ">      3.29317992 </i>
    <i name="ewald">   -226.94489173 </i>
    <i name="hartreedc">    -15.34101420 </i>
    <i name="XCdc">    -14.43394779 </i>
    <i name="pawpsdc">   1632.94545032 </i>
    <i name="pawaedc">  -1605.29841471 </i>
    <i name="eentropy">     -0.00000000 </i>
    <i name="bandstr">     -1.99426150 </i>
    <i name="atom">    203.99906502 </i>
    <i name="e_fr_energy">    -12.52887898 </i>
    <i name="e_wo_entrp">    -12.52887898 </i>
    <i name="e_0_energy">    -12.52887898 </i>
   </energy>
  </scstep>
  <structure>
   <crystal>
    <varray name="basis" >
     <v>       3.34889800       0.00000000       1.93348700 </v>
     <v>       1.11629900       3.15737200       1.93348700 </v>
     <v>       0.00000000       0.00000000       3.86697500 </v>
    </varray>
    <i name="volume">     40.88829843 </i>
    <varray name="rec_basis" >
     <v>       0.29860569      -0.10557300       0.00000000 </v>
     <v>       0.00000000       0.31671909       0.00000000 </v>
     <v>      -0.14930281      -0.10557302       0.25860007 </v>
    </varray>
   </crystal>
   <varray name="positions" >
    <v>       0.25000000       0.25000000       0.25000000 </v>
    <v>       0.00000000       0.00000000       0.00000000 </v>
   </varray>
  </structure>
  <varray name="forces" >
   <v>       0.00000000       0.00000000       0.00000000 </v>
   <v>      -0.00000000      -0.00000000      -0.00000000 </v>
  </varray>
  <varray name="stress" >
   <v>     -16.83280626       0.00000178       0.00000251 </v>
   <v>       0.00000178     -16.83281357       0.00000178 </v>
   <v>       0.00000251       0.00000178     -16.83281215 </v>
  </varray>
  <energy>
   <i name="e_fr_energy">    -12.52887898 </i>
   <i name="e_wo_entrp">    -12.52887898 </i>
   <i name="e_0_energy">    -12.52887898 </i>
  </energy>
  <time name="totalsc">  518.96  521.54</time>
 </calculation>
 <calculation>
  <scstep>
   <time name="total">   67.69   67.97</time>
   <energy>
    <i name="alphaZ">      3.39771114 </i>
    <i name="ewald">   -229.32113209 </i>
    <i name="hartreedc">    -14.84959785 </i>
    <i name="XCdc">    -14.34486767 </i>
    <i name="pawpsdc">   1614.31663607 </i>
    <i name="pawaedc">  -1586.69925707 </i>
    <i name="eentropy">     -0.00000000 </i>
    <i name="bandstr">     -0.36004501 </i>
    <i name="atom">    203.99906502 </i>
    <i name="e_fr_energy">    -12.52678911 </i>
    <i name="e_wo_entrp">    -12.52678911 </i>
    <i name="e_0_energy">    -12.52678911 </i>
   </energy>
  </scstep>
  <scstep>
   <time name="total">   68.00   68.26</time>
   <energy>
    <i name="e_fr_energy">    -12.53004648 </i>
    <i name="e_wo_entrp">    -12.53004648 </i>
    <i name="e_0_energy">    -12.53004648 </i>
   </energy>
  </scstep>
  <scstep>
   <time name="total">   67.89   68.21</time>
   <energy>
    <i name="e_fr_energy">    -12.53028864 </i>
    <i name="e_wo_entrp">    -12.53028864 </i>
    <i name="e_0_energy">    -12.53028864 </i>
   </energy>
  </scstep>
  <scstep>
   <time name="total">   67.90   68.16</time>
   <energy>
    <i name="e_fr_energy">    -12.53031151 </i>
    <i name="e_wo_entrp">    -12.53031151 </i>
    <i name="e_0_energy">    -12.53031151 </i>
   </energy>
  </scstep>
  <scstep>
   <time name="total">  102.83  103.33</time>
   <energy>
    <i name="alphaZ">      3.39771114 </i>
    <i name="ewald">   -229.32113209 </i>
    <i name="hartreedc">    -14.98146236 </i>
    <i name="XCdc">    -14.32827676 </i>
    <i name="pawpsdc">   1739.29316457 </i>
    <i name="pawaedc">  -1711.67131753 </i>
    <i name="eentropy">     -0.00000000 </i>
    <i name="bandstr">     -0.27215010 </i>
    <i name="atom">    203.99906502 </i>
    <i name="e_fr_energy">    -12.53031267 </i>
    <i name="e_wo_entrp">    -12.53031267 </i>
    <i name="e_0_energy">    -12.53031267 </i>
   </energy>
  </scstep>
  <structure>
   <crystal>
    <varray name="basis" >
     <v>       3.31419652       0.00000001       1.91345209 </v>
     <v>       1.10473185       3.12465511       1.91345209 </v>
     <v>       0.00000001       0.00000000       3.82690515 </v>
    </varray>
    <i name="volume">     39.63036220 </i>
    <varray name="rec_basis" >
     <v>       0.30173226      -0.10667841      -0.00000000 </v>
     <v>      -0.00000000       0.32003532      -0.00000000 </v>
     <v>      -0.15086609      -0.10667843       0.26130776 </v>
    </varray>
   </crystal>
   <varray name="positions" >
    <v>       0.25000000       0.25000000       0.25000000 </v>
    <v>      -0.00000000      -0.00000000      -0.00000000 </v>
   </varray>
  </structure>
  <varray name="forces" >
   <v>      -0.00000000      -0.00000000      -0.00000000 </v>
   <v>       0.00000000       0.00000000       0.00000000 </v>
  </varray>
  <varray name="stress" >
   <v>      13.90002203      -0.00000144      -0.00000203 </v>
   <v>      -0.00000144      13.90002795      -0.00000144 </v>
   <v>      -0.00000203      -0.00000144      13.90002679 </v>
  </varray>
  <energy>
   <i name="e_fr_energy">    -12.53031267 </i>
   <i name="e_wo_entrp">    -12.53031267 </i>
   <i name="e_0_energy">    -12.53031267 </i>
  </energy>
  <time name="totalsc">  421.20  423.22</time>
 </calculation>
 <calculation>
  <scstep>
   <time name="total">   67.65   67.96</time>
   <energy>
    <i name="alphaZ">      3.35135127 </i>
    <i name="ewald">   -228.27336596 </i>
    <i name="hartreedc">    -15.19498181 </i>
    <i name="XCdc">    -14.36776064 </i>
    <i name="pawpsdc">   1747.18855526 </i>
    <i name="pawaedc">  -1719.55331997 </i>
    <i name="eentropy">     -0.00000000 </i>
    <i name="bandstr">     -0.99637831 </i>
    <i name="atom">    203.99906502 </i>
    <i name="e_fr_energy">    -12.53197982 </i>
    <i name="e_wo_entrp">    -12.53197982 </i>
    <i name="e_0_energy">    -12.53197982 </i>
   </energy>
  </scstep>
  <scstep>
   <time name="total">   68.04   68.29</time>
   <energy>
    <i name="e_fr_energy">    -12.53259800 </i>
    <i name="e_wo_entrp">    -12.53259800 </i>
    <i name="e_0_energy">    -12.53259800 </i>
   </energy>
  </scstep>
  <scstep>
   <time name="total">   67.77   68.27</time>
   <energy>
    <i name="e_fr_energy">    -12.53265122 </i>
    <i name="e_wo_entrp">    -12.53265122 </i>
    <i name="e_0_energy">    -12.53265122 </i>
   </energy>
  </scstep>
  <scstep>
   <time name="total">  101.06  101.41</time>
   <energy>
    <i name="alphaZ">      3.35135127 </i>
    <i name="ewald">   -228.27336596 </i>
    <i name="hartreedc">    -15.14135394 </i>
    <i name="XCdc">    -14.37475574 </i>
    <i name="pawpsdc">   1690.41099069 </i>
    <i name="pawaedc">  -1662.77794146 </i>
    <i name="eentropy">     -0.00000000 </i>
    <i name="bandstr">     -1.03347598 </i>
    <i name="atom">    203.99906502 </i>
    <i name="e_fr_energy">    -12.53265760 </i>
    <i name="e_wo_entrp">    -12.53265760 </i>
    <i name="e_0_energy">    -12.53265760 </i>
   </energy>
  </scstep>
  <structure>
   <crystal>
    <varray name="basis" >
     <v>       3.32940855       0.00000000       1.92223476 </v>
     <v>       1.10980252       3.13899716       1.92223476 </v>
     <v>       0.00000000       0.00000000       3.84447050 </v>
    </varray>
    <i name="volume">     40.17857640 </i>
    <varray name="rec_basis" >
     <v>       0.30035365      -0.10619100      -0.00000000 </v>
     <v>      -0.00000000       0.31857308      -0.00000000 </v>
     <v>      -0.15017679      -0.10619102       0.26011384 </v>
    </varray>
   </crystal>
   <varray name="positions" >
    <v>       0.25000000       0.25000000       0.25000000 </v>
    <v>      -0.00000000      -0.00000000      -0.00000000 </v>
   </varray>
  </structure>
  <varray name="forces" >
   <v>       0.00000000       0.00000000      -0.00000000 </v>
   <v>      -0.00000000      -0.00000000       0.00000000 </v>
  </varray>
  <varray name="stress" >
   <v>      -0.00310732       0.00000000       0.00000000 </v>
   <v>       0.00000000      -0.00310732       0.00000000 </v>
   <v>       0.00000000       0.00000000      -0.00310732 </v>
  </varray>
  <energy>
   <i name="e_fr_energy">    -12.53265760 </i>
   <i name="e_wo_entrp">    -12.53265760 </i>
   <i name="e_0_energy">    -12.53265760 </i>
  </energy>
  <time name="totalsc">  313.69  315.42</time>
  <eigenvalues>
   <array>
    <dimension dim="1">band</dimension>
    <dimension dim="2">kpoint</dimension>
    <dimension dim="3">spin</dimension>
    <field>eigene</field>
    <field>occ</field>
    <set>
     <set comment="spin 1">
      <set comment="kpoint 1">
       <r>   -7.8299    1.0000 </r>
       <r>    5.4335    1.0000 </r>
       <r>    5.4335    1.0000 </r>
       <r>    5.4335    1.0000 </r>
       <r>    8.7823    0.0000 </r>
       <r>    8.7823    0.0000 </r>
       <r>    8.7823    0.0000 </r>
       <r>    9.7500    0.0000 </r>
       <r>   14.2409    0.0000 </r>
       <r>   14.2409    0.0000 </r>
       <r>   14.2455    0.0000 </r>
       <r>   17.7745    0.0000 </r>
       <r>   17.7745    0.0000 </r>
       <r>   17.7745    0.0000 </r>
       <r>   21.7184    0.0000 </r>
       <r>   30.1752    0.0000 </r>
       <r>   30.1752    0.0000 </r>
       <r>   30.1752    0.0000 </r>
       <r>   31.4661    0.0000 </r>
       <r>   31.4661    0.0000 </r>
       <r>   33.0102    0.0000 </r>
       <r>   33.0102    0.0000 </r>
       <r>   33.0102    0.0000 </r>
       <r>   36.2033    0.0000 </r>
       <r>   36.2033    0.0000 </r>
       <r>   36.2033    0.0000 </r>
       <r>   42.1258    0.0000 </r>
       <r>   42.1258    0.0000 </r>
       <r>   42.1258    0.0000 </r>
       <r>   44.9909    0.0000 </r>
       <r>   45.8365    0.0000 </r>
       <r>   45.8365    0.0000 </r>
       <r>   47.6000    0.0000 </r>
       <r>   47.6000    0.0000 </r>
       <r>   49.3331    0.0000 </r>
       <r>   49.3331    0.0000 </r>
       <r>   49.3331    0.0000 </r>
       <r>   50.9910    0.0000 </r>
       <r>   50.9911    0.0000 </r>
       <r>   51.0368    0.0000 </r>
      </set>
      <set comment="kpoint 2">
       <r>   -7.2577    1.0000 </r>
       <r>    2.1836    1.0000 </r>
       <r>    4.8218    1.0000 </r>
       <r>    4.8218    1.0000 </r>
       <r>    8.4233    0.0000 </r>
       <r>    9.6323    0.0000 </r>
       <r>    9.6323    0.0000 </r>
       <r>   12.5183    0.0000 </r>
       <r>   13.4989    0.0000 </r>
       <r>   13.4989    0.0000 </r>
       <r>   15.5296    0.0000 </r>
       <r>   17.4359    0.0000 </r>
       <r>   20.4387    0.0000 </r>
       <r>   20.4387    0.0000 </r>
       <r>   24.4544    0.0000 </r>
       <r>   25.9932    0.0000 </r>
       <r>   25.9932    0.0000 </r>
       <r>   26.9483    0.0000 </r>
       <r>   31.1545    0.0000 </r>
       <r>   31.1545    0.0000 </r>
       <r>   33.7669    0.0000 </r>
       <r>   33.7669    0.0000 </r>
       <r>   35.4626    0.0000 </r>
       <r>   36.6837    0.0000 </r>
       <r>   37.2196    0.0000 </r>
       <r>   39.8927    0.0000 </r>
       <r>   39.8927    0.0000 </r>
       <r>   40.9565    0.0000 </r>
       <r>   40.9565    0.0000 </r>
       <r>   41.7974    0.0000 </r>
       <r>   41.7975    0.0000 </r>
       <r>   44.8400    0.0000 </r>
       <r>   44.8400    0.0000 </r>
       <r>   45.8255    0.0000 </r>
       <r>   46.8963    0.0000 </r>
       <r>   47.3531    0.0000 </r>
       <r>   48.4284    0.0000 </r>
       <r>   48.4285    0.0000 </r>
       <r>   50.8764    0.0000 </r>
       <r>   50.9832    0.0000 </r>
      </set>
      <set comment="kpoint 3">
       <r>   -5.7471    1.0000 </r>
       <r>   -1.4782    1.0000 </r>
       <r>    4.2074    1.0000 </r>
       <r>    4.2074    1.0000 </r>
       <r>    7.7830    0.0000 </r>
       <r>    9.6804    0.0000 </r>
       <r>    9.6804    0.0000 </r>
       <r>   14.2074    0.0000 </r>
       <r>   15.5830    0.0000 </r>
       <r>   15.5830    0.0000 </r>
       <r>   16.6956    0.0000 </r>
       <r>   20.0258    0.0000 </r>
       <r>   20.0258    0.0000 </r>
       <r>   20.8309    0.0000 </r>
       <r>   23.8056    0.0000 </r>
       <r>   25.9436    0.0000 </r>
       <r>   25.9436    0.0000 </r>
       <r>   29.7582    0.0000 </r>
       <r>   30.4987    0.0000 </r>
       <r>   30.8081    0.0000 </r>
       <r>   30.8081    0.0000 </r>
       <r>   33.8675    0.0000 </r>
       <r>   33.8675    0.0000 </r>
       <r>   35.0140    0.0000 </r>
       <r>   35.0140    0.0000 </r>
       <r>   36.4998    0.0000 </r>
       <r>   37.7980    0.0000 </r>
       <r>   39.4905    0.0000 </r>
       <r>   39.4905    0.0000 </r>
       <r>   40.3532    0.0000 </r>
       <r>   40.3532    0.0000 </r>
       <r>   41.2162    0.0000 </r>
       <r>   43.8429    0.0000 </r>
       <r>   44.1706    0.0000 </r>
       <r>   47.7727    0.0000 </r>
       <r>   47.7727    0.0000 </r>
       <r>   49.4040    0.0000 </r>
       <r>   49.4040    0.0000 </r>
       <r>   49.8017    0.0000 </r>
       <r>   51.0736    0.0000 </r>
      </set>
      <set comment="kpoint 4">
       <r>   -7.0605    1.0000 </r>
       <r>    2.6088    1.0000 </r>
       <r>    3.8395    1.0000 </r>
       <r>    3.8395    1.0000 </r>
       <r>    7.5698    0.0000 </r>
       <r>   10.1707    0.0000 </r>
       <r>   11.2712    0.0000 </r>
       <r>   11.2712    0.0000 </r>
       <r>   13.6058    0.0000 </r>
       <r>   15.0625    0.0000 </r>
       <r>   16.8439    0.0000 </r>
       <r>   19.0272    0.0000 </r>
       <r>   19.0272    0.0000 </r>
       <r>   19.5950    0.0000 </r>
       <r>   25.5201    0.0000 </r>
       <r>   25.5201    0.0000 </r>
       <r>   26.0898    0.0000 </r>
       <r>   26.7398    0.0000 </r>
       <r>   28.3937    0.0000 </r>
       <r>   31.1272    0.0000 </r>
       <r>   33.9095    0.0000 </r>
       <r>   34.5409    0.0000 </r>
       <r>   34.5409    0.0000 </r>
       <r>   37.9320    0.0000 </r>
       <r>   37.9320    0.0000 </r>
       <r>   38.2037    0.0000 </r>
       <r>   39.3580    0.0000 </r>
       <r>   40.8259    0.0000 </r>
       <r>   40.8259    0.0000 </r>
       <r>   40.9475    0.0000 </r>
       <r>   42.6095    0.0000 </r>
       <r>   44.5775    0.0000 </r>
       <r>   45.4736    0.0000 </r>
       <r>   45.4736    0.0000 </r>
       <r>   47.5900    0.0000 </r>
       <r>   47.7604    0.0000 </r>
       <r>   48.2514    0.0000 </r>
       <r>   48.2514    0.0000 </r>
       <r>   48.3503    0.0000 </r>
       <r>   51.0568    0.0000 </r>
      </set>
      <set comment="kpoint 5">
       <r>   -5.7946    1.0000 </r>
       <r>   -0.4026    1.0000 </r>
       <r>    2.6236    1.0000 </r>
       <r>    3.2657    1.0000 </r>
       <r>    7.8943    0.0000 </r>
       <r>   10.3580    0.0000 </r>
       <r>   11.3134    0.0000 </r>
       <r>   11.8469    0.0000 </r>
       <r>   16.7845    0.0000 </r>
       <r>   17.0654    0.0000 </r>
       <r>   17.3922    0.0000 </r>
       <r>   19.6305    0.0000 </r>
       <r>   20.1600    0.0000 </r>
       <r>   21.9020    0.0000 </r>
       <r>   23.0823    0.0000 </r>
       <r>   24.6852    0.0000 </r>
       <r>   26.5051    0.0000 </r>
       <r>   26.9095    0.0000 </r>
       <r>   28.8947    0.0000 </r>
       <r>   30.5528    0.0000 </r>
       <r>   31.5359    0.0000 </r>
       <r>   32.8841    0.0000 </r>
       <r>   34.0489    0.0000 </r>
       <r>   34.7169    0.0000 </r>
       <r>   36.1458    0.0000 </r>
       <r>   37.5100    0.0000 </r>
       <r>   37.8646    0.0000 </r>
       <r>   38.2202    0.0000 </r>
       <r>   39.9151    0.0000 </r>
       <r>   41.6179    0.0000 </r>
       <r>   42.6859    0.0000 </r>
       <r>   43.3140    0.0000 </r>
       <r>   44.0996    0.0000 </r>
       <r>   44.1455    0.0000 </r>
       <r>   45.9959    0.0000 </r>
       <r>   46.9849    0.0000 </r>
       <r>   49.7361    0.0000 </r>
       <r>   50.4401    0.0000 </r>
       <r>   51.2006    0.0000 </r>
       <r>   51.5299    0.0000 </r>
      </set>
      <set comment="kpoint 6">
       <r>   -4.8116    1.0000 </r>
       <r>   -1.9636    1.0000 </r>
       <r>    1.7243    1.0000 </r>
       <r>    3.5716    1.0000 </r>
       <r>    8.2154    0.0000 </r>
       <r>   10.9120    0.0000 </r>
       <r>   11.1730    0.0000 </r>
       <r>   14.1037    0.0000 </r>
       <r>   14.9676    0.0000 </r>
       <r>   14.9999    0.0000 </r>
       <r>   18.1074    0.0000 </r>
       <r>   20.9299    0.0000 </r>
       <r>   21.4846    0.0000 </r>
       <r>   22.1016    0.0000 </r>
       <r>   23.9475    0.0000 </r>
       <r>   26.7065    0.0000 </r>
       <r>   26.7423    0.0000 </r>
       <r>   27.2538    0.0000 </r>
       <r>   28.7049    0.0000 </r>
       <r>   28.7313    0.0000 </r>
       <r>   31.7440    0.0000 </r>
       <r>   32.8245    0.0000 </r>
       <r>   33.3590    0.0000 </r>
       <r>   33.4374    0.0000 </r>
       <r>   34.1886    0.0000 </r>
       <r>   35.6027    0.0000 </r>
       <r>   36.5327    0.0000 </r>
       <r>   38.3025    0.0000 </r>
       <r>   39.0558    0.0000 </r>
       <r>   40.8321    0.0000 </r>
       <r>   42.7813    0.0000 </r>
       <r>   43.0014    0.0000 </r>
       <r>   43.6671    0.0000 </r>
       <r>   43.6679    0.0000 </r>
       <r>   45.6209    0.0000 </r>
       <r>   47.9339    0.0000 </r>
       <r>   49.4760    0.0000 </r>
       <r>   49.9002    0.0000 </r>
       <r>   50.8224    0.0000 </r>
       <r>   52.5351    0.0000 </r>
      </set>
      <set comment="kpoint 7">
       <r>   -6.3363    1.0000 </r>
       <r>    0.5293    1.0000 </r>
       <r>    2.2131    1.0000 </r>
       <r>    4.5236    1.0000 </r>
       <r>    9.1457    0.0000 </r>
       <r>   10.3453    0.0000 </r>
       <r>   10.5556    0.0000 </r>
       <r>   12.1618    0.0000 </r>
       <r>   12.4809    0.0000 </r>
       <r>   17.3091    0.0000 </r>
       <r>   17.5339    0.0000 </r>
       <r>   18.4586    0.0000 </r>
       <r>   20.5146    0.0000 </r>
       <r>   21.5297    0.0000 </r>
       <r>   23.9389    0.0000 </r>
       <r>   25.3550    0.0000 </r>
       <r>   26.9697    0.0000 </r>
       <r>   27.0994    0.0000 </r>
       <r>   28.9609    0.0000 </r>
       <r>   29.1797    0.0000 </r>
       <r>   33.1566    0.0000 </r>
       <r>   33.7380    0.0000 </r>
       <r>   34.6182    0.0000 </r>
       <r>   35.6978    0.0000 </r>
       <r>   36.5249    0.0000 </r>
       <r>   36.8626    0.0000 </r>
       <r>   38.6539    0.0000 </r>
       <r>   40.0329    0.0000 </r>
       <r>   40.5889    0.0000 </r>
       <r>   41.4107    0.0000 </r>
       <r>   42.4211    0.0000 </r>
       <r>   42.9371    0.0000 </r>
       <r>   44.9418    0.0000 </r>
       <r>   45.0369    0.0000 </r>
       <r>   46.2936    0.0000 </r>
       <r>   46.3620    0.0000 </r>
       <r>   46.3864    0.0000 </r>
       <r>   47.9146    0.0000 </r>
       <r>   49.9418    0.0000 </r>
       <r>   51.6753    0.0000 </r>
      </set>
      <set comment="kpoint 8">
       <r>   -4.8201    1.0000 </r>
       <r>   -1.3841    1.0000 </r>
       <r>    2.4856    1.0000 </r>
       <r>    2.4856    1.0000 </r>
       <r>    6.6182    0.0000 </r>
       <r>    7.4013    0.0000 </r>
       <r>   15.1687    0.0000 </r>
       <r>   15.1687    0.0000 </r>
       <r>   17.4954    0.0000 </r>
       <r>   18.0021    0.0000 </r>
       <r>   19.4406    0.0000 </r>
       <r>   19.4406    0.0000 </r>
       <r>   20.5233    0.0000 </r>
       <r>   21.4508    0.0000 </r>
       <r>   23.1446    0.0000 </r>
       <r>   23.9301    0.0000 </r>
       <r>   23.9301    0.0000 </r>
       <r>   25.7723    0.0000 </r>
       <r>   29.4800    0.0000 </r>
       <r>   30.0885    0.0000 </r>
       <r>   30.0885    0.0000 </r>
       <r>   30.9738    0.0000 </r>
       <r>   31.5934    0.0000 </r>
       <r>   34.1520    0.0000 </r>
       <r>   36.3703    0.0000 </r>
       <r>   36.3703    0.0000 </r>
       <r>   36.7772    0.0000 </r>
       <r>   41.7565    0.0000 </r>
       <r>   41.7565    0.0000 </r>
       <r>   42.2661    0.0000 </r>
       <r>   42.7859    0.0000 </r>
       <r>   43.2282    0.0000 </r>
       <r>   46.1939    0.0000 </r>
       <r>   46.6997    0.0000 </r>
       <r>   46.6997    0.0000 </r>
       <r>   47.2107    0.0000 </r>
       <r>   47.2107    0.0000 </r>
       <r>   47.4336    0.0000 </r>
       <r>   48.8025    0.0000 </r>
       <r>   49.6253    0.0000 </r>
      </set>
      <set comment="kpoint 9">
       <r>   -3.4768    1.0000 </r>
       <r>   -2.7976    1.0000 </r>
       <r>    1.0204    1.0000 </r>
       <r>    2.6165    1.0000 </r>
       <r>    7.1016    0.0000 </r>
       <r>    9.3528    0.0000 </r>
       <r>   14.7475    0.0000 </r>
       <r>   15.2538    0.0000 </r>
       <r>   15.4175    0.0000 </r>
       <r>   15.6289    0.0000 </r>
       <r>   21.2084    0.0000 </r>
       <r>   21.2587    0.0000 </r>
       <r>   21.6680    0.0000 </r>
       <r>   22.6941    0.0000 </r>
       <r>   23.0546    0.0000 </r>
       <r>   23.5314    0.0000 </r>
       <r>   26.6505    0.0000 </r>
       <r>   27.6364    0.0000 </r>
       <r>   27.8524    0.0000 </r>
       <r>   27.9279    0.0000 </r>
       <r>   29.0966    0.0000 </r>
       <r>   30.3511    0.0000 </r>
       <r>   31.2177    0.0000 </r>
       <r>   32.1520    0.0000 </r>
       <r>   36.6915    0.0000 </r>
       <r>   37.2050    0.0000 </r>
       <r>   37.4761    0.0000 </r>
       <r>   38.5744    0.0000 </r>
       <r>   41.5066    0.0000 </r>
       <r>   41.6373    0.0000 </r>
       <r>   42.1011    0.0000 </r>
       <r>   42.5351    0.0000 </r>
       <r>   43.1672    0.0000 </r>
       <r>   44.9317    0.0000 </r>
       <r>   46.1322    0.0000 </r>
       <r>   47.7625    0.0000 </r>
       <r>   49.0631    0.0000 </r>
       <r>   50.1795    0.0000 </r>
       <r>   50.9595    0.0000 </r>
       <r>   51.3554    0.0000 </r>
      </set>
      <set comment="kpoint 10">
       <r>   -4.3310    1.0000 </r>
       <r>   -1.8156    1.0000 </r>
       <r>    1.1171    1.0000 </r>
       <r>    2.2051    1.0000 </r>
       <r>    9.6202    0.0000 </r>
       <r>    9.9741    0.0000 </r>
       <r>   10.8046    0.0000 </r>
       <r>   14.3419    0.0000 </r>
       <r>   15.1020    0.0000 </r>
       <r>   16.8952    0.0000 </r>
       <r>   20.1668    0.0000 </r>
       <r>   21.1337    0.0000 </r>
       <r>   21.1348    0.0000 </r>
       <r>   22.5890    0.0000 </r>
       <r>   23.3199    0.0000 </r>
       <r>   25.5305    0.0000 </r>
       <r>   26.9659    0.0000 </r>
       <r>   27.0555    0.0000 </r>
       <r>   27.7269    0.0000 </r>
       <r>   28.1764    0.0000 </r>
       <r>   30.2019    0.0000 </r>
       <r>   30.2326    0.0000 </r>
       <r>   32.8628    0.0000 </r>
       <r>   34.9197    0.0000 </r>
       <r>   35.6844    0.0000 </r>
       <r>   36.0854    0.0000 </r>
       <r>   36.8480    0.0000 </r>
       <r>   37.1833    0.0000 </r>
       <r>   38.7357    0.0000 </r>
       <r>   39.8855    0.0000 </r>
       <r>   41.9799    0.0000 </r>
       <r>   44.3418    0.0000 </r>
       <r>   44.4047    0.0000 </r>
       <r>   45.9463    0.0000 </r>
       <r>   47.7610    0.0000 </r>
       <r>   47.8612    0.0000 </r>
       <r>   50.0013    0.0000 </r>
       <r>   50.2099    0.0000 </r>
       <r>   50.8424    0.0000 </r>
       <r>   50.9935    0.0000 </r>
      </set>
     </set>
     <set comment="spin 2">
      <set comment="kpoint 1">
       <r>   -7.8299    1.0000 </r>
       <r>    5.4335    1.0000 </r>
       <r>    5.4335    1.0000 </r>
       <r>    5.4335    1.0000 </r>
       <r>    8.7823    0.0000 </r>
       <r>    8.7823    0.0000 </r>
       <r>    8.7823    0.0000 </r>
       <r>    9.7500    0.0000 </r>
       <r>   14.2409    0.0000 </r>
       <r>   14.2409    0.0000 </r>
       <r>   14.2455    0.0000 </r>
       <r>   17.7745    0.0000 </r>
       <r>   17.7745    0.0000 </r>
       <r>   17.7745    0.0000 </r>
       <r>   21.7184    0.0000 </r>
       <r>   30.1752    0.0000 </r>
       <r>   30.1752    0.0000 </r>
       <r>   30.1752    0.0000 </r>
       <r>   31.4661    0.0000 </r>
       <r>   31.4661    0.0000 </r>
       <r>   33.0102    0.0000 </r>
       <r>   33.0102    0.0000 </r>
       <r>   33.0102    0.0000 </r>
       <r>   36.2033    0.0000 </r>
       <r>   36.2033    0.0000 </r>
       <r>   36.2033    0.0000 </r>
       <r>   42.1258    0.0000 </r>
       <r>   42.1258    0.0000 </r>
       <r>   42.1258    0.0000 </r>
       <r>   44.9909    0.0000 </r>
       <r>   45.8365    0.0000 </r>
       <r>   45.8365    0.0000 </r>
       <r>   47.6000    0.0000 </r>
       <r>   47.6000    0.0000 </r>
       <r>   49.3331    0.0000 </r>
       <r>   49.3332    0.0000 </r>
       <r>   49.3332    0.0000 </r>
       <r>   50.9911    0.0000 </r>
       <r>   50.9913    0.0000 </r>
       <r>   51.0889    0.0000 </r>
      </set>
      <set comment="kpoint 2">
       <r>   -7.2577    1.0000 </r>
       <r>    2.1836    1.0000 </r>
       <r>    4.8218    1.0000 </r>
       <r>    4.8218    1.0000 </r>
       <r>    8.4233    0.0000 </r>
       <r>    9.6323    0.0000 </r>
       <r>    9.6323    0.0000 </r>
       <r>   12.5183    0.0000 </r>
       <r>   13.4989    0.0000 </r>
       <r>   13.4989    0.0000 </r>
       <r>   15.5296    0.0000 </r>
       <r>   17.4359    0.0000 </r>
       <r>   20.4387    0.0000 </r>
       <r>   20.4387    0.0000 </r>
       <r>   24.4544    0.0000 </r>
       <r>   25.9932    0.0000 </r>
       <r>   25.9932    0.0000 </r>
       <r>   26.9483    0.0000 </r>
       <r>   31.1545    0.0000 </r>
       <r>   31.1545    0.0000 </r>
       <r>   33.7669    0.0000 </r>
       <r>   33.7669    0.0000 </r>
       <r>   35.4626    0.0000 </r>
       <r>   36.6837    0.0000 </r>
       <r>   37.2196    0.0000 </r>
       <r>   39.8927    0.0000 </r>
       <r>   39.8927    0.0000 </r>
       <r>   40.9565    0.0000 </r>
       <r>   40.9565    0.0000 </r>
       <r>   41.7974    0.0000 </r>
       <r>   41.7975    0.0000 </r>
       <r>   44.8400    0.0000 </r>
       <r>   44.8400    0.0000 </r>
       <r>   45.8255    0.0000 </r>
       <r>   46.8963    0.0000 </r>
       <r>   47.3531    0.0000 </r>
       <r>   48.4284    0.0000 </r>
       <r>   48.4286    0.0000 </r>
       <r>   50.8845    0.0000 </r>
       <r>   50.9833    0.0000 </r>
      </set>
      <set comment="kpoint 3">
       <r>   -5.7471    1.0000 </r>
       <r>   -1.4782    1.0000 </r>
       <r>    4.2074    1.0000 </r>
       <r>    4.2074    1.0000 </r>
       <r>    7.7830    0.0000 </r>
       <r>    9.6804    0.0000 </r>
       <r>    9.6804    0.0000 </r>
       <r>   14.2074    0.0000 </r>
       <r>   15.5830    0.0000 </r>
       <r>   15.5830    0.0000 </r>
       <r>   16.6956    0.0000 </r>
       <r>   20.0258    0.0000 </r>
       <r>   20.0258    0.0000 </r>
       <r>   20.8309    0.0000 </r>
       <r>   23.8056    0.0000 </r>
       <r>   25.9436    0.0000 </r>
       <r>   25.9436    0.0000 </r>
       <r>   29.7582    0.0000 </r>
       <r>   30.4987    0.0000 </r>
       <r>   30.8081    0.0000 </r>
       <r>   30.8081    0.0000 </r>
       <r>   33.8675    0.0000 </r>
       <r>   33.8675    0.0000 </r>
       <r>   35.0140    0.0000 </r>
       <r>   35.0140    0.0000 </r>
       <r>   36.4998    0.0000 </r>
       <r>   37.7980    0.0000 </r>
       <r>   39.4905    0.0000 </r>
       <r>   39.4905    0.0000 </r>
       <r>   40.3532    0.0000 </r>
       <r>   40.3532    0.0000 </r>
       <r>   41.2162    0.0000 </r>
       <r>   43.8429    0.0000 </r>
       <r>   44.1706    0.0000 </r>
       <r>   47.7727    0.0000 </r>
       <r>   47.7727    0.0000 </r>
       <r>   49.4037    0.0000 </r>
       <r>   49.4037    0.0000 </r>
       <r>   49.8017    0.0000 </r>
       <r>   51.0736    0.0000 </r>
      </set>
      <set comment="kpoint 4">
       <r>   -7.0605    1.0000 </r>
       <r>    2.6088    1.0000 </r>
       <r>    3.8395    1.0000 </r>
       <r>    3.8395    1.0000 </r>
       <r>    7.5698    0.0000 </r>
       <r>   10.1707    0.0000 </r>
       <r>   11.2712    0.0000 </r>
       <r>   11.2712    0.0000 </r>
       <r>   13.6058    0.0000 </r>
       <r>   15.0625    0.0000 </r>
       <r>   16.8439    0.0000 </r>
       <r>   19.0272    0.0000 </r>
       <r>   19.0272    0.0000 </r>
       <r>   19.5950    0.0000 </r>
       <r>   25.5201    0.0000 </r>
       <r>   25.5201    0.0000 </r>
       <r>   26.0898    0.0000 </r>
       <r>   26.7398    0.0000 </r>
       <r>   28.3937    0.0000 </r>
       <r>   31.1272    0.0000 </r>
       <r>   33.9095    0.0000 </r>
       <r>   34.5409    0.0000 </r>
       <r>   34.5409    0.0000 </r>
       <r>   37.9320    0.0000 </r>
       <r>   37.9320    0.0000 </r>
       <r>   38.2037    0.0000 </r>
       <r>   39.3580    0.0000 </r>
       <r>   40.8259    0.0000 </r>
       <r>   40.8259    0.0000 </r>
       <r>   40.9475    0.0000 </r>
       <r>   42.6095    0.0000 </r>
       <r>   44.5775    0.0000 </r>
       <r>   45.4736    0.0000 </r>
       <r>   45.4736    0.0000 </r>
       <r>   47.5900    0.0000 </r>
       <r>   47.7604    0.0000 </r>
       <r>   48.2514    0.0000 </r>
       <r>   48.2514    0.0000 </r>
       <r>   48.3503    0.0000 </r>
       <r>   51.0570    0.0000 </r>
      </set>
      <set comment="kpoint 5">
       <r>   -5.7946    1.0000 </r>
       <r>   -0.4026    1.0000 </r>
       <r>    2.6236    1.0000 </r>
       <r>    3.2657    1.0000 </r>
       <r>    7.8943    0.0000 </r>
       <r>   10.3580    0.0000 </r>
       <r>   11.3134    0.0000 </r>
       <r>   11.8469    0.0000 </r>
       <r>   16.7845    0.0000 </r>
       <r>   17.0654    0.0000 </r>
       <r>   17.3922    0.0000 </r>
       <r>   19.6305    0.0000 </r>
       <r>   20.1600    0.0000 </r>
       <r>   21.9020    0.0000 </r>
       <r>   23.0823    0.0000 </r>
       <r>   24.6852    0.0000 </r>
       <r>   26.5051    0.0000 </r>
       <r>   26.9095    0.0000 </r>
       <r>   28.8947    0.0000 </r>
       <r>   30.5528    0.0000 </r>
       <r>   31.5359    0.0000 </r>
       <r>   32.8841    0.0000 </r>
       <r>   34.0489    0.0000 </r>
       <r>   34.7169    0.0000 </r>
       <r>   36.1458    0.0000 </r>
       <r>   37.5100    0.0000 </r>
       <r>   37.8646    0.0000 </r>
       <r>   38.2202    0.0000 </r>
       <r>   39.9151    0.0000 </r>
       <r>   41.6179    0.0000 </r>
       <r>   42.6859    0.0000 </r>
       <r>   43.3140    0.0000 </r>
       <r>   44.0996    0.0000 </r>
       <r>   44.1455    0.0000 </r>
       <r>   45.9959    0.0000 </r>
       <r>   46.9849    0.0000 </r>
       <r>   49.7362    0.0000 </r>
       <r>   50.4399    0.0000 </r>
       <r>   51.2013    0.0000 </r>
       <r>   51.5391    0.0000 </r>
      </set>
      <set comment="kpoint 6">
       <r>   -4.8116    1.0000 </r>
       <r>   -1.9636    1.0000 </r>
       <r>    1.7243    1.0000 </r>
       <r>    3.5716    1.0000 </r>
       <r>    8.2154    0.0000 </r>
       <r>   10.9120    0.0000 </r>
       <r>   11.1730    0.0000 </r>
       <r>   14.1037    0.0000 </r>
       <r>   14.9676    0.0000 </r>
       <r>   14.9999    0.0000 </r>
       <r>   18.1074    0.0000 </r>
       <r>   20.9299    0.0000 </r>
       <r>   21.4846    0.0000 </r>
       <r>   22.1016    0.0000 </r>
       <r>   23.9475    0.0000 </r>
       <r>   26.7065    0.0000 </r>
       <r>   26.7423    0.0000 </r>
       <r>   27.2538    0.0000 </r>
       <r>   28.7049    0.0000 </r>
       <r>   28.7313    0.0000 </r>
       <r>   31.7440    0.0000 </r>
       <r>   32.8245    0.0000 </r>
       <r>   33.3590    0.0000 </r>
       <r>   33.4374    0.0000 </r>
       <r>   34.1886    0.0000 </r>
       <r>   35.6027    0.0000 </r>
       <r>   36.5327    0.0000 </r>
       <r>   38.3025    0.0000 </r>
       <r>   39.0558    0.0000 </r>
       <r>   40.8321    0.0000 </r>
       <r>   42.7813    0.0000 </r>
       <r>   43.0014    0.0000 </r>
       <r>   43.6671    0.0000 </r>
       <r>   43.6679    0.0000 </r>
       <r>   45.6209    0.0000 </r>
       <r>   47.9339    0.0000 </r>
       <r>   49.4760    0.0000 </r>
       <r>   49.9002    0.0000 </r>
       <r>   50.8224    0.0000 </r>
       <r>   52.5351    0.0000 </r>
      </set>
      <set comment="kpoint 7">
       <r>   -6.3363    1.0000 </r>
       <r>    0.5293    1.0000 </r>
       <r>    2.2131    1.0000 </r>
       <r>    4.5236    1.0000 </r>
       <r>    9.1457    0.0000 </r>
       <r>   10.3453    0.0000 </r>
       <r>   10.5556    0.0000 </r>
       <r>   12.1618    0.0000 </r>
       <r>   12.4809    0.0000 </r>
       <r>   17.3091    0.0000 </r>
       <r>   17.5339    0.0000 </r>
       <r>   18.4586    0.0000 </r>
       <r>   20.5146    0.0000 </r>
       <r>   21.5297    0.0000 </r>
       <r>   23.9389    0.0000 </r>
       <r>   25.3550    0.0000 </r>
       <r>   26.9697    0.0000 </r>
       <r>   27.0994    0.0000 </r>
       <r>   28.9609    0.0000 </r>
       <r>   29.1797    0.0000 </r>
       <r>   33.1566    0.0000 </r>
       <r>   33.7380    0.0000 </r>
       <r>   34.6182    0.0000 </r>
       <r>   35.6978    0.0000 </r>
       <r>   36.5249    0.0000 </r>
       <r>   36.8626    0.0000 </r>
       <r>   38.6539    0.0000 </r>
       <r>   40.0329    0.0000 </r>
       <r>   40.5889    0.0000 </r>
       <r>   41.4107    0.0000 </r>
       <r>   42.4211    0.0000 </r>
       <r>   42.9371    0.0000 </r>
       <r>   44.9418    0.0000 </r>
       <r>   45.0369    0.0000 </r>
       <r>   46.2936    0.0000 </r>
       <r>   46.3620    0.0000 </r>
       <r>   46.3864    0.0000 </r>
       <r>   47.9146    0.0000 </r>
       <r>   49.9418    0.0000 </r>
       <r>   51.6747    0.0000 </r>
      </set>
      <set comment="kpoint 8">
       <r>   -4.8201    1.0000 </r>
       <r>   -1.3841    1.0000 </r>
       <r>    2.4856    1.0000 </r>
       <r>    2.4856    1.0000 </r>
       <r>    6.6182    0.0000 </r>
       <r>    7.4013    0.0000 </r>
       <r>   15.1687    0.0000 </r>
       <r>   15.1687    0.0000 </r>
       <r>   17.4954    0.0000 </r>
       <r>   18.0021    0.0000 </r>
       <r>   19.4406    0.0000 </r>
       <r>   19.4406    0.0000 </r>
       <r>   20.5233    0.0000 </r>
       <r>   21.4508    0.0000 </r>
       <r>   23.1446    0.0000 </r>
       <r>   23.9301    0.0000 </r>
       <r>   23.9301    0.0000 </r>
       <r>   25.7723    0.0000 </r>
       <r>   29.4800    0.0000 </r>
       <r>   30.0885    0.0000 </r>
       <r>   30.0885    0.0000 </r>
       <r>   30.9738    0.0000 </r>
       <r>   31.5934    0.0000 </r>
       <r>   34.1520    0.0000 </r>
       <r>   36.3703    0.0000 </r>
       <r>   36.3703    0.0000 </r>
       <r>   36.7772    0.0000 </r>
       <r>   41.7565    0.0000 </r>
       <r>   41.7565    0.0000 </r>
       <r>   42.2661    0.0000 </r>
       <r>   42.7859    0.0000 </r>
       <r>   43.2282    0.0000 </r>
       <r>   46.1939    0.0000 </r>
       <r>   46.6997    0.0000 </r>
       <r>   46.6997    0.0000 </r>
       <r>   47.2106    0.0000 </r>
       <r>   47.2106    0.0000 </r>
       <r>   47.4336    0.0000 </r>
       <r>   48.8025    0.0000 </r>
       <r>   49.6253    0.0000 </r>
      </set>
      <set comment="kpoint 9">
       <r>   -3.4768    1.0000 </r>
       <r>   -2.7976    1.0000 </r>
       <r>    1.0204    1.0000 </r>
       <r>    2.6165    1.0000 </r>
       <r>    7.1016    0.0000 </r>
       <r>    9.3528    0.0000 </r>
       <r>   14.7475    0.0000 </r>
       <r>   15.2538    0.0000 </r>
       <r>   15.4175    0.0000 </r>
       <r>   15.6289    0.0000 </r>
       <r>   21.2084    0.0000 </r>
       <r>   21.2587    0.0000 </r>
       <r>   21.6680    0.0000 </r>
       <r>   22.6941    0.0000 </r>
       <r>   23.0546    0.0000 </r>
       <r>   23.5314    0.0000 </r>
       <r>   26.6505    0.0000 </r>
       <r>   27.6364    0.0000 </r>
       <r>   27.8524    0.0000 </r>
       <r>   27.9279    0.0000 </r>
       <r>   29.0966    0.0000 </r>
       <r>   30.3511    0.0000 </r>
       <r>   31.2177    0.0000 </r>
       <r>   32.1520    0.0000 </r>
       <r>   36.6915    0.0000 </r>
       <r>   37.2050    0.0000 </r>
       <r>   37.4761    0.0000 </r>
       <r>   38.5744    0.0000 </r>
       <r>   41.5066    0.0000 </r>
       <r>   41.6373    0.0000 </r>
       <r>   42.1011    0.0000 </r>
       <r>   42.5351    0.0000 </r>
       <r>   43.1672    0.0000 </r>
       <r>   44.9317    0.0000 </r>
       <r>   46.1322    0.0000 </r>
       <r>   47.7625    0.0000 </r>
       <r>   49.0631    0.0000 </r>
       <r>   50.1795    0.0000 </r>
       <r>   50.9595    0.0000 </r>
       <r>   51.3551    0.0000 </r>
      </set>
      <set comment="kpoint 10">
       <r>   -4.3309    1.0000 </r>
       <r>   -1.8156    1.0000 </r>
       <r>    1.1171    1.0000 </r>
       <r>    2.2051    1.0000 </r>
       <r>    9.6202    0.0000 </r>
       <r>    9.9741    0.0000 </r>
       <r>   10.8046    0.0000 </r>
       <r>   14.3419    0.0000 </r>
       <r>   15.1020    0.0000 </r>
       <r>   16.8952    0.0000 </r>
       <r>   20.1668    0.0000 </r>
       <r>   21.1337    0.0000 </r>
       <r>   21.1348    0.0000 </r>
       <r>   22.5890    0.0000 </r>
       <r>   23.3199    0.0000 </r>
       <r>   25.5305    0.0000 </r>
       <r>   26.9659    0.0000 </r>
       <r>   27.0555    0.0000 </r>
       <r>   27.7269    0.0000 </r>
       <r>   28.1764    0.0000 </r>
       <r>   30.2019    0.0000 </r>
       <r>   30.2326    0.0000 </r>
       <r>   32.8628    0.0000 </r>
       <r>   34.9197    0.0000 </r>
       <r>   35.6844    0.0000 </r>
       <r>   36.0854    0.0000 </r>
       <r>   36.8480    0.0000 </r>
       <r>   37.1833    0.0000 </r>
       <r>   38.7357    0.0000 </r>
       <r>   39.8855    0.0000 </r>
       <r>   41.9799    0.0000 </r>
       <r>   44.3418    0.0000 </r>
       <r>   44.4047    0.0000 </r>
       <r>   45.9463    0.0000 </r>
       <r>   47.7610    0.0000 </r>
       <r>   47.8612    0.0000 </r>
       <r>   50.0013    0.0000 </r>
       <r>   50.2099    0.0000 </r>
       <r>   50.8423    0.0000 </r>
       <r>   50.9934    0.0000 </r>
      </set>
     </set>
    </set>
   </array>
  </eigenvalues>
  <separator name="orbital magnetization" >
   <v name="MAGDIPOLOUT">      0.00000000      0.00000000      0.00000000</v>
  </separator>
  <dos>
   <i name="efermi">      5.77987997 </i>
   <total>
    <array>
     <dimension dim="1">gridpoints</dimension>
     <dimension dim="2">spin</dimension>
     <field>energy</field>
     <field>total</field>
     <field>integrated</field>
     <set>
      <set comment="spin 1">
       <r>   -10.8482     0.0000     0.0000 </r>
       <r>   -10.6268     0.0000     0.0000 </r>
       <r>   -10.4055     0.0000     0.0000 </r>
       <r>   -10.1841     0.0000     0.0000 </r>
       <r>    -9.9628     0.0000     0.0000 </r>
       <r>    -9.7415     0.0000     0.0000 </r>
       <r>    -9.5201     0.0000     0.0000 </r>
       <r>    -9.2988     0.0000     0.0000 </r>
       <r>    -9.0775     0.0000     0.0000 </r>
       <r>    -8.8561     0.0000     0.0000 </r>
       <r>    -8.6348     0.0000     0.0000 </r>
       <r>    -8.4134     0.0000     0.0000 </r>
       <r>    -8.1921     0.0000     0.0000 </r>
       <r>    -7.9708     0.0000     0.0000 </r>
       <r>    -7.7494     0.0357     0.0079 </r>
       <r>    -7.5281     0.0004     0.0080 </r>
       <r>    -7.3067     0.0239     0.0133 </r>
       <r>    -7.0854     0.3174     0.0835 </r>
       <r>    -6.8641     0.1647     0.1200 </r>
       <r>    -6.6427     0.0000     0.1200 </r>
       <r>    -6.4214     0.0035     0.1208 </r>
       <r>    -6.2001     0.4302     0.2160 </r>
       <r>    -5.9787     0.0000     0.2160 </r>
       <r>    -5.7574     0.8522     0.4046 </r>
       <r>    -5.5360     0.3044     0.4720 </r>
       <r>    -5.3147     0.0000     0.4720 </r>
       <r>    -5.0934     0.0000     0.4720 </r>
       <r>    -4.8720     0.0534     0.4838 </r>
       <r>    -4.6507     1.0309     0.7120 </r>
       <r>    -4.4294     0.0023     0.7125 </r>
       <r>    -4.2080     0.8649     0.9040 </r>
       <r>    -3.9867     0.0002     0.9040 </r>
       <r>    -3.7653     0.0000     0.9040 </r>
       <r>    -3.5440     0.0124     0.9067 </r>
       <r>    -3.3227     0.4213     1.0000 </r>
       <r>    -3.1013     0.0000     1.0000 </r>
       <r>    -2.8800     0.0043     1.0010 </r>
       <r>    -2.6586     0.4294     1.0960 </r>
       <r>    -2.4373     0.0000     1.0960 </r>
       <r>    -2.2160     0.0000     1.0960 </r>
       <r>    -1.9946     0.1649     1.1325 </r>
       <r>    -1.7733     1.4695     1.4578 </r>
       <r>    -1.5520     0.1058     1.4812 </r>
       <r>    -1.3306     0.4865     1.5889 </r>
       <r>    -1.1093     0.0142     1.5920 </r>
       <r>    -0.8879     0.0000     1.5920 </r>
       <r>    -0.6666     0.0000     1.5920 </r>
       <r>    -0.4453     0.0986     1.6138 </r>
       <r>    -0.2239     0.7688     1.7840 </r>
       <r>    -0.0026     0.0000     1.7840 </r>
       <r>     0.2188     0.0000     1.7840 </r>
       <r>     0.4401     0.0025     1.7846 </r>
       <r>     0.6614     0.4312     1.8800 </r>
       <r>     0.8828     0.0001     1.8800 </r>
       <r>     1.1041     0.7389     2.0436 </r>
       <r>     1.3254     0.5623     2.1680 </r>
       <r>     1.5468     0.0000     2.1680 </r>
       <r>     1.7681     0.7739     2.3393 </r>
       <r>     1.9895     0.0935     2.3600 </r>
       <r>     2.2108     0.9200     2.5636 </r>
       <r>     2.4321     0.6985     2.7183 </r>
       <r>     2.6535     1.6642     3.0866 </r>
       <r>     2.8748     0.2593     3.1440 </r>
       <r>     3.0962     0.0000     3.1440 </r>
       <r>     3.3175     0.8055     3.3223 </r>
       <r>     3.5388     0.2156     3.3700 </r>
       <r>     3.7602     0.7191     3.5292 </r>
       <r>     3.9815     0.4283     3.6240 </r>
       <r>     4.2028     0.2597     3.6815 </r>
       <r>     4.4242     0.3197     3.7522 </r>
       <r>     4.6455     0.4325     3.8480 </r>
       <r>     4.8669     0.5200     3.9631 </r>
       <r>     5.0882     0.0585     3.9760 </r>
       <r>     5.3095     0.0000     3.9760 </r>
       <r>     5.5309     0.1081     3.9999 </r>
       <r>     5.7522     0.0003     4.0000 </r>
       <r>     5.9736     0.0000     4.0000 </r>
       <r>     6.1949     0.0000     4.0000 </r>
       <r>     6.4162     0.0000     4.0000 </r>
       <r>     6.6376     0.1536     4.0340 </r>
       <r>     6.8589     0.0633     4.0480 </r>
       <r>     7.0802     0.1184     4.0742 </r>
       <r>     7.3016     0.3158     4.1441 </r>
       <r>     7.5229     0.2363     4.1964 </r>
       <r>     7.7443     0.2364     4.2488 </r>
       <r>     7.9656     1.0981     4.4918 </r>
       <r>     8.1869     0.2017     4.5365 </r>
       <r>     8.4083     0.7815     4.7094 </r>
       <r>     8.6296     0.1923     4.7520 </r>
       <r>     8.8509     0.1056     4.7754 </r>
       <r>     9.0723     0.0111     4.7778 </r>
       <r>     9.2936     0.4460     4.8765 </r>
       <r>     9.5150     0.4148     4.9683 </r>
       <r>     9.7363     2.0008     5.4112 </r>
       <r>     9.9576     0.3358     5.4855 </r>
       <r>    10.1790     0.7180     5.6444 </r>
       <r>    10.4003     1.2632     5.9241 </r>
       <r>    10.6217     0.5466     6.0450 </r>
       <r>    10.8430     0.7825     6.2182 </r>
       <r>    11.0643     0.9668     6.4322 </r>
       <r>    11.2857     1.3394     6.7287 </r>
       <r>    11.5070     0.8283     6.9120 </r>
       <r>    11.7283     0.0003     6.9121 </r>
       <r>    11.9497     0.8655     7.1036 </r>
       <r>    12.1710     0.2631     7.1619 </r>
       <r>    12.3924     0.1749     7.2006 </r>
       <r>    12.6137     0.7191     7.3598 </r>
       <r>    12.8350     0.0010     7.3600 </r>
       <r>    13.0564     0.0000     7.3600 </r>
       <r>    13.2777     0.0000     7.3600 </r>
       <r>    13.4991     0.2907     7.4243 </r>
       <r>    13.7204     0.5044     7.5360 </r>
       <r>    13.9417     0.0001     7.5360 </r>
       <r>    14.1631     0.8588     7.7261 </r>
       <r>    14.3844     1.1744     7.9860 </r>
       <r>    14.6057     0.0993     8.0080 </r>
       <r>    14.8271     0.4285     8.1028 </r>
       <r>    15.0484     1.7882     8.4986 </r>
       <r>    15.2698     1.7616     8.8885 </r>
       <r>    15.4911     0.6104     9.0236 </r>
       <r>    15.7124     1.2626     9.3031 </r>
       <r>    15.9338     0.0040     9.3040 </r>
       <r>    16.1551     0.0000     9.3040 </r>
       <r>    16.3765     0.0000     9.3040 </r>
       <r>    16.5978     0.0008     9.3042 </r>
       <r>    16.8191     1.0799     9.5432 </r>
       <r>    17.0405     1.3685     9.8461 </r>
       <r>    17.2618     0.6986    10.0007 </r>
       <r>    17.4831     1.6323    10.3620 </r>
       <r>    17.7045     0.5718    10.4886 </r>
       <r>    17.9258     0.1092    10.5127 </r>
       <r>    18.1472     0.9681    10.7270 </r>
       <r>    18.3685     0.1152    10.7525 </r>
       <r>    18.5898     0.4313    10.8480 </r>
       <r>    18.8112     0.0000    10.8480 </r>
       <r>    19.0325     0.2429    10.9018 </r>
       <r>    19.2539     0.1908    10.9440 </r>
       <r>    19.4752     0.3627    11.0243 </r>
       <r>    19.6965     1.1281    11.2740 </r>
       <r>    19.9179     0.0279    11.2801 </r>
       <r>    20.1392     1.0073    11.5031 </r>
       <r>    20.3605     1.3131    11.7937 </r>
       <r>    20.5819     1.1981    12.0589 </r>
       <r>    20.8032     0.0858    12.0779 </r>
       <r>    21.0246     1.0921    12.3197 </r>
       <r>    21.2459     2.2620    12.8203 </r>
       <r>    21.4672     0.7766    12.9922 </r>
       <r>    21.6886     1.4026    13.3026 </r>
       <r>    21.9099     0.6614    13.4490 </r>
       <r>    22.1312     1.0502    13.6815 </r>
       <r>    22.3526     0.1740    13.7200 </r>
       <r>    22.5739     0.2907    13.7843 </r>
       <r>    22.7953     1.0096    14.0078 </r>
       <r>    23.0166     0.0897    14.0277 </r>
       <r>    23.2379     1.4372    14.3458 </r>
       <r>    23.4593     0.8684    14.5380 </r>
       <r>    23.6806     0.4249    14.6320 </r>
       <r>    23.9020     0.5307    14.7495 </r>
       <r>    24.1233     1.4933    15.0800 </r>
       <r>    24.3446     0.0003    15.0801 </r>
       <r>    24.5660     0.2890    15.1440 </r>
       <r>    24.7873     0.8657    15.3356 </r>
       <r>    25.0086     0.0017    15.3360 </r>
       <r>    25.2300     0.0001    15.3360 </r>
       <r>    25.4513     0.4544    15.4366 </r>
       <r>    25.6727     1.2809    15.7201 </r>
       <r>    25.8940     0.2643    15.7786 </r>
       <r>    26.1153     1.2745    16.0607 </r>
       <r>    26.3367     0.0511    16.0720 </r>
       <r>    26.5580     0.8110    16.2515 </r>
       <r>    26.7794     2.2687    16.7537 </r>
       <r>    27.0007     2.4364    17.2929 </r>
       <r>    27.2220     1.6559    17.6594 </r>
       <r>    27.4434     0.7073    17.8160 </r>
       <r>    27.6647     0.3761    17.8992 </r>
       <r>    27.8860     1.3359    18.1949 </r>
       <r>    28.1074     0.4788    18.3009 </r>
       <r>    28.3287     0.8525    18.4896 </r>
       <r>    28.5501     0.2097    18.5360 </r>
       <r>    28.7714     1.5977    18.8896 </r>
       <r>    28.9927     1.3568    19.1899 </r>
       <r>    29.2141     0.8770    19.3841 </r>
       <r>    29.4354     0.0945    19.4050 </r>
       <r>    29.6568     0.1950    19.4481 </r>
       <r>    29.8781     0.2885    19.5120 </r>
       <r>    30.0994     0.2730    19.5724 </r>
       <r>    30.3208     2.0833    20.0335 </r>
       <r>    30.5421     0.9426    20.2421 </r>
       <r>    30.7634     0.6283    20.3812 </r>
       <r>    30.9848     0.6533    20.5258 </r>
       <r>    31.2061     0.9939    20.7458 </r>
       <r>    31.4275     0.3279    20.8184 </r>
       <r>    31.6488     1.1355    21.0697 </r>
       <r>    31.8701     0.8775    21.2640 </r>
       <r>    32.0915     0.0190    21.2682 </r>
       <r>    32.3128     0.4149    21.3600 </r>
       <r>    32.5342     0.0000    21.3600 </r>
       <r>    32.7555     0.0232    21.3651 </r>
       <r>    32.9768     2.5936    21.9392 </r>
       <r>    33.1982     0.4759    22.0445 </r>
       <r>    33.4195     1.1475    22.2985 </r>
       <r>    33.6408     0.6407    22.4403 </r>
       <r>    33.8622     1.2826    22.7242 </r>
       <r>    34.0835     1.2552    23.0020 </r>
       <r>    34.3049     1.2192    23.2719 </r>
       <r>    34.5262     0.1492    23.3049 </r>
       <r>    34.7475     1.4184    23.6189 </r>
       <r>    34.9689     1.0222    23.8451 </r>
       <r>    35.1902     0.5913    23.9760 </r>
       <r>    35.4115     0.0215    23.9808 </r>
       <r>    35.6329     1.0416    24.2113 </r>
       <r>    35.8542     1.3947    24.5200 </r>
       <r>    36.0756     0.3588    24.5994 </r>
       <r>    36.2969     1.4924    24.9297 </r>
       <r>    36.5182     1.1090    25.1752 </r>
       <r>    36.7396     1.6082    25.5311 </r>
       <r>    36.9609     1.5382    25.8716 </r>
       <r>    37.1823     0.5802    26.0000 </r>
       <r>    37.4036     1.0218    26.2262 </r>
       <r>    37.6249     1.2908    26.5119 </r>
       <r>    37.8463     0.5305    26.6293 </r>
       <r>    38.0676     1.0603    26.8640 </r>
       <r>    38.2889     1.3646    27.1660 </r>
       <r>    38.5103     0.6023    27.2994 </r>
       <r>    38.7316     1.2401    27.5738 </r>
       <r>    38.9530     0.4812    27.6803 </r>
       <r>    39.1743     0.8655    27.8719 </r>
       <r>    39.3956     0.1882    27.9136 </r>
       <r>    39.6170     0.6072    28.0480 </r>
       <r>    39.8383     0.1278    28.0763 </r>
       <r>    40.0597     2.5217    28.6344 </r>
       <r>    40.2810     0.1094    28.6586 </r>
       <r>    40.5023     0.5695    28.7847 </r>
       <r>    40.7237     0.4324    28.8804 </r>
       <r>    40.9450     1.6164    29.2382 </r>
       <r>    41.1663     0.5010    29.3491 </r>
       <r>    41.3877     0.3780    29.4327 </r>
       <r>    41.6090     1.1940    29.6970 </r>
       <r>    41.8304     1.7652    30.0877 </r>
       <r>    42.0517     0.9960    30.3082 </r>
       <r>    42.2730     0.6486    30.4517 </r>
       <r>    42.4944     0.5714    30.5782 </r>
       <r>    42.7157     1.3315    30.8729 </r>
       <r>    42.9371     1.4714    31.1986 </r>
       <r>    43.1584     1.2342    31.4718 </r>
       <r>    43.3797     1.3110    31.7619 </r>
       <r>    43.6011     0.0797    31.7796 </r>
       <r>    43.8224     1.7638    32.1700 </r>
       <r>    44.0437     0.2592    32.2273 </r>
       <r>    44.2651     1.9845    32.6666 </r>
       <r>    44.4864     1.7154    33.0462 </r>
       <r>    44.7078     0.2248    33.0960 </r>
       <r>    44.9291     0.9371    33.3034 </r>
       <r>    45.1504     0.9782    33.5199 </r>
       <r>    45.3718     0.0011    33.5202 </r>
       <r>    45.5931     0.6200    33.6574 </r>
       <r>    45.8145     0.8087    33.8364 </r>
       <r>    46.0358     1.8520    34.2463 </r>
       <r>    46.2571     0.8247    34.4289 </r>
       <r>    46.4785     1.2408    34.7035 </r>
       <r>    46.6998     0.2198    34.7522 </r>
       <r>    46.9211     0.4666    34.8554 </r>
       <r>    47.1425     0.9178    35.0586 </r>
       <r>    47.3638     0.6063    35.1928 </r>
       <r>    47.5852     0.4427    35.2908 </r>
       <r>    47.8065     2.0671    35.7483 </r>
       <r>    48.0278     2.3623    36.2712 </r>
       <r>    48.2492     0.2102    36.3177 </r>
       <r>    48.4705     0.9547    36.5290 </r>
       <r>    48.6918     0.0679    36.5440 </r>
       <r>    48.9132     0.2165    36.5920 </r>
       <r>    49.1345     0.4245    36.6859 </r>
       <r>    49.3559     0.1401    36.7169 </r>
       <r>    49.5772     1.4405    37.0358 </r>
       <r>    49.7985     1.1695    37.2946 </r>
       <r>    50.0199     2.0897    37.7572 </r>
       <r>    50.2412     1.3863    38.0640 </r>
       <r>    50.4626     0.8206    38.2456 </r>
       <r>    50.6839     0.2276    38.2960 </r>
       <r>    50.9052     1.9601    38.7299 </r>
       <r>    51.1266     2.2595    39.2300 </r>
       <r>    51.3479     1.0572    39.4640 </r>
       <r>    51.5692     1.0060    39.6866 </r>
       <r>    51.7906     0.5481    39.8079 </r>
       <r>    52.0119     0.0002    39.8080 </r>
       <r>    52.2333     0.0000    39.8080 </r>
       <r>    52.4546     0.0099    39.8102 </r>
       <r>    52.6759     0.8575    40.0000 </r>
       <r>    52.8973     0.0000    40.0000 </r>
       <r>    53.1186     0.0000    40.0000 </r>
       <r>    53.3400     0.0000    40.0000 </r>
       <r>    53.5613     0.0000    40.0000 </r>
       <r>    53.7826     0.0000    40.0000 </r>
       <r>    54.0040     0.0000    40.0000 </r>
       <r>    54.2253     0.0000    40.0000 </r>
       <r>    54.4466     0.0000    40.0000 </r>
       <r>    54.6680     0.0000    40.0000 </r>
       <r>    54.8893     0.0000    40.0000 </r>
       <r>    55.1107     0.0000    40.0000 </r>
       <r>    55.3320     0.0000    40.0000 </r>
       <r>    55.5533     0.0000    40.0000 </r>
      </set>
      <set comment="spin 2">
       <r>   -10.8482     0.0000     0.0000 </r>
       <r>   -10.6268     0.0000     0.0000 </r>
       <r>   -10.4055     0.0000     0.0000 </r>
       <r>   -10.1841     0.0000     0.0000 </r>
       <r>    -9.9628     0.0000     0.0000 </r>
       <r>    -9.7415     0.0000     0.0000 </r>
       <r>    -9.5201     0.0000     0.0000 </r>
       <r>    -9.2988     0.0000     0.0000 </r>
       <r>    -9.0775     0.0000     0.0000 </r>
       <r>    -8.8561     0.0000     0.0000 </r>
       <r>    -8.6348     0.0000     0.0000 </r>
       <r>    -8.4134     0.0000     0.0000 </r>
       <r>    -8.1921     0.0000     0.0000 </r>
       <r>    -7.9708     0.0000     0.0000 </r>
       <r>    -7.7494     0.0357     0.0079 </r>
       <r>    -7.5281     0.0004     0.0080 </r>
       <r>    -7.3067     0.0239     0.0133 </r>
       <r>    -7.0854     0.3174     0.0835 </r>
       <r>    -6.8641     0.1647     0.1200 </r>
       <r>    -6.6427     0.0000     0.1200 </r>
       <r>    -6.4214     0.0035     0.1208 </r>
       <r>    -6.2001     0.4302     0.2160 </r>
       <r>    -5.9787     0.0000     0.2160 </r>
       <r>    -5.7574     0.8522     0.4046 </r>
       <r>    -5.5360     0.3044     0.4720 </r>
       <r>    -5.3147     0.0000     0.4720 </r>
       <r>    -5.0934     0.0000     0.4720 </r>
       <r>    -4.8720     0.0534     0.4838 </r>
       <r>    -4.6507     1.0309     0.7120 </r>
       <r>    -4.4294     0.0023     0.7125 </r>
       <r>    -4.2080     0.8649     0.9040 </r>
       <r>    -3.9867     0.0002     0.9040 </r>
       <r>    -3.7653     0.0000     0.9040 </r>
       <r>    -3.5440     0.0124     0.9067 </r>
       <r>    -3.3227     0.4213     1.0000 </r>
       <r>    -3.1013     0.0000     1.0000 </r>
       <r>    -2.8800     0.0043     1.0010 </r>
       <r>    -2.6586     0.4294     1.0960 </r>
       <r>    -2.4373     0.0000     1.0960 </r>
       <r>    -2.2160     0.0000     1.0960 </r>
       <r>    -1.9946     0.1649     1.1325 </r>
       <r>    -1.7733     1.4695     1.4578 </r>
       <r>    -1.5520     0.1058     1.4812 </r>
       <r>    -1.3306     0.4865     1.5889 </r>
       <r>    -1.1093     0.0142     1.5920 </r>
       <r>    -0.8879     0.0000     1.5920 </r>
       <r>    -0.6666     0.0000     1.5920 </r>
       <r>    -0.4453     0.0986     1.6138 </r>
       <r>    -0.2239     0.7688     1.7840 </r>
       <r>    -0.0026     0.0000     1.7840 </r>
       <r>     0.2188     0.0000     1.7840 </r>
       <r>     0.4401     0.0025     1.7846 </r>
       <r>     0.6614     0.4312     1.8800 </r>
       <r>     0.8828     0.0001     1.8800 </r>
       <r>     1.1041     0.7389     2.0436 </r>
       <r>     1.3254     0.5623     2.1680 </r>
       <r>     1.5468     0.0000     2.1680 </r>
       <r>     1.7681     0.7739     2.3393 </r>
       <r>     1.9895     0.0935     2.3600 </r>
       <r>     2.2108     0.9200     2.5636 </r>
       <r>     2.4321     0.6985     2.7183 </r>
       <r>     2.6535     1.6642     3.0866 </r>
       <r>     2.8748     0.2593     3.1440 </r>
       <r>     3.0962     0.0000     3.1440 </r>
       <r>     3.3175     0.8055     3.3223 </r>
       <r>     3.5388     0.2156     3.3700 </r>
       <r>     3.7602     0.7191     3.5292 </r>
       <r>     3.9815     0.4283     3.6240 </r>
       <r>     4.2028     0.2597     3.6815 </r>
       <r>     4.4242     0.3197     3.7522 </r>
       <r>     4.6455     0.4325     3.8480 </r>
       <r>     4.8669     0.5200     3.9631 </r>
       <r>     5.0882     0.0585     3.9760 </r>
       <r>     5.3095     0.0000     3.9760 </r>
       <r>     5.5309     0.1081     3.9999 </r>
       <r>     5.7522     0.0003     4.0000 </r>
       <r>     5.9736     0.0000     4.0000 </r>
       <r>     6.1949     0.0000     4.0000 </r>
       <r>     6.4162     0.0000     4.0000 </r>
       <r>     6.6376     0.1536     4.0340 </r>
       <r>     6.8589     0.0633     4.0480 </r>
       <r>     7.0802     0.1184     4.0742 </r>
       <r>     7.3016     0.3158     4.1441 </r>
       <r>     7.5229     0.2363     4.1964 </r>
       <r>     7.7443     0.2364     4.2488 </r>
       <r>     7.9656     1.0981     4.4918 </r>
       <r>     8.1869     0.2017     4.5365 </r>
       <r>     8.4083     0.7815     4.7094 </r>
       <r>     8.6296     0.1923     4.7520 </r>
       <r>     8.8509     0.1056     4.7754 </r>
       <r>     9.0723     0.0111     4.7778 </r>
       <r>     9.2936     0.4460     4.8765 </r>
       <r>     9.5150     0.4148     4.9683 </r>
       <r>     9.7363     2.0008     5.4112 </r>
       <r>     9.9576     0.3358     5.4855 </r>
       <r>    10.1790     0.7180     5.6444 </r>
       <r>    10.4003     1.2632     5.9241 </r>
       <r>    10.6217     0.5466     6.0450 </r>
       <r>    10.8430     0.7825     6.2182 </r>
       <r>    11.0643     0.9668     6.4322 </r>
       <r>    11.2857     1.3394     6.7287 </r>
[...]
        <r>  0.0000  0.0131  0.0000  0.0066  0.0000  0.0000  0.0000  0.0000  0.0000 </r>
       </set>
       <set comment="band 36">
        <r>  0.0000  0.0111  0.0041  0.0056  0.0000  0.0000  0.0000  0.0000  0.0000 </r>
        <r>  0.0000  0.0111  0.0041  0.0055  0.0000  0.0000  0.0000  0.0000  0.0000 </r>
       </set>
       <set comment="band 37">
        <r>  0.0000  0.0027  0.0166  0.0014  0.0000  0.0000  0.0000  0.0000  0.0000 </r>
        <r>  0.0000  0.0027  0.0167  0.0014  0.0000  0.0000  0.0000  0.0000  0.0000 </r>
       </set>
       <set comment="band 38">
        <r>  0.0045  0.0003  0.0000  0.0005  0.0000  0.0000  0.0000  0.0000  0.0000 </r>
        <r>  0.0045  0.0003  0.0000  0.0005  0.0000  0.0000  0.0000  0.0000  0.0000 </r>
       </set>
       <set comment="band 39">
        <r>  0.0026  0.0027  0.0000  0.0054  0.0000  0.0000  0.0000  0.0000  0.0000 </r>
        <r>  0.0026  0.0027  0.0000  0.0054  0.0000  0.0000  0.0000  0.0000  0.0000 </r>
       </set>
       <set comment="band 40">
        <r>  0.0043  0.0174  0.0000  0.0347  0.0000  0.0000  0.0000  0.0000  0.0000 </r>
        <r>  0.0043  0.0174  0.0000  0.0347  0.0000  0.0000  0.0000  0.0000  0.0000 </r>
       </set>
      </set>
      <set comment="kpoint 9">
       <set comment="band 1">
        <r>  0.2126  0.0146  0.0000  0.0231  0.0000  0.0000  0.0000  0.0000  0.0000 </r>
        <r>  0.2126  0.0146  0.0000  0.0231  0.0000  0.0000  0.0000  0.0000  0.0000 </r>
       </set>
       <set comment="band 2">
        <r>  0.1898  0.0203  0.0000  0.0330  0.0000  0.0000  0.0000  0.0000  0.0000 </r>
        <r>  0.1898  0.0203  0.0000  0.0330  0.0000  0.0000  0.0000  0.0000  0.0000 </r>
       </set>
       <set comment="band 3">
        <r>  0.0005  0.0981  0.0000  0.0650  0.0000  0.0000  0.0000  0.0000  0.0000 </r>
        <r>  0.0005  0.0981  0.0000  0.0650  0.0000  0.0000  0.0000  0.0000  0.0000 </r>
       </set>
       <set comment="band 4">
        <r>  0.0000  0.0000  0.2007  0.0000  0.0000  0.0000  0.0000  0.0000  0.0000 </r>
        <r>  0.0000  0.0000  0.2007  0.0000  0.0000  0.0000  0.0000  0.0000  0.0000 </r>
       </set>
       <set comment="band 5">
        <r>  0.0528  0.0127  0.0000  0.0241  0.0000  0.0000  0.0000  0.0000  0.0000 </r>
        <r>  0.0528  0.0127  0.0000  0.0241  0.0000  0.0000  0.0000  0.0000  0.0000 </r>
       </set>
       <set comment="band 6">
        <r>  0.0309  0.0450  0.0000  0.0307  0.0000  0.0000  0.0000  0.0000  0.0000 </r>
        <r>  0.0309  0.0450  0.0000  0.0307  0.0000  0.0000  0.0000  0.0000  0.0000 </r>
       </set>
       <set comment="band 7">
        <r>  0.0000  0.0000  0.1615  0.0000  0.0000  0.0000  0.0000  0.0000  0.0000 </r>
        <r>  0.0000  0.0000  0.1615  0.0000  0.0000  0.0000  0.0000  0.0000  0.0000 </r>
       </set>
       <set comment="band 8">
        <r>  0.0303  0.0313  0.0000  0.0617  0.0000  0.0000  0.0000  0.0000  0.0000 </r>
        <r>  0.0303  0.0313  0.0000  0.0617  0.0000  0.0000  0.0000  0.0000  0.0000 </r>
       </set>
       <set comment="band 9">
        <r>  0.0436  0.1158  0.0000  0.0751  0.0000  0.0000  0.0000  0.0000  0.0000 </r>
        <r>  0.0436  0.1158  0.0000  0.0751  0.0000  0.0000  0.0000  0.0000  0.0000 </r>
       </set>
       <set comment="band 10">
        <r>  0.0000  0.0000  0.0133  0.0000  0.0000  0.0000  0.0000  0.0000  0.0000 </r>
        <r>  0.0000  0.0000  0.0133  0.0000  0.0000  0.0000  0.0000  0.0000  0.0000 </r>
       </set>
       <set comment="band 11">
        <r>  0.0142  0.1022  0.0000  0.1371  0.0000  0.0000  0.0000  0.0000  0.0000 </r>
        <r>  0.0142  0.1022  0.0000  0.1371  0.0000  0.0000  0.0000  0.0000  0.0000 </r>
       </set>
       <set comment="band 12">
        <r>  0.0000  0.0000  0.0002  0.0000  0.0000  0.0000  0.0000  0.0000  0.0000 </r>
        <r>  0.0000  0.0000  0.0002  0.0000  0.0000  0.0000  0.0000  0.0000  0.0000 </r>
       </set>
       <set comment="band 13">
        <r>  0.0000  0.0000  0.0861  0.0000  0.0000  0.0000  0.0000  0.0000  0.0000 </r>
        <r>  0.0000  0.0000  0.0861  0.0000  0.0000  0.0000  0.0000  0.0000  0.0000 </r>
       </set>
       <set comment="band 14">
        <r>  0.0141  0.0632  0.0000  0.0935  0.0000  0.0000  0.0000  0.0000  0.0000 </r>
        <r>  0.0141  0.0632  0.0000  0.0935  0.0000  0.0000  0.0000  0.0000  0.0000 </r>
       </set>
       <set comment="band 15">
        <r>  0.0216  0.0047  0.0000  0.0074  0.0000  0.0000  0.0000  0.0000  0.0000 </r>
        <r>  0.0216  0.0047  0.0000  0.0074  0.0000  0.0000  0.0000  0.0000  0.0000 </r>
       </set>
       <set comment="band 16">
        <r>  0.0291  0.0055  0.0000  0.0046  0.0000  0.0000  0.0000  0.0000  0.0000 </r>
        <r>  0.0291  0.0055  0.0000  0.0046  0.0000  0.0000  0.0000  0.0000  0.0000 </r>
       </set>
       <set comment="band 17">
        <r>  0.0349  0.0021  0.0000  0.0024  0.0000  0.0000  0.0000  0.0000  0.0000 </r>
        <r>  0.0349  0.0021  0.0000  0.0024  0.0000  0.0000  0.0000  0.0000  0.0000 </r>
       </set>
       <set comment="band 18">
        <r>  0.0000  0.0000  0.0464  0.0000  0.0000  0.0000  0.0000  0.0000  0.0000 </r>
        <r>  0.0000  0.0000  0.0464  0.0000  0.0000  0.0000  0.0000  0.0000  0.0000 </r>
       </set>
       <set comment="band 19">
        <r>  0.0000  0.0000  0.0292  0.0000  0.0000  0.0000  0.0000  0.0000  0.0000 </r>
        <r>  0.0000  0.0000  0.0292  0.0000  0.0000  0.0000  0.0000  0.0000  0.0000 </r>
       </set>
       <set comment="band 20">
        <r>  0.0023  0.0594  0.0000  0.0307  0.0000  0.0000  0.0000  0.0000  0.0000 </r>
        <r>  0.0023  0.0594  0.0000  0.0307  0.0000  0.0000  0.0000  0.0000  0.0000 </r>
       </set>
       <set comment="band 21">
        <r>  0.0470  0.0110  0.0000  0.0146  0.0000  0.0000  0.0000  0.0000  0.0000 </r>
        <r>  0.0470  0.0110  0.0000  0.0146  0.0000  0.0000  0.0000  0.0000  0.0000 </r>
       </set>
       <set comment="band 22">
        <r>  0.0050  0.0389  0.0000  0.0271  0.0000  0.0000  0.0000  0.0000  0.0000 </r>
        <r>  0.0050  0.0389  0.0000  0.0271  0.0000  0.0000  0.0000  0.0000  0.0000 </r>
       </set>
       <set comment="band 23">
        <r>  0.0149  0.0014  0.0000  0.0013  0.0000  0.0000  0.0000  0.0000  0.0000 </r>
        <r>  0.0149  0.0014  0.0000  0.0013  0.0000  0.0000  0.0000  0.0000  0.0000 </r>
       </set>
       <set comment="band 24">
        <r>  0.0047  0.0008  0.0000  0.0008  0.0000  0.0000  0.0000  0.0000  0.0000 </r>
        <r>  0.0047  0.0008  0.0000  0.0008  0.0000  0.0000  0.0000  0.0000  0.0000 </r>
       </set>
       <set comment="band 25">
        <r>  0.0000  0.0000  0.1047  0.0000  0.0000  0.0000  0.0000  0.0000  0.0000 </r>
        <r>  0.0000  0.0000  0.1047  0.0000  0.0000  0.0000  0.0000  0.0000  0.0000 </r>
       </set>
       <set comment="band 26">
        <r>  0.0460  0.0113  0.0000  0.0095  0.0000  0.0000  0.0000  0.0000  0.0000 </r>
        <r>  0.0460  0.0113  0.0000  0.0095  0.0000  0.0000  0.0000  0.0000  0.0000 </r>
       </set>
       <set comment="band 27">
        <r>  0.0000  0.0000  0.0115  0.0000  0.0000  0.0000  0.0000  0.0000  0.0000 </r>
        <r>  0.0000  0.0000  0.0115  0.0000  0.0000  0.0000  0.0000  0.0000  0.0000 </r>
       </set>
       <set comment="band 28">
        <r>  0.0028  0.0047  0.0000  0.0029  0.0000  0.0000  0.0000  0.0000  0.0000 </r>
        <r>  0.0028  0.0047  0.0000  0.0029  0.0000  0.0000  0.0000  0.0000  0.0000 </r>
       </set>
       <set comment="band 29">
        <r>  0.0000  0.0000  0.0783  0.0000  0.0000  0.0000  0.0000  0.0000  0.0000 </r>
        <r>  0.0000  0.0000  0.0783  0.0000  0.0000  0.0000  0.0000  0.0000  0.0000 </r>
       </set>
       <set comment="band 30">
        <r>  0.0108  0.0029  0.0000  0.0057  0.0000  0.0000  0.0000  0.0000  0.0000 </r>
        <r>  0.0108  0.0029  0.0000  0.0057  0.0000  0.0000  0.0000  0.0000  0.0000 </r>
       </set>
       <set comment="band 31">
        <r>  0.0000  0.0000  0.0040  0.0000  0.0000  0.0000  0.0000  0.0000  0.0000 </r>
        <r>  0.0000  0.0000  0.0040  0.0000  0.0000  0.0000  0.0000  0.0000  0.0000 </r>
       </set>
       <set comment="band 32">
        <r>  0.0104  0.0291  0.0000  0.0182  0.0000  0.0000  0.0000  0.0000  0.0000 </r>
        <r>  0.0104  0.0291  0.0000  0.0182  0.0000  0.0000  0.0000  0.0000  0.0000 </r>
       </set>
       <set comment="band 33">
        <r>  0.0113  0.0023  0.0000  0.0039  0.0000  0.0000  0.0000  0.0000  0.0000 </r>
        <r>  0.0113  0.0023  0.0000  0.0039  0.0000  0.0000  0.0000  0.0000  0.0000 </r>
       </set>
       <set comment="band 34">
        <r>  0.0005  0.0084  0.0000  0.0066  0.0000  0.0000  0.0000  0.0000  0.0000 </r>
        <r>  0.0005  0.0084  0.0000  0.0066  0.0000  0.0000  0.0000  0.0000  0.0000 </r>
       </set>
       <set comment="band 35">
        <r>  0.0272  0.0127  0.0000  0.0129  0.0000  0.0000  0.0000  0.0000  0.0000 </r>
        <r>  0.0272  0.0127  0.0000  0.0129  0.0000  0.0000  0.0000  0.0000  0.0000 </r>
       </set>
       <set comment="band 36">
        <r>  0.0000  0.0000  0.0061  0.0000  0.0000  0.0000  0.0000  0.0000  0.0000 </r>
        <r>  0.0000  0.0000  0.0061  0.0000  0.0000  0.0000  0.0000  0.0000  0.0000 </r>
       </set>
       <set comment="band 37">
        <r>  0.0124  0.0273  0.0000  0.0152  0.0000  0.0000  0.0000  0.0000  0.0000 </r>
        <r>  0.0124  0.0273  0.0000  0.0152  0.0000  0.0000  0.0000  0.0000  0.0000 </r>
       </set>
       <set comment="band 38">
        <r>  0.0093  0.0105  0.0000  0.0110  0.0000  0.0000  0.0000  0.0000  0.0000 </r>
        <r>  0.0093  0.0105  0.0000  0.0110  0.0000  0.0000  0.0000  0.0000  0.0000 </r>
       </set>
       <set comment="band 39">
        <r>  0.0001  0.0147  0.0000  0.0175  0.0000  0.0000  0.0000  0.0000  0.0000 </r>
        <r>  0.0001  0.0147  0.0000  0.0175  0.0000  0.0000  0.0000  0.0000  0.0000 </r>
       </set>
       <set comment="band 40">
        <r>  0.0000  0.0000  0.0000  0.0000  0.0000  0.0000  0.0000  0.0000  0.0000 </r>
        <r>  0.0000  0.0000  0.0000  0.0000  0.0000  0.0000  0.0000  0.0000  0.0000 </r>
       </set>
      </set>
      <set comment="kpoint 10">
       <set comment="band 1">
        <r>  0.2119  0.0056  0.0040  0.0212  0.0000  0.0000  0.0000  0.0000  0.0000 </r>
        <r>  0.2119  0.0056  0.0040  0.0212  0.0000  0.0000  0.0000  0.0000  0.0000 </r>
       </set>
       <set comment="band 2">
        <r>  0.1883  0.0139  0.0147  0.0340  0.0000  0.0000  0.0000  0.0000  0.0000 </r>
        <r>  0.1883  0.0139  0.0147  0.0340  0.0000  0.0000  0.0000  0.0000  0.0000 </r>
       </set>
       <set comment="band 3">
        <r>  0.0067  0.0270  0.0669  0.0663  0.0000  0.0000  0.0000  0.0000  0.0000 </r>
        <r>  0.0067  0.0270  0.0669  0.0663  0.0000  0.0000  0.0000  0.0000  0.0000 </r>
       </set>
       <set comment="band 4">
        <r>  0.0016  0.1038  0.0629  0.0106  0.0000  0.0000  0.0000  0.0000  0.0000 </r>
        <r>  0.0016  0.1038  0.0629  0.0106  0.0000  0.0000  0.0000  0.0000  0.0000 </r>
       </set>
       <set comment="band 5">
        <r>  0.0280  0.0525  0.0330  0.0067  0.0000  0.0000  0.0000  0.0000  0.0000 </r>
        <r>  0.0280  0.0525  0.0330  0.0067  0.0000  0.0000  0.0000  0.0000  0.0000 </r>
       </set>
       <set comment="band 6">
        <r>  0.0058  0.0140  0.0334  0.0223  0.0000  0.0000  0.0000  0.0000  0.0000 </r>
        <r>  0.0058  0.0140  0.0334  0.0223  0.0000  0.0000  0.0000  0.0000  0.0000 </r>
       </set>
       <set comment="band 7">
        <r>  0.0715  0.0421  0.0296  0.0201  0.0000  0.0000  0.0000  0.0000  0.0000 </r>
        <r>  0.0715  0.0421  0.0296  0.0201  0.0000  0.0000  0.0000  0.0000  0.0000 </r>
       </set>
       <set comment="band 8">
        <r>  0.0184  0.0064  0.0235  0.0712  0.0000  0.0000  0.0000  0.0000  0.0000 </r>
        <r>  0.0184  0.0064  0.0235  0.0712  0.0000  0.0000  0.0000  0.0000  0.0000 </r>
       </set>
       <set comment="band 9">
        <r>  0.0061  0.0706  0.0708  0.0148  0.0000  0.0000  0.0000  0.0000  0.0000 </r>
        <r>  0.0061  0.0706  0.0708  0.0148  0.0000  0.0000  0.0000  0.0000  0.0000 </r>
       </set>
       <set comment="band 10">
        <r>  0.0330  0.0107  0.0062  0.0678  0.0000  0.0000  0.0000  0.0000  0.0000 </r>
        <r>  0.0330  0.0107  0.0062  0.0678  0.0000  0.0000  0.0000  0.0000  0.0000 </r>
       </set>
       <set comment="band 11">
        <r>  0.0070  0.0328  0.0510  0.0184  0.0000  0.0000  0.0000  0.0000  0.0000 </r>
        <r>  0.0070  0.0328  0.0510  0.0184  0.0000  0.0000  0.0000  0.0000  0.0000 </r>
       </set>
       <set comment="band 12">
        <r>  0.0003  0.0427  0.0085  0.0554  0.0000  0.0000  0.0000  0.0000  0.0000 </r>
        <r>  0.0003  0.0427  0.0085  0.0554  0.0000  0.0000  0.0000  0.0000  0.0000 </r>
       </set>
       <set comment="band 13">
        <r>  0.0095  0.0121  0.0227  0.0215  0.0000  0.0000  0.0000  0.0000  0.0000 </r>
        <r>  0.0095  0.0121  0.0227  0.0215  0.0000  0.0000  0.0000  0.0000  0.0000 </r>
       </set>
       <set comment="band 14">
        <r>  0.0200  0.0031  0.0194  0.0805  0.0000  0.0000  0.0000  0.0000  0.0000 </r>
        <r>  0.0200  0.0031  0.0194  0.0805  0.0000  0.0000  0.0000  0.0000  0.0000 </r>
       </set>
       <set comment="band 15">
        <r>  0.0485  0.0058  0.0002  0.0113  0.0000  0.0000  0.0000  0.0000  0.0000 </r>
        <r>  0.0485  0.0058  0.0002  0.0113  0.0000  0.0000  0.0000  0.0000  0.0000 </r>
       </set>
       <set comment="band 16">
        <r>  0.0002  0.0085  0.0115  0.0230  0.0000  0.0000  0.0000  0.0000  0.0000 </r>
        <r>  0.0002  0.0085  0.0115  0.0230  0.0000  0.0000  0.0000  0.0000  0.0000 </r>
       </set>
       <set comment="band 17">
        <r>  0.0070  0.0199  0.0311  0.0221  0.0000  0.0000  0.0000  0.0000  0.0000 </r>
        <r>  0.0070  0.0199  0.0311  0.0221  0.0000  0.0000  0.0000  0.0000  0.0000 </r>
       </set>
       <set comment="band 18">
        <r>  0.0006  0.0241  0.0040  0.0143  0.0000  0.0000  0.0000  0.0000  0.0000 </r>
        <r>  0.0006  0.0241  0.0040  0.0143  0.0000  0.0000  0.0000  0.0000  0.0000 </r>
       </set>
       <set comment="band 19">
        <r>  0.0000  0.0605  0.0654  0.0105  0.0000  0.0000  0.0000  0.0000  0.0000 </r>
        <r>  0.0000  0.0605  0.0654  0.0105  0.0000  0.0000  0.0000  0.0000  0.0000 </r>
       </set>
       <set comment="band 20">
        <r>  0.0208  0.0027  0.0036  0.0160  0.0000  0.0000  0.0000  0.0000  0.0000 </r>
        <r>  0.0208  0.0027  0.0036  0.0160  0.0000  0.0000  0.0000  0.0000  0.0000 </r>
       </set>
       <set comment="band 21">
        <r>  0.0052  0.0034  0.0008  0.0012  0.0000  0.0000  0.0000  0.0000  0.0000 </r>
        <r>  0.0052  0.0034  0.0008  0.0012  0.0000  0.0000  0.0000  0.0000  0.0000 </r>
       </set>
       <set comment="band 22">
        <r>  0.0333  0.0101  0.0122  0.0028  0.0000  0.0000  0.0000  0.0000  0.0000 </r>
        <r>  0.0333  0.0101  0.0122  0.0028  0.0000  0.0000  0.0000  0.0000  0.0000 </r>
       </set>
       <set comment="band 23">
        <r>  0.0000  0.0395  0.0363  0.0024  0.0000  0.0000  0.0000  0.0000  0.0000 </r>
        <r>  0.0000  0.0395  0.0363  0.0024  0.0000  0.0000  0.0000  0.0000  0.0000 </r>
       </set>
       <set comment="band 24">
        <r>  0.0369  0.0006  0.0006  0.0002  0.0000  0.0000  0.0000  0.0000  0.0000 </r>
        <r>  0.0369  0.0006  0.0006  0.0002  0.0000  0.0000  0.0000  0.0000  0.0000 </r>
       </set>
       <set comment="band 25">
        <r>  0.0024  0.0021  0.0055  0.0056  0.0000  0.0000  0.0000  0.0000  0.0000 </r>
        <r>  0.0024  0.0021  0.0055  0.0056  0.0000  0.0000  0.0000  0.0000  0.0000 </r>
       </set>
       <set comment="band 26">
        <r>  0.0026  0.0058  0.0083  0.0107  0.0000  0.0000  0.0000  0.0000  0.0000 </r>
        <r>  0.0026  0.0058  0.0083  0.0107  0.0000  0.0000  0.0000  0.0000  0.0000 </r>
       </set>
       <set comment="band 27">
        <r>  0.0006  0.0103  0.0026  0.0038  0.0000  0.0000  0.0000  0.0000  0.0000 </r>
        <r>  0.0006  0.0103  0.0026  0.0038  0.0000  0.0000  0.0000  0.0000  0.0000 </r>
       </set>
       <set comment="band 28">
        <r>  0.0130  0.0051  0.0144  0.0125  0.0000  0.0000  0.0000  0.0000  0.0000 </r>
        <r>  0.0130  0.0051  0.0144  0.0125  0.0000  0.0000  0.0000  0.0000  0.0000 </r>
       </set>
       <set comment="band 29">
        <r>  0.0402  0.0020  0.0013  0.0142  0.0000  0.0000  0.0000  0.0000  0.0000 </r>
        <r>  0.0402  0.0020  0.0013  0.0142  0.0000  0.0000  0.0000  0.0000  0.0000 </r>
       </set>
       <set comment="band 30">
        <r>  0.0008  0.0263  0.0132  0.0016  0.0000  0.0000  0.0000  0.0000  0.0000 </r>
        <r>  0.0008  0.0263  0.0132  0.0016  0.0000  0.0000  0.0000  0.0000  0.0000 </r>
       </set>
       <set comment="band 31">
        <r>  0.0114  0.0049  0.0080  0.0052  0.0000  0.0000  0.0000  0.0000  0.0000 </r>
        <r>  0.0114  0.0049  0.0080  0.0052  0.0000  0.0000  0.0000  0.0000  0.0000 </r>
       </set>
       <set comment="band 32">
        <r>  0.0000  0.0087  0.0178  0.0146  0.0000  0.0000  0.0000  0.0000  0.0000 </r>
        <r>  0.0000  0.0087  0.0178  0.0146  0.0000  0.0000  0.0000  0.0000  0.0000 </r>
       </set>
       <set comment="band 33">
        <r>  0.0015  0.0168  0.0217  0.0078  0.0000  0.0000  0.0000  0.0000  0.0000 </r>
        <r>  0.0015  0.0168  0.0217  0.0078  0.0000  0.0000  0.0000  0.0000  0.0000 </r>
       </set>
       <set comment="band 34">
        <r>  0.0039  0.0134  0.0067  0.0025  0.0000  0.0000  0.0000  0.0000  0.0000 </r>
        <r>  0.0039  0.0134  0.0067  0.0025  0.0000  0.0000  0.0000  0.0000  0.0000 </r>
       </set>
       <set comment="band 35">
        <r>  0.0009  0.0025  0.0040  0.0015  0.0000  0.0000  0.0000  0.0000  0.0000 </r>
        <r>  0.0009  0.0025  0.0040  0.0015  0.0000  0.0000  0.0000  0.0000  0.0000 </r>
       </set>
       <set comment="band 36">
        <r>  0.0022  0.0137  0.0042  0.0029  0.0000  0.0000  0.0000  0.0000  0.0000 </r>
        <r>  0.0022  0.0137  0.0042  0.0029  0.0000  0.0000  0.0000  0.0000  0.0000 </r>
       </set>
       <set comment="band 37">
        <r>  0.0065  0.0090  0.0169  0.0082  0.0000  0.0000  0.0000  0.0000  0.0000 </r>
        <r>  0.0065  0.0090  0.0169  0.0082  0.0000  0.0000  0.0000  0.0000  0.0000 </r>
       </set>
       <set comment="band 38">
        <r>  0.0048  0.0132  0.0045  0.0093  0.0000  0.0000  0.0000  0.0000  0.0000 </r>
        <r>  0.0048  0.0132  0.0045  0.0093  0.0000  0.0000  0.0000  0.0000  0.0000 </r>
       </set>
       <set comment="band 39">
        <r>  0.0038  0.0064  0.0065  0.0016  0.0000  0.0000  0.0000  0.0000  0.0000 </r>
        <r>  0.0038  0.0064  0.0065  0.0016  0.0000  0.0000  0.0000  0.0000  0.0000 </r>
       </set>
       <set comment="band 40">
        <r>  0.0057  0.0049  0.0068  0.0030  0.0000  0.0000  0.0000  0.0000  0.0000 </r>
        <r>  0.0057  0.0048  0.0069  0.0030  0.0000  0.0000  0.0000  0.0000  0.0000 </r>
       </set>
      </set>
     </set>
    </set>
   </array>
  </projected>
 </calculation>
 <structure name="finalpos" >
  <crystal>
   <varray name="basis" >
    <v>       3.32940855       0.00000000       1.92223476 </v>
    <v>       1.10980252       3.13899716       1.92223476 </v>
    <v>       0.00000000       0.00000000       3.84447050 </v>
   </varray>
   <i name="volume">     40.17857640 </i>
   <varray name="rec_basis" >
    <v>       0.30035365      -0.10619100      -0.00000000 </v>
    <v>      -0.00000000       0.31857308      -0.00000000 </v>
    <v>      -0.15017679      -0.10619102       0.26011384 </v>
   </varray>
  </crystal>
  <varray name="positions" >
   <v>       0.25000000       0.25000000       0.25000000 </v>
   <v>      -0.00000000      -0.00000000      -0.00000000 </v>
  </varray>
 </structure>
</modeling>
