 vasp.6.2.1 16May21 (build Oct 27 2021 18:14:32) complex                        
  
 executed on             LinuxIFC date 2021.11.08  17:25:15
 running on    1 total cores
 distrk:  each k-point on    1 cores,    1 groups
 distr:  one band on NCORE=   1 cores,    1 groups


--------------------------------------------------------------------------------------------------------


 INCAR:
   ALGO = Normal
   EDIFF = 1e-07
   EDIFFG = -0.001
   ENAUG = 1360.0
   ENCUT = 700
   IBRION = 2
   ISIF = 3
   ISMEAR = 0
   ISPIN = 2
   LAECHG = False
   LASPH = True
   LCHARG = False
   LELF = True
   LMIXTAU = True
   LORBIT = 11
   LREAL = False
   LVTOT = True
   LWAVE = False
   MAGMOM = 2*-0.0
   NELM = 200
   NSW = 99
   PREC = Accurate
   SIGMA = 0.05

 POTCAR:    PAW_PBE Si 05Jan2001                  
 WARNING: For LVTOT=.TRUE., VASP.5.x writes the TOTAL local potential to the
     file LOCPOT. If you want only the Hartree contributions, use LVHAR=.TRUE.
     instead. 

 POTCAR:    PAW_PBE Si 05Jan2001                  
   VRHFIN =Si: s2p2                                                                                 
   LEXCH  = PE                                                                                      
   EATOM  =   103.0669 eV,    7.5752 Ry                                                             
                                                                                                    
   TITEL  = PAW_PBE Si 05Jan2001                                                                    
   LULTRA =        F    use ultrasoft PP ?                                                          
   IUNSCR =        1    unscreen: 0-lin 1-nonlin 2-no                                               
   RPACOR =    1.500    partial core radius                                                         
   POMASS =   28.085; ZVAL   =    4.000    mass and valenz                                          
   RCORE  =    1.900    outmost cutoff radius                                                       
   RWIGS  =    2.480; RWIGS  =    1.312    wigner-seitz radius (au A)                               
   ENMAX  =  245.345; ENMIN  =  184.009 eV                                                          
   ICORE  =        2    local potential                                                             
   LCOR   =        T    correct aug charges                                                         
   LPAW   =        T    paw PP                                                                      
   EAUG   =  322.069                                                                                
   DEXC   =    0.000                                                                                
   RMAX   =    1.950    core radius for proj-oper                                                   
   RAUG   =    1.300    factor for augmentation sphere                                              
   RDEP   =    1.993    radius for radial grids                                                     
   RDEPT  =    1.837    core radius for aug-charge                                                  
                                                                                                    
   Atomic configuration                                                                             
    6 entries                                                                                       
     n  l   j            E        occ.                                                              
     1  0  0.50     -1785.8828   2.0000                                                             
     2  0  0.50      -139.4969   2.0000                                                             
     2  1  1.50       -95.5546   6.0000                                                             
     3  0  0.50       -10.8127   2.0000                                                             
     3  1  0.50        -4.0811   2.0000                                                             
     3  2  1.50        -4.0817   0.0000                                                             
   Description                                                                                      
     l       E           TYP  RCUT    TYP  RCUT                                                     
     0    -10.8127223     23  1.900                                                                 
     0     -7.6451159     23  1.900                                                                 
     1     -4.0811372     23  1.900                                                                 
     1      2.4879257     23  1.900                                                                 
     2     -4.0817478      7  1.900                                                                 
  local pseudopotential read in
  partial core-charges read in
  partial kinetic energy density read in
  atomic valenz-charges read in
  non local Contribution for L=           0  read in
    real space projection operators read in
  non local Contribution for L=           0  read in
    real space projection operators read in
  non local Contribution for L=           1  read in
    real space projection operators read in
  non local Contribution for L=           1  read in
    real space projection operators read in
    PAW grid and wavefunctions read in
 
   number of l-projection  operators is LMAX  =           4
   number of lm-projection operators is LMMAX =           8
 
  PAW_PBE Si 05Jan2001                  :
 energy of atom  1       EATOM= -103.0669
 kinetic energy error for atom=    0.0003 (will be added to EATOM!!)
 
 
 POSCAR: Si2
  positions in direct lattice
  No initial velocities read in
 exchange correlation table for  LEXCH =        8
   RHO(1)=    0.500       N(1)  =     2000
   RHO(2)=  100.500       N(2)  =     4000
 


--------------------------------------------------------------------------------------------------------


 ion  position               nearest neighbor table
   1  0.750  0.750  0.750-   2 2.38   2 2.38   2 2.38   2 2.38
   2  0.500  0.500  0.500-   1 2.38   1 2.38   1 2.38   1 2.38
 
  LATTYP: Found a face centered cubic cell.
 ALAT       =     5.5055540000
  
  Lattice vectors:
  
 A1 = (   0.0000000000,   2.7527770000,   2.7527770000)
 A2 = (   2.7527770000,   0.0000000000,   2.7527770000)
 A3 = (   2.7527770000,   2.7527770000,   0.0000000000)


Analysis of symmetry for initial positions (statically):
=====================================================================
 Subroutine PRICEL returns:
 Original cell was already a primitive cell.
 

 Routine SETGRP: Setting up the symmetry group for a 
 face centered cubic supercell.


 Subroutine GETGRP returns: Found 48 space group operations
 (whereof 24 operations were pure point group operations)
 out of a pool of 48 trial point group operations.


The static configuration has the point symmetry T_d .
 The point group associated with its full space group is O_h .


Analysis of symmetry for dynamics (positions and initial velocities):
=====================================================================
 Subroutine PRICEL returns:
 Original cell was already a primitive cell.
 

 Routine SETGRP: Setting up the symmetry group for a 
 face centered cubic supercell.


 Subroutine GETGRP returns: Found 48 space group operations
 (whereof 24 operations were pure point group operations)
 out of a pool of 48 trial point group operations.


The dynamic configuration has the point symmetry T_d .
 The point group associated with its full space group is O_h .


Analysis of structural, dynamic, and magnetic symmetry:
=====================================================================
 Subroutine PRICEL returns:
 Original cell was already a primitive cell.
 

 Routine SETGRP: Setting up the symmetry group for a 
 face centered cubic supercell.


 Subroutine GETGRP returns: Found 48 space group operations
 (whereof 24 operations were pure point group operations)
 out of a pool of 48 trial point group operations.


The overall configuration has the point symmetry T_d .
 The point group associated with its full space group is O_h .


 Subroutine INISYM returns: Found 48 space group operations
 (whereof 24 operations are pure point group operations),
 and found     1 'primitive' translations


----------------------------------------------------------------------------------------

                                     Primitive cell                                     

  volume of cell :      41.7199

  direct lattice vectors                    reciprocal lattice vectors
     0.000000000  2.752777000  2.752777000    -0.181634764  0.181634764  0.181634764
     2.752777000  0.000000000  2.752777000     0.181634764 -0.181634764  0.181634764
     2.752777000  2.752777000  0.000000000     0.181634764  0.181634764 -0.181634764

  length of vectors
     3.893014568  3.893014568  3.893014568     0.314600639  0.314600639  0.314600639

  position of ions in fractional coordinates (direct lattice)
     0.750000000  0.750000000  0.750000000
     0.500000000  0.500000000  0.500000000

  ion indices of the primitive-cell ions
   primitive index   ion index
                 1           1
                 2           2

----------------------------------------------------------------------------------------

 
 
 KPOINTS: pymatgen with grid density = 100 / numbe

Automatic generation of k-mesh.
 Grid dimensions read from file:
 generate k-points for:    3    3    3

 Generating k-lattice:

  Cartesian coordinates                     Fractional coordinates (reciprocal lattice)
    -0.060544921  0.060544921  0.060544921     0.333333333  0.000000000 -0.000000000
     0.060544921 -0.060544921  0.060544921     0.000000000  0.333333333  0.000000000
     0.060544921  0.060544921 -0.060544921    -0.000000000 -0.000000000  0.333333333

  Length of vectors
     0.104866880  0.104866880  0.104866880

  Shift w.r.t. Gamma in fractional coordinates (k-lattice)
     0.000000000  0.000000000  0.000000000

 
 Subroutine IBZKPT returns following result:
 ===========================================
 
 Found      4 irreducible k-points:
 
 Following reciprocal coordinates:
            Coordinates               Weight
  0.000000  0.000000  0.000000      1.000000
  0.333333 -0.000000  0.000000      8.000000
  0.333333  0.333333  0.000000      6.000000
 -0.333333  0.333333  0.000000     12.000000
 
 Following cartesian coordinates:
            Coordinates               Weight
  0.000000  0.000000  0.000000      1.000000
 -0.060545  0.060545  0.060545      8.000000
  0.000000  0.000000  0.121090      6.000000
  0.121090 -0.121090 -0.000000     12.000000
 


--------------------------------------------------------------------------------------------------------




 Dimension of arrays:
   k-points           NKPTS =      4   k-points in BZ     NKDIM =      4   number of bands    NBANDS=      8
   number of dos      NEDOS =    301   number of ions     NIONS =      2
   non local maximal  LDIM  =      4   non local SUM 2l+1 LMDIM =      8
   total plane-waves  NPLWV =  46656
   max r-space proj   IRMAX =      1   max aug-charges    IRDMAX=  37586
   dimension x,y,z NGX =    36 NGY =   36 NGZ =   36
   dimension x,y,z NGXF=    72 NGYF=   72 NGZF=   72
   support grid    NGXF=    72 NGYF=   72 NGZF=   72
   ions per type =               2
   NGX,Y,Z   is equivalent  to a cutoff of  15.37, 15.37, 15.37 a.u.
   NGXF,Y,Z  is equivalent  to a cutoff of  30.75, 30.75, 30.75 a.u.

 SYSTEM =  unknown system                          
 POSCAR =  Si2                                     

 Startparameter for this run:
   NWRITE =      2    write-flag & timer
   PREC   = accura    normal or accurate (medium, high low for compatibility)
   ISTART =      0    job   : 0-new  1-cont  2-samecut
   ICHARG =      2    charge: 1-file 2-atom 10-const
   ISPIN  =      2    spin polarized calculation?
   LNONCOLLINEAR =      F non collinear calculations
   LSORBIT =      F    spin-orbit coupling
   INIWAV =      1    electr: 0-lowe 1-rand  2-diag
   LASPH  =      T    aspherical Exc in radial PAW
 Electronic Relaxation 1
   ENCUT  =  700.0 eV  51.45 Ry    7.17 a.u.   8.40  8.40  8.40*2*pi/ulx,y,z
   ENINI  =  700.0     initial cutoff
   ENAUG  = 1360.0 eV  augmentation charge cutoff
   NELM   =    200;   NELMIN=  2; NELMDL= -5     # of ELM steps 
   EDIFF  = 0.1E-06   stopping-criterion for ELM
   LREAL  =      F    real-space projection
   NLSPLINE    = F    spline interpolate recip. space projectors
   LCOMPAT=      F    compatible to vasp.4.4
   GGA_COMPAT  = T    GGA compatible to vasp.4.4-vasp.4.6
   LMAXPAW     = -100 max onsite density
   LMAXMIX     =    2 max onsite mixed and CHGCAR
   VOSKOWN=      0    Vosko Wilk Nusair interpolation
   ROPT   =    0.00000
 Ionic relaxation
   EDIFFG = -.1E-02   stopping-criterion for IOM
   NSW    =     99    number of steps for IOM
   NBLOCK =      1;   KBLOCK =     99    inner block; outer block 
   IBRION =      2    ionic relax: 0-MD 1-quasi-New 2-CG
   NFREE  =      1    steps in history (QN), initial steepest desc. (CG)
   ISIF   =      3    stress and relaxation
   IWAVPR =     11    prediction:  0-non 1-charg 2-wave 3-comb
   ISYM   =      2    0-nonsym 1-usesym 2-fastsym
   LCORR  =      T    Harris-Foulkes like correction to forces

   POTIM  = 0.5000    time-step for ionic-motion
   TEIN   =    0.0    initial temperature
   TEBEG  =    0.0;   TEEND  =   0.0 temperature during run
   SMASS  =  -3.00    Nose mass-parameter (am)
   estimated Nose-frequenzy (Omega)   =  0.10E-29 period in steps = 0.13E+47 mass=  -0.346E-27a.u.
   SCALEE = 1.0000    scale energy and forces
   NPACO  =    256;   APACO  = 16.0  distance and # of slots for P.C.
   PSTRESS=    0.0 pullay stress

  Mass of Ions in am
   POMASS =  28.09
  Ionic Valenz
   ZVAL   =   4.00
  Atomic Wigner-Seitz radii
   RWIGS  =  -1.00
  virtual crystal weights 
   VCA    =   1.00
   NELECT =       8.0000    total number of electrons
   NUPDOWN=      -1.0000    fix difference up-down

 DOS related values:
   EMIN   =  10.00;   EMAX   =-10.00  energy-range for DOS
   EFERMI =   0.00
   ISMEAR =     0;   SIGMA  =   0.05  broadening in eV -4-tet -1-fermi 0-gaus

 Electronic relaxation 2 (details)
   IALGO  =     38    algorithm
   LDIAG  =      T    sub-space diagonalisation (order eigenvalues)
   LSUBROT=      F    optimize rotation matrix (better conditioning)
   TURBO    =      0    0=normal 1=particle mesh
   IRESTART =      0    0=no restart 2=restart with 2 vectors
   NREBOOT  =      0    no. of reboots
   NMIN     =      0    reboot dimension
   EREF     =   0.00    reference energy to select bands
   IMIX   =      4    mixing-type and parameters
     AMIX     =   0.40;   BMIX     =  1.00
     AMIX_MAG =   1.60;   BMIX_MAG =  1.00
     AMIN     =   0.10
     WC   =   100.;   INIMIX=   1;  MIXPRE=   1;  MAXMIX= -45

 Intra band minimization:
   WEIMIN = 0.0010     energy-eigenvalue tresh-hold
   EBREAK =  0.31E-08  absolut break condition
   DEPER  =   0.30     relativ break condition  

   TIME   =   0.40     timestep for ELM

  volume/ion in A,a.u.               =      20.86       140.77
  Fermi-wavevector in a.u.,A,eV,Ry     =   0.944040  1.783977 12.125673  0.891212
  Thomas-Fermi vector in A             =   2.071806
 
 Write flags
   LWAVE        =      F    write WAVECAR
   LDOWNSAMPLE  =      F    k-point downsampling of WAVECAR
   LCHARG       =      F    write CHGCAR
   LVTOT        =      T    write LOCPOT, total local potential
   LVHAR        =      F    write LOCPOT, Hartree potential only
   LELF         =      T    write electronic localiz. function (ELF)
   LORBIT       =     11    0 simple, 1 ext, 2 COOP (PROOUT), +10 PAW based schemes


 Dipole corrections
   LMONO  =      F    monopole corrections only (constant potential shift)
   LDIPOL =      F    correct potential (dipole corrections)
   IDIPOL =      0    1-x, 2-y, 3-z, 4-all directions 
   EPSILON=  1.0000000 bulk dielectric constant

 Exchange correlation treatment:
   GGA     =    --    GGA type
   LEXCH   =     8    internal setting for exchange type
   VOSKOWN=      0    Vosko Wilk Nusair interpolation
   LHFCALC =     F    Hartree Fock is set to
   LHFONE  =     F    Hartree Fock one center treatment
   AEXX    =    0.0000 exact exchange contribution

 Linear response parameters
   LEPSILON=     F    determine dielectric tensor
   LRPA    =     F    only Hartree local field effects (RPA)
   LNABLA  =     F    use nabla operator in PAW spheres
   LVEL    =     F    velocity operator in full k-point grid
   LINTERFAST=   F  fast interpolation
   KINTER  =     0    interpolate to denser k-point grid
   CSHIFT  =0.1000    complex shift for real part using Kramers Kronig
   OMEGAMAX=  -1.0    maximum frequency
   DEG_THRESHOLD= 0.2000000E-02 threshold for treating states as degnerate
   RTIME   =   -0.100 relaxation time in fs
  (WPLASMAI=    0.000 imaginary part of plasma frequency in eV, 0.658/RTIME)
   DFIELD  = 0.0000000 0.0000000 0.0000000 field for delta impulse in time
 
 Orbital magnetization related:
   ORBITALMAG=     F  switch on orbital magnetization
   LCHIMAG   =     F  perturbation theory with respect to B field
   DQ        =  0.001000  dq finite difference perturbation B field
   LLRAUG    =     F  two centre corrections for induced B field



--------------------------------------------------------------------------------------------------------


 conjugate gradient relaxation of ions
 charge density and potential will be updated during run
 spin polarized calculation
 Variant of blocked Davidson
 Davidson routine will perform the subspace rotation
 perform sub-space diagonalisation
    after iterative eigenvector-optimisation
 modified Broyden-mixing scheme, WC =      100.0
 initial mixing is a Kerker type mixing with AMIX =  0.4000 and BMIX =      1.0000
 Hartree-type preconditioning will be used
 using additional bands            4
 reciprocal scheme for non local part
 use partial core corrections
 calculate Harris-corrections to forces 
   (improved forces if not selfconsistent)
 use gradient corrections 
 use of overlap-Matrix (Vanderbilt PP)
 Gauss-broadening in eV      SIGMA  =   0.05


--------------------------------------------------------------------------------------------------------


  energy-cutoff  :      700.00
  volume of cell :       41.72
      direct lattice vectors                 reciprocal lattice vectors
     0.000000000  2.752777000  2.752777000    -0.181634764  0.181634764  0.181634764
     2.752777000  0.000000000  2.752777000     0.181634764 -0.181634764  0.181634764
     2.752777000  2.752777000  0.000000000     0.181634764  0.181634764 -0.181634764

  length of vectors
     3.893014568  3.893014568  3.893014568     0.314600639  0.314600639  0.314600639


 
 k-points in units of 2pi/SCALE and weight: pymatgen with grid density = 100 / numbe
   0.00000000  0.00000000  0.00000000       0.037
  -0.06054492  0.06054492  0.06054492       0.296
   0.00000000  0.00000000  0.12108984       0.222
   0.12108984 -0.12108984 -0.00000000       0.444
 
 k-points in reciprocal lattice and weights: pymatgen with grid density = 100 / numbe
   0.00000000  0.00000000  0.00000000       0.037
   0.33333333 -0.00000000  0.00000000       0.296
   0.33333333  0.33333333  0.00000000       0.222
  -0.33333333  0.33333333  0.00000000       0.444
 
 position of ions in fractional coordinates (direct lattice) 
   0.75000000  0.75000000  0.75000000
   0.50000000  0.50000000  0.50000000
 
 position of ions in cartesian coordinates  (Angst):
   4.12916550  4.12916550  4.12916550
   2.75277700  2.75277700  2.75277700
 


--------------------------------------------------------------------------------------------------------


 k-point   1 :   0.0000 0.0000 0.0000  plane waves:    1807
 k-point   2 :   0.3333-0.0000 0.0000  plane waves:    1742
 k-point   3 :   0.3333 0.3333 0.0000  plane waves:    1752
 k-point   4 :  -0.3333 0.3333 0.0000  plane waves:    1766

 maximum and minimum number of plane-waves per node :      1807     1742

 maximum number of plane-waves:      1807
 maximum index in each direction: 
   IXMAX=    8   IYMAX=    8   IZMAX=    8
   IXMIN=   -8   IYMIN=   -8   IZMIN=   -8


 serial   3D FFT for wavefunctions
 parallel 3D FFT for charge:
    minimum data exchange during FFTs selected (reduces bandwidth)


 total amount of memory used by VASP MPI-rank0    76686. kBytes
=======================================================================

   base      :      30000. kBytes
   nonl-proj :        520. kBytes
   fftplans  :      13060. kBytes
   grid      :      31228. kBytes
   one-center:         12. kBytes
   wavefun   :       1866. kBytes
 
     INWAV:  cpu time    0.0000: real time    0.0000
 Broyden mixing: mesh for mixing (old mesh)
   NGX = 17   NGY = 17   NGZ = 17
  (NGX  = 72   NGY  = 72   NGZ  = 72)
  gives a total of   4913 points

 initial charge density was supplied:
 charge density of overlapping atoms calculated
 number of electron       8.0000000 magnetization       0.0000000
 keeping initial charge density in first step


--------------------------------------------------------------------------------------------------------


 Maximum index for augmentation-charges        36273 (set IRDMAX)


--------------------------------------------------------------------------------------------------------


 First call to EWALD:  gamma=   0.511
 Maximum number of real-space cells 3x 3x 3
 Maximum number of reciprocal cells 3x 3x 3

    FEWALD:  cpu time    0.0010: real time    0.0010


--------------------------------------- Iteration      1(   1)  ---------------------------------------


    POTLOK:  cpu time    0.2726: real time    0.2788
    SETDIJ:  cpu time    0.2627: real time    0.2651
     EDDAV:  cpu time    0.2019: real time    0.2091
       DOS:  cpu time    0.0002: real time    0.0002
    --------------------------------------------
      LOOP:  cpu time    0.7375: real time    0.7533

 eigenvalue-minimisations  :   128
 total energy-change (2. order) : 0.1389447E+02  (-0.4133489E+03)
 number of electron       8.0000000 magnetization       0.0000000
 augmentation part        8.0000000 magnetization       0.0000000

 Free energy of the ion-electron system (eV)
  ---------------------------------------------------
  alpha Z        PSCENC =         3.22753832
  Ewald energy   TEWEN  =      -225.42689443
  -Hartree energ DENC   =       -11.63203046
  -exchange      EXHF   =         0.00000000
  -V(xc)+E(xc)   XCENC  =       -18.76284452
  PAW double counting   =       176.24759923     -141.06103558
  entropy T*S    EENTRO =        -0.00996220
  eigenvalues    EBANDS =        25.17884955
  atomic energy  EATOM  =       206.13324734
  Solvation  Ediel_sol  =         0.00000000
  ---------------------------------------------------
  free energy    TOTEN  =        13.89446723 eV

  energy without entropy =       13.90442944  energy(sigma->0) =       13.89944834


--------------------------------------------------------------------------------------------------------




--------------------------------------- Iteration      1(   2)  ---------------------------------------


     EDDAV:  cpu time    0.2781: real time    0.2808
       DOS:  cpu time    0.0001: real time    0.0001
    --------------------------------------------
      LOOP:  cpu time    0.2782: real time    0.2810

 eigenvalue-minimisations  :   208
 total energy-change (2. order) :-0.2393592E+02  (-0.2310639E+02)
 number of electron       8.0000000 magnetization       0.0000000
 augmentation part        8.0000000 magnetization       0.0000000

 Free energy of the ion-electron system (eV)
  ---------------------------------------------------
  alpha Z        PSCENC =         3.22753832
  Ewald energy   TEWEN  =      -225.42689443
  -Hartree energ DENC   =       -11.63203046
  -exchange      EXHF   =         0.00000000
  -V(xc)+E(xc)   XCENC  =       -18.76284452
  PAW double counting   =       176.24759923     -141.06103558
  entropy T*S    EENTRO =        -0.00000000
  eigenvalues    EBANDS =         1.23296689
  atomic energy  EATOM  =       206.13324734
  Solvation  Ediel_sol  =         0.00000000
  ---------------------------------------------------
  free energy    TOTEN  =       -10.04145322 eV

  energy without entropy =      -10.04145322  energy(sigma->0) =      -10.04145322


--------------------------------------------------------------------------------------------------------




--------------------------------------- Iteration      1(   3)  ---------------------------------------


     EDDAV:  cpu time    0.2333: real time    0.2354
       DOS:  cpu time    0.0001: real time    0.0001
    --------------------------------------------
      LOOP:  cpu time    0.2334: real time    0.2355

 eigenvalue-minimisations  :   160
 total energy-change (2. order) :-0.4139760E+00  (-0.4139760E+00)
 number of electron       8.0000000 magnetization       0.0000000
 augmentation part        8.0000000 magnetization       0.0000000

 Free energy of the ion-electron system (eV)
  ---------------------------------------------------
  alpha Z        PSCENC =         3.22753832
  Ewald energy   TEWEN  =      -225.42689443
  -Hartree energ DENC   =       -11.63203046
  -exchange      EXHF   =         0.00000000
  -V(xc)+E(xc)   XCENC  =       -18.76284452
  PAW double counting   =       176.24759923     -141.06103558
  entropy T*S    EENTRO =        -0.00000000
  eigenvalues    EBANDS =         0.81899085
  atomic energy  EATOM  =       206.13324734
  Solvation  Ediel_sol  =         0.00000000
  ---------------------------------------------------
  free energy    TOTEN  =       -10.45542926 eV

  energy without entropy =      -10.45542926  energy(sigma->0) =      -10.45542926


--------------------------------------------------------------------------------------------------------




--------------------------------------- Iteration      1(   4)  ---------------------------------------


     EDDAV:  cpu time    0.3092: real time    0.3121
       DOS:  cpu time    0.0001: real time    0.0001
    --------------------------------------------
      LOOP:  cpu time    0.3094: real time    0.3122

 eigenvalue-minimisations  :   216
 total energy-change (2. order) :-0.1632387E-02  (-0.1632387E-02)
 number of electron       8.0000000 magnetization       0.0000000
 augmentation part        8.0000000 magnetization       0.0000000

 Free energy of the ion-electron system (eV)
  ---------------------------------------------------
  alpha Z        PSCENC =         3.22753832
  Ewald energy   TEWEN  =      -225.42689443
  -Hartree energ DENC   =       -11.63203046
  -exchange      EXHF   =         0.00000000
  -V(xc)+E(xc)   XCENC  =       -18.76284452
  PAW double counting   =       176.24759923     -141.06103558
  entropy T*S    EENTRO =        -0.00000000
  eigenvalues    EBANDS =         0.81735846
  atomic energy  EATOM  =       206.13324734
  Solvation  Ediel_sol  =         0.00000000
  ---------------------------------------------------
  free energy    TOTEN  =       -10.45706165 eV

  energy without entropy =      -10.45706165  energy(sigma->0) =      -10.45706165


--------------------------------------------------------------------------------------------------------




--------------------------------------- Iteration      1(   5)  ---------------------------------------


     EDDAV:  cpu time    0.2388: real time    0.2413
       DOS:  cpu time    0.0002: real time    0.0002
    CHARGE:  cpu time    0.0465: real time    0.0473
    MIXING:  cpu time    0.0098: real time    0.0099
    --------------------------------------------
      LOOP:  cpu time    0.2953: real time    0.2987

 eigenvalue-minimisations  :   160
 total energy-change (2. order) :-0.1989652E-05  (-0.1989507E-05)
 number of electron       8.0000000 magnetization       0.0000000
 augmentation part       -0.4582644 magnetization       0.0000000

 Broyden mixing:
  rms(total) = 0.48576E+00    rms(broyden)= 0.48576E+00
  rms(prec ) = 0.10136E+01
  weight for this iteration     100.00

 Free energy of the ion-electron system (eV)
  ---------------------------------------------------
  alpha Z        PSCENC =         3.22753832
  Ewald energy   TEWEN  =      -225.42689443
  -Hartree energ DENC   =       -11.63203046
  -exchange      EXHF   =         0.00000000
  -V(xc)+E(xc)   XCENC  =       -18.76284452
  PAW double counting   =       176.24759923     -141.06103558
  entropy T*S    EENTRO =        -0.00000000
  eigenvalues    EBANDS =         0.81735647
  atomic energy  EATOM  =       206.13324734
  Solvation  Ediel_sol  =         0.00000000
  ---------------------------------------------------
  free energy    TOTEN  =       -10.45706364 eV

  energy without entropy =      -10.45706364  energy(sigma->0) =      -10.45706364


--------------------------------------------------------------------------------------------------------




--------------------------------------- Iteration      1(   6)  ---------------------------------------


    POTLOK:  cpu time    0.2734: real time    0.2765
    SETDIJ:  cpu time    0.3305: real time    0.3357
     EDDAV:  cpu time    0.2852: real time    0.2886
       DOS:  cpu time    0.0002: real time    0.0002
    CHARGE:  cpu time    0.0418: real time    0.0420
    MIXING:  cpu time    0.0104: real time    0.0178
    --------------------------------------------
      LOOP:  cpu time    0.9414: real time    0.9608

 eigenvalue-minimisations  :   176
 total energy-change (2. order) : 0.1463363E+00  (-0.9062218E-02)
 number of electron       8.0000000 magnetization      -0.0000000
 augmentation part       -0.4515909 magnetization      -0.0000025

 Broyden mixing:
  rms(total) = 0.29839E+00    rms(broyden)= 0.29839E+00
  rms(prec ) = 0.60791E+00
  weight for this iteration     100.00

 eigenvalues of (default mixing * dielectric matrix)
  average eigenvalue GAMMA=   2.5800
  2.5800

 Free energy of the ion-electron system (eV)
  ---------------------------------------------------
  alpha Z        PSCENC =         3.22753832
  Ewald energy   TEWEN  =      -225.42689443
  -Hartree energ DENC   =       -13.32165164
  -exchange      EXHF   =         0.00000000
  -V(xc)+E(xc)   XCENC  =       -18.50866470
  PAW double counting   =       366.69142694     -331.61008063
  entropy T*S    EENTRO =        -0.00000000
  eigenvalues    EBANDS =         2.50435150
  atomic energy  EATOM  =       206.13324734
  Solvation  Ediel_sol  =         0.00000000
  ---------------------------------------------------
  free energy    TOTEN  =       -10.31072730 eV

  energy without entropy =      -10.31072730  energy(sigma->0) =      -10.31072730


--------------------------------------------------------------------------------------------------------




--------------------------------------- Iteration      1(   7)  ---------------------------------------


    POTLOK:  cpu time    0.2727: real time    0.2748
    SETDIJ:  cpu time    0.2923: real time    0.2946
     EDDAV:  cpu time    0.2423: real time    0.2457
       DOS:  cpu time    0.0002: real time    0.0002
    CHARGE:  cpu time    0.0428: real time    0.0437
    MIXING:  cpu time    0.0103: real time    0.0161
    --------------------------------------------
      LOOP:  cpu time    0.8605: real time    0.8750

 eigenvalue-minimisations  :   160
 total energy-change (2. order) : 0.6649580E-01  (-0.1817789E-01)
 number of electron       8.0000000 magnetization       0.0000000
 augmentation part       -0.4432779 magnetization       0.0000041

 Broyden mixing:
  rms(total) = 0.19347E-01    rms(broyden)= 0.19347E-01
  rms(prec ) = 0.45372E-01
  weight for this iteration     100.00

 eigenvalues of (default mixing * dielectric matrix)
  average eigenvalue GAMMA=   2.0823
  1.8068  2.3578

 Free energy of the ion-electron system (eV)
  ---------------------------------------------------
  alpha Z        PSCENC =         3.22753832
  Ewald energy   TEWEN  =      -225.42689443
  -Hartree energ DENC   =       -16.19775706
  -exchange      EXHF   =         0.00000000
  -V(xc)+E(xc)   XCENC  =       -18.06657118
  PAW double counting   =       826.19227213     -791.24697639
  entropy T*S    EENTRO =        -0.00000000
  eigenvalues    EBANDS =         5.14090979
  atomic energy  EATOM  =       206.13324734
  Solvation  Ediel_sol  =         0.00000000
  ---------------------------------------------------
  free energy    TOTEN  =       -10.24423150 eV

  energy without entropy =      -10.24423150  energy(sigma->0) =      -10.24423150


--------------------------------------------------------------------------------------------------------




--------------------------------------- Iteration      1(   8)  ---------------------------------------


    POTLOK:  cpu time    0.2812: real time    0.2857
    SETDIJ:  cpu time    0.2943: real time    0.2978
     EDDAV:  cpu time    0.2568: real time    0.2628
       DOS:  cpu time    0.0002: real time    0.0001
    CHARGE:  cpu time    0.0414: real time    0.0419
    MIXING:  cpu time    0.0087: real time    0.0088
    --------------------------------------------
      LOOP:  cpu time    0.8826: real time    0.8971

 eigenvalue-minimisations  :   152
 total energy-change (2. order) :-0.2442136E-02  (-0.5240323E-03)
 number of electron       8.0000000 magnetization      -0.0000000
 augmentation part       -0.4443301 magnetization      -0.0000020

 Broyden mixing:
  rms(total) = 0.74018E-02    rms(broyden)= 0.74018E-02
  rms(prec ) = 0.15084E-01
  weight for this iteration     100.00

 eigenvalues of (default mixing * dielectric matrix)
  average eigenvalue GAMMA=   2.0385
  1.4862  2.5816  2.0475

 Free energy of the ion-electron system (eV)
  ---------------------------------------------------
  alpha Z        PSCENC =         3.22753832
  Ewald energy   TEWEN  =      -225.42689443
  -Hartree energ DENC   =       -16.14703029
  -exchange      EXHF   =         0.00000000
  -V(xc)+E(xc)   XCENC  =       -18.06522875
  PAW double counting   =       831.52905997     -796.55410498
  entropy T*S    EENTRO =        -0.00000000
  eigenvalues    EBANDS =         5.05673918
  atomic energy  EATOM  =       206.13324734
  Solvation  Ediel_sol  =         0.00000000
  ---------------------------------------------------
  free energy    TOTEN  =       -10.24667364 eV

  energy without entropy =      -10.24667364  energy(sigma->0) =      -10.24667364


--------------------------------------------------------------------------------------------------------




--------------------------------------- Iteration      1(   9)  ---------------------------------------


    POTLOK:  cpu time    0.2736: real time    0.2773
    SETDIJ:  cpu time    0.3060: real time    0.3169
     EDDAV:  cpu time    0.2842: real time    0.2924
       DOS:  cpu time    0.0001: real time    0.0001
    CHARGE:  cpu time    0.0454: real time    0.0462
    MIXING:  cpu time    0.0097: real time    0.0154
    --------------------------------------------
      LOOP:  cpu time    0.9190: real time    0.9482

 eigenvalue-minimisations  :   192
 total energy-change (2. order) :-0.4454408E-03  (-0.4626985E-04)
 number of electron       8.0000000 magnetization       0.0000000
 augmentation part       -0.4444890 magnetization      -0.0000076

 Broyden mixing:
  rms(total) = 0.58372E-02    rms(broyden)= 0.58372E-02
  rms(prec ) = 0.69665E-02
  weight for this iteration     100.00

 eigenvalues of (default mixing * dielectric matrix)
  average eigenvalue GAMMA=   1.9462
  2.9876  2.0753  2.0753  0.6468

 Free energy of the ion-electron system (eV)
  ---------------------------------------------------
  alpha Z        PSCENC =         3.22753832
  Ewald energy   TEWEN  =      -225.42689443
  -Hartree energ DENC   =       -16.20058086
  -exchange      EXHF   =         0.00000000
  -V(xc)+E(xc)   XCENC  =       -18.05577527
  PAW double counting   =       832.70124840     -797.72201350
  entropy T*S    EENTRO =        -0.00000000
  eigenvalues    EBANDS =         5.09611092
  atomic energy  EATOM  =       206.13324734
  Solvation  Ediel_sol  =         0.00000000
  ---------------------------------------------------
  free energy    TOTEN  =       -10.24711908 eV

  energy without entropy =      -10.24711908  energy(sigma->0) =      -10.24711908


--------------------------------------------------------------------------------------------------------




--------------------------------------- Iteration      1(  10)  ---------------------------------------


    POTLOK:  cpu time    0.2692: real time    0.2719
    SETDIJ:  cpu time    0.3534: real time    0.3620
     EDDAV:  cpu time    0.3135: real time    0.4244
       DOS:  cpu time    0.0002: real time    0.0001
    CHARGE:  cpu time    0.0478: real time    0.0515
    MIXING:  cpu time    0.0100: real time    0.0102
    --------------------------------------------
      LOOP:  cpu time    0.9942: real time    1.1201

 eigenvalue-minimisations  :   136
 total energy-change (2. order) :-0.4226716E-04  (-0.4450888E-05)
 number of electron       8.0000000 magnetization       0.0000000
 augmentation part       -0.4444577 magnetization       0.0000021

 Broyden mixing:
  rms(total) = 0.14999E-02    rms(broyden)= 0.14999E-02
  rms(prec ) = 0.18964E-02
  weight for this iteration     100.00

 eigenvalues of (default mixing * dielectric matrix)
  average eigenvalue GAMMA=   1.8123
  3.0356  2.2633  2.2633  0.8121  0.6871

 Free energy of the ion-electron system (eV)
  ---------------------------------------------------
  alpha Z        PSCENC =         3.22753832
  Ewald energy   TEWEN  =      -225.42689443
  -Hartree energ DENC   =       -16.21166813
  -exchange      EXHF   =         0.00000000
  -V(xc)+E(xc)   XCENC  =       -18.05511992
  PAW double counting   =       824.69249163     -789.71373904
  entropy T*S    EENTRO =        -0.00000000
  eigenvalues    EBANDS =         5.10698289
  atomic energy  EATOM  =       206.13324734
  Solvation  Ediel_sol  =         0.00000000
  ---------------------------------------------------
  free energy    TOTEN  =       -10.24716134 eV

  energy without entropy =      -10.24716134  energy(sigma->0) =      -10.24716134


--------------------------------------------------------------------------------------------------------




--------------------------------------- Iteration      1(  11)  ---------------------------------------


    POTLOK:  cpu time    0.3365: real time    0.3563
    SETDIJ:  cpu time    0.2963: real time    0.2978
     EDDAV:  cpu time    0.2494: real time    0.2506
       DOS:  cpu time    0.0001: real time    0.0001
    CHARGE:  cpu time    0.0368: real time    0.0369
    MIXING:  cpu time    0.0082: real time    0.0082
    --------------------------------------------
      LOOP:  cpu time    0.9273: real time    0.9499

 eigenvalue-minimisations  :   192
 total energy-change (2. order) :-0.4441109E-05  (-0.3696788E-06)
 number of electron       8.0000000 magnetization      -0.0000000
 augmentation part       -0.4444557 magnetization      -0.0000003

 Broyden mixing:
  rms(total) = 0.41211E-03    rms(broyden)= 0.41211E-03
  rms(prec ) = 0.53367E-03
  weight for this iteration     100.00

 eigenvalues of (default mixing * dielectric matrix)
  average eigenvalue GAMMA=   1.6816
  3.0215  2.4619  2.1478  0.9080  0.9080  0.6423

 Free energy of the ion-electron system (eV)
  ---------------------------------------------------
  alpha Z        PSCENC =         3.22753832
  Ewald energy   TEWEN  =      -225.42689443
  -Hartree energ DENC   =       -16.21297242
  -exchange      EXHF   =         0.00000000
  -V(xc)+E(xc)   XCENC  =       -18.05522655
  PAW double counting   =       822.63148262     -787.65269312
  entropy T*S    EENTRO =        -0.00000000
  eigenvalues    EBANDS =         5.10835245
  atomic energy  EATOM  =       206.13324734
  Solvation  Ediel_sol  =         0.00000000
  ---------------------------------------------------
  free energy    TOTEN  =       -10.24716579 eV

  energy without entropy =      -10.24716579  energy(sigma->0) =      -10.24716579


--------------------------------------------------------------------------------------------------------




--------------------------------------- Iteration      1(  12)  ---------------------------------------


    POTLOK:  cpu time    0.2495: real time    0.2510
    SETDIJ:  cpu time    0.2803: real time    0.2815
     EDDAV:  cpu time    0.2397: real time    0.2407
       DOS:  cpu time    0.0002: real time    0.0001
    CHARGE:  cpu time    0.0363: real time    0.0364
    MIXING:  cpu time    0.0082: real time    0.0082
    --------------------------------------------
      LOOP:  cpu time    0.8141: real time    0.8180

 eigenvalue-minimisations  :   184
 total energy-change (2. order) :-0.1090699E-06  (-0.2179692E-07)
 number of electron       8.0000000 magnetization       0.0000000
 augmentation part       -0.4444578 magnetization      -0.0000005

 Broyden mixing:
  rms(total) = 0.15235E-03    rms(broyden)= 0.15235E-03
  rms(prec ) = 0.30529E-03
  weight for this iteration     100.00

 eigenvalues of (default mixing * dielectric matrix)
  average eigenvalue GAMMA=   1.6776
  3.0267  2.4998  1.8977  1.8977  0.9652  0.8151  0.6410

 Free energy of the ion-electron system (eV)
  ---------------------------------------------------
  alpha Z        PSCENC =         3.22753832
  Ewald energy   TEWEN  =      -225.42689443
  -Hartree energ DENC   =       -16.21267989
  -exchange      EXHF   =         0.00000000
  -V(xc)+E(xc)   XCENC  =       -18.05530107
  PAW double counting   =       823.04474567     -788.06583199
  entropy T*S    EENTRO =        -0.00000000
  eigenvalues    EBANDS =         5.10801015
  atomic energy  EATOM  =       206.13324734
  Solvation  Ediel_sol  =         0.00000000
  ---------------------------------------------------
  free energy    TOTEN  =       -10.24716589 eV

  energy without entropy =      -10.24716589  energy(sigma->0) =      -10.24716589


--------------------------------------------------------------------------------------------------------




--------------------------------------- Iteration      1(  13)  ---------------------------------------


    POTLOK:  cpu time    0.2474: real time    0.2488
    SETDIJ:  cpu time    0.2777: real time    0.2789
     EDDAV:  cpu time    0.2323: real time    0.2334
       DOS:  cpu time    0.0001: real time    0.0001
    CHARGE:  cpu time    0.0358: real time    0.0359
    MIXING:  cpu time    0.0083: real time    0.0083
    --------------------------------------------
      LOOP:  cpu time    0.8016: real time    0.8055

 eigenvalue-minimisations  :   168
 total energy-change (2. order) :-0.2451059E-06  (-0.3830306E-07)
 number of electron       8.0000000 magnetization       0.0000000
 augmentation part       -0.4444523 magnetization       0.0000004

 Broyden mixing:
  rms(total) = 0.62461E-04    rms(broyden)= 0.62461E-04
  rms(prec ) = 0.68186E-04
  weight for this iteration     100.00

 eigenvalues of (default mixing * dielectric matrix)
  average eigenvalue GAMMA=   1.7420
  3.2456  2.7542  2.3531  2.3531  0.9404  0.9404  0.7124  0.6373

 Free energy of the ion-electron system (eV)
  ---------------------------------------------------
  alpha Z        PSCENC =         3.22753832
  Ewald energy   TEWEN  =      -225.42689443
  -Hartree energ DENC   =       -16.21352502
  -exchange      EXHF   =         0.00000000
  -V(xc)+E(xc)   XCENC  =       -18.05531764
  PAW double counting   =       823.31329016     -788.33435971
  entropy T*S    EENTRO =        -0.00000000
  eigenvalues    EBANDS =         5.10885484
  atomic energy  EATOM  =       206.13324734
  Solvation  Ediel_sol  =         0.00000000
  ---------------------------------------------------
  free energy    TOTEN  =       -10.24716614 eV

  energy without entropy =      -10.24716614  energy(sigma->0) =      -10.24716614


--------------------------------------------------------------------------------------------------------




--------------------------------------- Iteration      1(  14)  ---------------------------------------


    POTLOK:  cpu time    0.2488: real time    0.2497
    SETDIJ:  cpu time    0.2756: real time    0.2768
     EDDAV:  cpu time    0.2015: real time    0.2116
       DOS:  cpu time    0.0002: real time    0.0002
    --------------------------------------------
      LOOP:  cpu time    0.7261: real time    0.7383

 eigenvalue-minimisations  :   128
 total energy-change (2. order) :-0.3720260E-07  (-0.6772014E-09)
 number of electron       8.0000000 magnetization       0.0000000
 augmentation part       -0.4444523 magnetization       0.0000004

 Free energy of the ion-electron system (eV)
  ---------------------------------------------------
  alpha Z        PSCENC =         3.22753832
  Ewald energy   TEWEN  =      -225.42689443
  -Hartree energ DENC   =       -16.21368611
  -exchange      EXHF   =         0.00000000
  -V(xc)+E(xc)   XCENC  =       -18.05530503
  PAW double counting   =       823.24380690     -788.26489869
  entropy T*S    EENTRO =        -0.00000000
  eigenvalues    EBANDS =         5.10902552
  atomic energy  EATOM  =       206.13324734
  Solvation  Ediel_sol  =         0.00000000
  ---------------------------------------------------
  free energy    TOTEN  =       -10.24716618 eV

  energy without entropy =      -10.24716618  energy(sigma->0) =      -10.24716618


--------------------------------------------------------------------------------------------------------




 average (electrostatic) potential at core
  the test charge radii are     0.9892
  (the norm of the test charge is              1.0000)
       1 -83.5400       2 -83.5400
 
 
 
 E-fermi :   5.7930     XC(G=0):  -9.1803     alpha+bet :-11.4979

 Fermi energy:         5.7930442596

 spin component 1

 k-point     1 :       0.0000    0.0000    0.0000
  band No.  band energies     occupation 
      1      -6.1745      1.00000
      2       5.5242      1.00000
      3       5.5242      1.00000
      4       5.5242      1.00000
      5       8.0290      0.00000
      6       8.0290      0.00000
      7       8.0290      0.00000
      8       8.4399      0.00000

 k-point     2 :       0.3333   -0.0000    0.0000
  band No.  band energies     occupation 
      1      -4.8471      1.00000
      2       0.2943      1.00000
      3       4.5477      1.00000
      4       4.5477      1.00000
      5       7.1301      0.00000
      6       8.9777      0.00000
      7       8.9777      0.00000
      8      13.2042      0.00000

 k-point     3 :       0.3333    0.3333    0.0000
  band No.  band energies     occupation 
      1      -4.3343      1.00000
      2       0.5446      1.00000
      3       3.1815      1.00000
      4       3.1815      1.00000
      5       6.2746      0.00000
      6       7.5299      0.00000
      7      12.5899      0.00000
      8      12.5899      0.00000

 k-point     4 :      -0.3333    0.3333    0.0000
  band No.  band energies     occupation 
      1      -3.0338      1.00000
      2      -1.1500      1.00000
      3       1.2751      1.00000
      4       3.4750      1.00000
      5       7.0913      0.00000
      6      11.2583      0.00000
      7      11.8256      0.00000
      8      12.3813      0.00000
 Fermi energy:         5.7930442596

 spin component 2

 k-point     1 :       0.0000    0.0000    0.0000
  band No.  band energies     occupation 
      1      -6.1745      1.00000
      2       5.5242      1.00000
      3       5.5242      1.00000
      4       5.5242      1.00000
      5       8.0290      0.00000
      6       8.0290      0.00000
      7       8.0290      0.00000
      8       8.4399      0.00000

 k-point     2 :       0.3333   -0.0000    0.0000
  band No.  band energies     occupation 
      1      -4.8471      1.00000
      2       0.2943      1.00000
      3       4.5477      1.00000
      4       4.5477      1.00000
      5       7.1301      0.00000
      6       8.9777      0.00000
      7       8.9777      0.00000
      8      13.2042      0.00000

 k-point     3 :       0.3333    0.3333    0.0000
  band No.  band energies     occupation 
      1      -4.3343      1.00000
      2       0.5446      1.00000
      3       3.1815      1.00000
      4       3.1815      1.00000
      5       6.2746      0.00000
      6       7.5299      0.00000
      7      12.5899      0.00000
      8      12.5899      0.00000

 k-point     4 :      -0.3333    0.3333    0.0000
  band No.  band energies     occupation 
      1      -3.0338      1.00000
      2      -1.1500      1.00000
      3       1.2750      1.00000
      4       3.4750      1.00000
      5       7.0913      0.00000
      6      11.2583      0.00000
      7      11.8256      0.00000
      8      12.3813      0.00000


--------------------------------------------------------------------------------------------------------


 soft charge-density along one line, spin component           1
         0         1         2         3         4         5         6         7         8         9
 total charge-density along one line
 
 soft charge-density along one line, spin component           2
         0         1         2         3         4         5         6         7         8         9
 total charge-density along one line
 
 pseudopotential strength for first ion, spin component:           1
 18.445  25.734   0.000   0.000   0.000   0.000   0.000   0.000
 25.734  35.909   0.000   0.000   0.000   0.000   0.000   0.000
  0.000   0.000   4.182   0.000   0.000   7.793   0.000   0.000
  0.000   0.000   0.000   4.182   0.000   0.000   7.793   0.000
  0.000   0.000   0.000   0.000   4.182   0.000   0.000   7.793
  0.000   0.000   7.793   0.000   0.000  14.533   0.000   0.000
  0.000   0.000   0.000   7.793   0.000   0.000  14.533   0.000
  0.000   0.000   0.000   0.000   7.793   0.000   0.000  14.533
 pseudopotential strength for first ion, spin component:           2
 18.445  25.734  -0.000  -0.000  -0.000  -0.000  -0.000  -0.000
 25.734  35.909  -0.000  -0.000  -0.000  -0.000  -0.000  -0.000
 -0.000  -0.000   4.182   0.000   0.000   7.793   0.000   0.000
 -0.000  -0.000   0.000   4.182   0.000   0.000   7.793   0.000
 -0.000  -0.000   0.000   0.000   4.182   0.000   0.000   7.793
 -0.000  -0.000   7.793   0.000   0.000  14.533   0.000   0.000
 -0.000  -0.000   0.000   7.793   0.000   0.000  14.533   0.000
 -0.000  -0.000   0.000   0.000   7.793   0.000   0.000  14.533
 total augmentation occupancy for first ion, spin component:           1
  5.459  -2.016  -0.000   0.000   0.000  -0.000  -0.000   0.000
 -2.016   0.816   0.000  -0.000  -0.000   0.000   0.000   0.000
 -0.000   0.000   2.901   0.000  -0.000  -0.634  -0.000   0.000
 -0.000   0.000   0.000   2.901  -0.000  -0.000  -0.634   0.000
  0.000   0.000  -0.000  -0.000   2.901   0.000   0.000  -0.634
 -0.000  -0.000  -0.634  -0.000   0.000   0.148   0.000  -0.000
  0.000  -0.000  -0.000  -0.634   0.000   0.000   0.148   0.000
  0.000  -0.000   0.000   0.000  -0.634  -0.000  -0.000   0.148
 total augmentation occupancy for first ion, spin component:           2
  0.000  -0.000   0.000   0.000   0.000   0.000   0.000   0.000
 -0.000   0.000   0.000   0.000   0.000   0.000   0.000   0.000
  0.000   0.000   0.000   0.000   0.000  -0.000   0.000   0.000
  0.000   0.000   0.000   0.000  -0.000   0.000  -0.000   0.000
  0.000   0.000   0.000  -0.000   0.000   0.000   0.000  -0.000
  0.000   0.000  -0.000   0.000   0.000   0.000   0.000   0.000
  0.000   0.000   0.000  -0.000   0.000   0.000   0.000   0.000
  0.000   0.000   0.000   0.000  -0.000   0.000   0.000   0.000


------------------------ aborting loop because EDIFF is reached ----------------------------------------





 total charge

# of ion       s       p       d       tot
------------------------------------------
    1        0.718   0.957   0.000   1.675
    2        0.718   0.957   0.000   1.675
--------------------------------------------------
tot          1.436   1.914   0.000   3.350



 magnetization (x)

# of ion       s       p       d       tot
------------------------------------------
    1       -0.000  -0.000   0.000  -0.000
    2       -0.000  -0.000   0.000  -0.000
--------------------------------------------------
tot         -0.000  -0.000   0.000  -0.000
 
    CHARGE:  cpu time    0.0687: real time    0.0708
    FORLOC:  cpu time    0.0080: real time    0.0083
    FORNL :  cpu time    0.0536: real time    0.0544
    STRESS:  cpu time    0.1564: real time    0.1577
    FORCOR:  cpu time    0.2625: real time    0.2647
    FORHAR:  cpu time    0.0226: real time    0.0227
    MIXING:  cpu time    0.0079: real time    0.0080
    OFIELD:  cpu time    0.0001: real time    0.0001

  FORCE on cell =-STRESS in cart. coord.  units (eV):
  Direction    XX          YY          ZZ          XY          YZ          ZX
  --------------------------------------------------------------------------------------
  Alpha Z     3.22754     3.22754     3.22754
  Ewald     -75.14233   -75.14233   -75.14233    -0.00000     0.00000    -0.00000
  Hartree     5.40456     5.40456     5.40456     0.00000     0.00000     0.00000
  E(xc)     -25.26232   -25.26232   -25.26232     0.00000     0.00000     0.00000
  Local     -30.21066   -30.21066   -30.21066     0.00000     0.00000     0.00000
  n-local    78.28792    78.28792    72.33564     2.86768    -1.21974     1.21974
  augment   -11.30345   -11.30345   -11.30345    -0.00000    -0.00000    -0.00000
  Kinetic    58.73150    58.73150    53.48945     4.55499    -1.75269     1.75269
  Fock        0.00000     0.00000     0.00000     0.00000     0.00000     0.00000
  -------------------------------------------------------------------------------------
  Total       0.00131     0.00131     0.00131    -0.00000    -0.00000     0.00000
  in kB       0.05030     0.05030     0.05030    -0.00000    -0.00000     0.00000
  external pressure =        0.05 kB  Pullay stress =        0.00 kB


 VOLUME and BASIS-vectors are now :
 -----------------------------------------------------------------------------
  energy-cutoff  :      700.00
  volume of cell :       41.72
      direct lattice vectors                 reciprocal lattice vectors
     0.000000000  2.752777000  2.752777000    -0.181634764  0.181634764  0.181634764
     2.752777000  0.000000000  2.752777000     0.181634764 -0.181634764  0.181634764
     2.752777000  2.752777000  0.000000000     0.181634764  0.181634764 -0.181634764

  length of vectors
     3.893014568  3.893014568  3.893014568     0.314600639  0.314600639  0.314600639


 FORCES acting on ions
    electron-ion (+dipol)            ewald-force                    non-local-force                 convergence-correction
 -----------------------------------------------------------------------------------------------
   -.597E-08 -.597E-08 -.598E-08   -.207E-14 0.153E-14 -.123E-14   -.515E-16 -.793E-16 -.222E-16   -.785E-11 -.785E-11 -.785E-11
   0.597E-08 0.597E-08 0.598E-08   0.207E-14 -.138E-14 0.158E-14   0.596E-16 0.873E-16 0.324E-16   0.785E-11 0.785E-11 0.785E-11
 -----------------------------------------------------------------------------------------------
   0.367E-12 0.101E-12 0.247E-12   -.671E-17 0.147E-15 0.347E-15   0.805E-17 0.805E-17 0.102E-16   -.121E-14 0.329E-15 -.382E-14
 
 
 POSITION                                       TOTAL-FORCE (eV/Angst)
 -----------------------------------------------------------------------------------
      4.12917      4.12917      4.12917         0.000000      0.000000     -0.000000
      2.75278      2.75278      2.75278        -0.000000     -0.000000      0.000000
 -----------------------------------------------------------------------------------
    total drift:                                0.000000      0.000000      0.000000


--------------------------------------------------------------------------------------------------------



  FREE ENERGIE OF THE ION-ELECTRON SYSTEM (eV)
  ---------------------------------------------------
  free  energy   TOTEN  =       -10.24716618 eV

  energy  without entropy=      -10.24716618  energy(sigma->0) =      -10.24716618
 


--------------------------------------------------------------------------------------------------------


    POTLOK:  cpu time    0.5186: real time    0.5206


--------------------------------------------------------------------------------------------------------




--------------------------------------------------------------------------------------------------------


  
 reached required accuracy - stopping structural energy minimisation
     LOOP+:  cpu time   11.1280: real time   11.4135
    4ORBIT:  cpu time    0.0000: real time    0.0000



 total charge

# of ion       s       p       d       tot
------------------------------------------
    1        0.718   0.957   0.000   1.675
    2        0.718   0.957   0.000   1.675
--------------------------------------------------
tot          1.436   1.914   0.000   3.350



 magnetization (x)

# of ion       s       p       d       tot
------------------------------------------
    1       -0.000  -0.000   0.000  -0.000
    2       -0.000  -0.000   0.000  -0.000
--------------------------------------------------
tot         -0.000  -0.000   0.000  -0.000
 

 total amount of memory used by VASP MPI-rank0    76686. kBytes
=======================================================================

   base      :      30000. kBytes
   nonl-proj :        520. kBytes
   fftplans  :      13060. kBytes
   grid      :      31228. kBytes
   one-center:         12. kBytes
   wavefun   :       1866. kBytes
 
  
  
 General timing and accounting informations for this job:
 ========================================================
  
                  Total CPU time used (sec):       13.173
                            User time (sec):       12.148
                          System time (sec):        1.025
                         Elapsed time (sec):       13.570
  
                   Maximum memory used (kb):   117370880.
                   Average memory used (kb):          N/A
  
                          Minor page faults:       183932
                          Major page faults:         1933
                 Voluntary context switches:           20
