<?xml version="1.0" encoding="ISO-8859-1"?>
<modeling>
 <generator>
  <i name="program" type="string">vasp </i>
  <i name="version" type="string">6.2.1  </i>
  <i name="subversion" type="string">16May21 (build Oct 27 2021 18:14:32) complex                          parallel </i>
  <i name="platform" type="string">LinuxIFC </i>
  <i name="date" type="string">2021 11 08 </i>
  <i name="time" type="string">17:25:15 </i>
 </generator>
 <incar>
  <i type="string" name="PREC">Accurate</i>
  <i type="string" name="ALGO">Normal</i>
  <i type="int" name="ISPIN">     2</i>
  <i type="int" name="NELM">   200</i>
  <i type="int" name="IBRION">     2</i>
  <i name="EDIFF">      0.00000010</i>
  <i name="EDIFFG">     -0.00100000</i>
  <i type="int" name="NSW">    99</i>
  <i type="int" name="ISIF">     3</i>
  <i name="ENCUT">    700.00000000</i>
  <i name="ENAUG">   1360.00000000</i>
  <v name="MAGMOM">      0.00000000      0.00000000</v>
  <i type="logical" name="LREAL"> F  </i>
  <i type="int" name="ISMEAR">     0</i>
  <i name="SIGMA">      0.05000000</i>
  <i type="logical" name="LWAVE"> F  </i>
  <i type="logical" name="LCHARG"> F  </i>
  <i type="logical" name="LVTOT"> T  </i>
  <i type="int" name="LORBIT">    11</i>
  <i type="logical" name="LELF"> T  </i>
  <i type="logical" name="LASPH"> T  </i>
  <i type="logical" name="LAECHG"> F  </i>
  <i type="logical" name="LMIXTAU"> T  </i>
 </incar>
 <primitive_cell>
  <structure name="primitive_cell" >
   <crystal>
    <varray name="basis" >
     <v>       0.00000000       2.75277700       2.75277700 </v>
     <v>       2.75277700       0.00000000       2.75277700 </v>
     <v>       2.75277700       2.75277700       0.00000000 </v>
    </varray>
    <i name="volume">     41.71988366 </i>
    <varray name="rec_basis" >
     <v>      -0.18163476       0.18163476       0.18163476 </v>
     <v>       0.18163476      -0.18163476       0.18163476 </v>
     <v>       0.18163476       0.18163476      -0.18163476 </v>
    </varray>
   </crystal>
   <varray name="positions" >
    <v>       0.75000000       0.75000000       0.75000000 </v>
    <v>       0.50000000       0.50000000       0.50000000 </v>
   </varray>
  </structure>
  <varray name="primitive_index" >
   <v type="int" >        1 </v>
   <v type="int" >        2 </v>
  </varray>
 </primitive_cell>
 <kpoints>
  <generation param="Gamma">
   <v type="int" name="divisions">       3        3        3 </v>
   <v name="usershift">      0.00000000       0.00000000       0.00000000 </v>
   <v name="genvec1">      0.33333333       0.00000000      -0.00000000 </v>
   <v name="genvec2">      0.00000000       0.33333333       0.00000000 </v>
   <v name="genvec3">     -0.00000000      -0.00000000       0.33333333 </v>
   <v name="shift">      0.00000000       0.00000000       0.00000000 </v>
  </generation>
  <varray name="kpointlist" >
   <v>       0.00000000       0.00000000       0.00000000 </v>
   <v>       0.33333333      -0.00000000       0.00000000 </v>
   <v>       0.33333333       0.33333333       0.00000000 </v>
   <v>      -0.33333333       0.33333333       0.00000000 </v>
  </varray>
  <varray name="weights" >
   <v>       0.03703704 </v>
   <v>       0.29629630 </v>
   <v>       0.22222222 </v>
   <v>       0.44444444 </v>
  </varray>
 </kpoints>
 <parameters>
  <separator name="general" >
   <i type="string" name="SYSTEM">unknown system</i>
   <i type="logical" name="LCOMPAT"> F  </i>
  </separator>
  <separator name="electronic" >
   <i type="string" name="PREC">accura</i>
   <i name="ENMAX">    700.00000000</i>
   <i name="ENAUG">   1360.00000000</i>
   <i name="EDIFF">      0.00000010</i>
   <i type="int" name="IALGO">    38</i>
   <i type="int" name="IWAVPR">    11</i>
   <i type="int" name="NBANDS">     8</i>
   <i type="int" name="NBANDSLOW">    -1</i>
   <i type="int" name="NBANDSHIGH">    -1</i>
   <i name="NELECT">      8.00000000</i>
   <i type="int" name="TURBO">     0</i>
   <i type="int" name="IRESTART">     0</i>
   <i type="int" name="NREBOOT">     0</i>
   <i type="int" name="NMIN">     0</i>
   <i name="EREF">      0.00000000</i>
   <separator name="electronic smearing" >
    <i type="int" name="ISMEAR">     0</i>
    <i name="SIGMA">      0.05000000</i>
    <i name="KSPACING">      0.50000000</i>
    <i type="logical" name="KGAMMA"> T  </i>
    <i type="logical" name="KBLOWUP"> T  </i>
   </separator>
   <separator name="electronic projectors" >
    <i type="logical" name="LREAL"> F  </i>
    <v name="ROPT">      0.00000000</v>
    <i type="int" name="LMAXPAW">  -100</i>
    <i type="int" name="LMAXMIX">     2</i>
    <i type="logical" name="NLSPLINE"> F  </i>
   </separator>
   <separator name="electronic startup" >
    <i type="int" name="ISTART">     0</i>
    <i type="int" name="ICHARG">     2</i>
    <i type="int" name="INIWAV">     1</i>
   </separator>
   <separator name="electronic spin" >
    <i type="int" name="ISPIN">     2</i>
    <i type="logical" name="LNONCOLLINEAR"> F  </i>
    <v name="MAGMOM">      0.00000000      0.00000000</v>
    <i name="NUPDOWN">     -1.00000000</i>
    <i type="logical" name="LSORBIT"> F  </i>
    <v name="SAXIS">      0.00000000      0.00000000      1.00000000</v>
    <i type="logical" name="LSPIRAL"> F  </i>
    <v name="QSPIRAL">      0.00000000      0.00000000      0.00000000</v>
    <i type="logical" name="LZEROZ"> F  </i>
   </separator>
   <separator name="electronic exchange-correlation" >
    <i type="logical" name="LASPH"> T  </i>
    <i type="logical" name="LMETAGGA"> F  </i>
   </separator>
   <separator name="electronic convergence" >
    <i type="int" name="NELM">   200</i>
    <i type="int" name="NELMDL">    -5</i>
    <i type="int" name="NELMIN">     2</i>
    <i name="ENINI">    700.00000000</i>
    <separator name="electronic convergence detail" >
     <i type="logical" name="LDIAG"> T  </i>
     <i type="logical" name="LSUBROT"> F  </i>
     <i name="WEIMIN">      0.00100000</i>
     <i name="EBREAK">      0.00000000</i>
     <i name="DEPER">      0.30000000</i>
     <i type="int" name="NRMM">     4</i>
     <i name="TIME">      0.40000000</i>
    </separator>
   </separator>
   <separator name="electronic mixer" >
    <i name="AMIX">      0.40000000</i>
    <i name="BMIX">      1.00000000</i>
    <i name="AMIN">      0.10000000</i>
    <i name="AMIX_MAG">      1.60000000</i>
    <i name="BMIX_MAG">      1.00000000</i>
    <separator name="electronic mixer details" >
     <i type="int" name="IMIX">     4</i>
     <i type="logical" name="MIXFIRST"> F  </i>
     <i type="int" name="MAXMIX">   -45</i>
     <i name="WC">    100.00000000</i>
     <i type="int" name="INIMIX">     1</i>
     <i type="int" name="MIXPRE">     1</i>
     <i type="int" name="MREMOVE">     5</i>
    </separator>
   </separator>
   <separator name="electronic dipolcorrection" >
    <i type="logical" name="LDIPOL"> F  </i>
    <i type="logical" name="LMONO"> F  </i>
    <i type="int" name="IDIPOL">     0</i>
    <i name="EPSILON">      1.00000000</i>
    <v name="DIPOL">   -100.00000000   -100.00000000   -100.00000000</v>
    <i name="EFIELD">      0.00000000</i>
   </separator>
  </separator>
  <separator name="grids" >
   <i type="int" name="NGX">    36</i>
   <i type="int" name="NGY">    36</i>
   <i type="int" name="NGZ">    36</i>
   <i type="int" name="NGXF">    72</i>
   <i type="int" name="NGYF">    72</i>
   <i type="int" name="NGZF">    72</i>
   <i type="logical" name="ADDGRID"> F  </i>
  </separator>
  <separator name="ionic" >
   <i type="int" name="NSW">    99</i>
   <i type="int" name="IBRION">     2</i>
   <i type="int" name="MDALGO">     0</i>
   <i type="int" name="ISIF">     3</i>
   <i name="PSTRESS">      0.00000000</i>
   <i name="EDIFFG">     -0.00100000</i>
   <i type="int" name="NFREE">     1</i>
   <i name="POTIM">      0.50000000</i>
   <i name="SMASS">     -3.00000000</i>
   <i name="SCALEE">      1.00000000</i>
  </separator>
  <separator name="ionic md" >
   <i name="TEBEG">      0.00010000</i>
   <i name="TEEND">      0.00010000</i>
   <i type="int" name="NBLOCK">     1</i>
   <i type="int" name="KBLOCK">    99</i>
   <i type="int" name="NPACO">   256</i>
   <i name="APACO">     16.00000000</i>
  </separator>
  <separator name="symmetry" >
   <i type="int" name="ISYM">     2</i>
   <i name="SYMPREC">      0.00001000</i>
  </separator>
  <separator name="dos" >
   <i type="int" name="LORBIT">    11</i>
   <v name="RWIGS">     -1.00000000</v>
   <i type="int" name="NEDOS">   301</i>
   <i name="EMIN">     10.00000000</i>
   <i name="EMAX">    -10.00000000</i>
   <i name="EFERMI">      0.00000000</i>
  </separator>
  <separator name="writing" >
   <i type="int" name="NWRITE">     2</i>
   <i type="logical" name="LWAVE"> F  </i>
   <i type="logical" name="LDOWNSAMPLE"> F  </i>
   <i type="logical" name="LCHARG"> F  </i>
   <i type="logical" name="LPARD"> F  </i>
   <i type="logical" name="LVTOT"> T  </i>
   <i type="logical" name="LVHAR"> F  </i>
   <i type="logical" name="LELF"> T  </i>
   <i type="logical" name="LOPTICS"> F  </i>
   <v name="STM">      0.00000000      0.00000000      0.00000000      0.00000000      0.00000000      0.00000000      0.00000000</v>
  </separator>
  <separator name="performance" >
   <i type="int" name="NPAR">     1</i>
   <i type="int" name="NSIM">     4</i>
   <i type="int" name="NBLK">    -1</i>
   <i type="logical" name="LPLANE"> T  </i>
   <i type="logical" name="LSCALAPACK"> F  </i>
   <i type="logical" name="LSCAAWARE"> F  </i>
   <i type="logical" name="LSCALU"> F  </i>
   <i type="logical" name="LASYNC"> F  </i>
   <i type="logical" name="LORBITALREAL"> F  </i>
  </separator>
  <separator name="miscellaneous" >
   <i type="int" name="IDIOT">     3</i>
   <i type="int" name="PHON_NSTRUCT">    -1</i>
   <i type="logical" name="LMUSIC"> F  </i>
   <v name="POMASS">     28.08500000</v>
   <v name="DARWINR">      0.00000000</v>
   <v name="DARWINV">      1.00000000</v>
   <i type="logical" name="LCORR"> T  </i>
  </separator>
  <i type="logical" name="GGA_COMPAT"> T  </i>
  <i type="logical" name="LBERRY"> F  </i>
  <i type="int" name="ICORELEVEL">     0</i>
  <i type="logical" name="LDAU"> F  </i>
  <i type="int" name="I_CONSTRAINED_M">     0</i>
  <separator name="electronic exchange-correlation" >
   <i type="string" name="GGA">--</i>
   <i type="int" name="VOSKOWN">     0</i>
   <i type="logical" name="LHFCALC"> F  </i>
   <i type="string" name="PRECFOCK"></i>
   <i type="logical" name="LSYMGRAD"> F  </i>
   <i type="logical" name="LHFONE"> F  </i>
   <i type="logical" name="LRHFCALC"> F  </i>
   <i type="logical" name="LTHOMAS"> F  </i>
   <i type="logical" name="LMODELHF"> F  </i>
   <i type="logical" name="LFOCKACE"> F  </i>
   <i name="ENCUT4O">     -1.00000000</i>
   <i type="int" name="EXXOEP">     0</i>
   <i type="int" name="FOURORBIT">     0</i>
   <i name="AEXX">      0.00000000</i>
   <i name="HFALPHA">      0.00000000</i>
   <i name="MCALPHA">      0.00000000</i>
   <i name="ALDAX">      1.00000000</i>
   <i name="AGGAX">      1.00000000</i>
   <i name="ALDAC">      1.00000000</i>
   <i name="AGGAC">      1.00000000</i>
   <i type="int" name="NKREDX">     1</i>
   <i type="int" name="NKREDY">     1</i>
   <i type="int" name="NKREDZ">     1</i>
   <i type="logical" name="SHIFTRED"> F  </i>
   <i type="logical" name="ODDONLY"> F  </i>
   <i type="logical" name="EVENONLY"> F  </i>
   <i type="int" name="LMAXFOCK">     0</i>
   <i type="int" name="NMAXFOCKAE">     0</i>
   <i type="logical" name="LFOCKAEDFT"> F  </i>
   <i name="HFSCREEN">      0.00000000</i>
   <i name="HFSCREENC">      0.00000000</i>
   <i type="int" name="NBANDSGWLOW">     0</i>
  </separator>
  <separator name="vdW DFT" >
   <i type="logical" name="LUSE_VDW"> F  </i>
   <i name="Zab_VDW">     -0.84910000</i>
   <i name="PARAM1">      0.12340000</i>
   <i name="PARAM2">      1.00000000</i>
   <i name="PARAM3">      0.00000000</i>
  </separator>
  <separator name="model GW" >
   <i type="int" name="MODEL_GW">     0</i>
   <i name="MODEL_EPS0">     12.51596510</i>
   <i name="MODEL_ALPHA">      1.00000000</i>
  </separator>
  <separator name="linear response parameters" >
   <i type="logical" name="LEPSILON"> F  </i>
   <i type="logical" name="LRPA"> F  </i>
   <i type="logical" name="LNABLA"> F  </i>
   <i type="logical" name="LVEL"> F  </i>
   <i type="int" name="KINTER">     0</i>
   <i name="CSHIFT">      0.10000000</i>
   <i name="OMEGAMAX">     -1.00000000</i>
   <i name="DEG_THRESHOLD">      0.00200000</i>
   <i name="RTIME">     -0.10000000</i>
   <i name="WPLASMAI">      0.00000000</i>
   <v name="DFIELD">      0.00000000      0.00000000      0.00000000</v>
   <v name="WPLASMA">      0.00000000      0.00000000      0.00000000      0.00000000      0.00000000      0.00000000      0.00000000      0.00000000      0.00000000</v>
  </separator>
  <separator name="orbital magnetization" >
   <i type="logical" name="NUCIND"> F  </i>
   <v name="MAGPOS">      0.00000000      0.00000000      0.00000000</v>
   <i type="logical" name="LNICSALL"> T  </i>
   <i type="logical" name="ORBITALMAG"> F  </i>
   <i type="logical" name="LMAGBLOCH"> F  </i>
   <i type="logical" name="LCHIMAG"> F  </i>
   <i type="logical" name="LGAUGE"> T  </i>
   <i type="int" name="MAGATOM">     0</i>
   <v name="MAGDIPOL">      0.00000000      0.00000000      0.00000000</v>
   <v name="AVECCONST">      0.00000000      0.00000000      0.00000000</v>
  </separator>
  <separator name="response functions" >
   <i type="logical" name="LFINITE_TEMPERATURE"> F  </i>
   <i type="logical" name="LADDER"> F  </i>
   <i type="logical" name="LRPAFORCE"> F  </i>
   <i type="logical" name="LFXC"> F  </i>
   <i type="logical" name="LHARTREE"> T  </i>
   <i type="int" name="IBSE">     0</i>
   <v type="int" name="KPOINT">    -1     0     0     0</v>
   <i type="logical" name="LTCTC"> F  </i>
   <i type="logical" name="LTCTE"> F  </i>
   <i type="logical" name="LTETE"> F  </i>
   <i type="logical" name="LTRIPLET"> F  </i>
   <i type="logical" name="LFXCEPS"> F  </i>
   <i type="logical" name="LFXHEG"> F  </i>
   <i type="int" name="NATURALO">     2</i>
   <i type="logical" name="LHOLEGF"> F  </i>
   <i type="logical" name="L2ORDER"> F  </i>
   <i type="logical" name="LDMP1"> F  </i>
   <i type="logical" name="LMP2LT"> F  </i>
   <i type="logical" name="LSMP2LT"> F  </i>
   <i type="logical" name="LGWLF"> F  </i>
   <i name="ENCUTGW">     -2.00000000</i>
   <i name="ENCUTGWSOFT">     -2.00000000</i>
   <i name="ENCUTLF">     -1.00000000</i>
   <i type="logical" name="LESF_SPLINES"> F  </i>
   <i type="int" name="LMAXMP2">    -1</i>
   <i name="SCISSOR">      0.00000000</i>
   <i type="int" name="NOMEGA">     0</i>
   <i type="int" name="NOMEGAR">     0</i>
   <i type="int" name="NBANDSGW">    -1</i>
   <i type="int" name="NBANDSO">    -1</i>
   <i type="int" name="NBANDSV">    -1</i>
   <i type="int" name="NELM">   200</i>
   <i type="int" name="NELMHF">     1</i>
   <i type="int" name="DIM">     3</i>
   <i type="int" name="IESPILON">     4</i>
   <i type="int" name="ANTIRES">     0</i>
   <i name="OMEGAMAX">    -30.00000000</i>
   <i name="OMEGAMIN">    -30.00000000</i>
   <i name="OMEGATL">   -200.00000000</i>
   <i type="int" name="OMEGAGRID">     0</i>
   <i name="CSHIFT">     -0.10000000</i>
   <i type="logical" name="LSELFENERGY"> F  </i>
   <i type="logical" name="LSPECTRAL"> F  </i>
   <i type="logical" name="LSPECTRALGW"> F  </i>
   <i type="logical" name="LSINGLES"> F  </i>
   <i type="logical" name="LFERMIGW"> F  </i>
   <i type="logical" name="ODDONLYGW"> F  </i>
   <i type="logical" name="EVENONLYGW"> F  </i>
   <i type="int" name="NKREDLFX">     1</i>
   <i type="int" name="NKREDLFY">     1</i>
   <i type="int" name="NKREDLFZ">     1</i>
   <i type="int" name="MAXMEM">  2800</i>
   <i type="int" name="TELESCOPE">     0</i>
   <i type="int" name="NTAUPAR">    -1</i>
   <i type="int" name="NOMEGAPAR">    -1</i>
   <i name="DAMP_NEWTON">      0.80000001</i>
   <i name="LAMBDA">      1.00000000</i>
  </separator>
  <separator name="External order field" >
   <i name="OFIELD_KAPPA">      0.00000000</i>
   <v name="OFIELD_K">      0.00000000      0.00000000      0.00000000</v>
   <i name="OFIELD_Q6_NEAR">      0.00000000</i>
   <i name="OFIELD_Q6_FAR">      0.00000000</i>
   <i name="OFIELD_A">      0.00000000</i>
  </separator>
 </parameters>
 <atominfo>
  <atoms>       2 </atoms>
  <types>       1 </types>
  <array name="atoms" >
   <dimension dim="1">ion</dimension>
   <field type="string">element</field>
   <field type="int">atomtype</field>
   <set>
    <rc><c>Si</c><c>   1</c></rc>
    <rc><c>Si</c><c>   1</c></rc>
   </set>
  </array>
  <array name="atomtypes" >
   <dimension dim="1">type</dimension>
   <field type="int">atomspertype</field>
   <field type="string">element</field>
   <field>mass</field>
   <field>valence</field>
   <field type="string">pseudopotential</field>
   <set>
    <rc><c>   2</c><c>Si</c><c>     28.08500000</c><c>      4.00000000</c><c>  PAW_PBE Si 05Jan2001                  </c></rc>
   </set>
  </array>
 </atominfo>
 <structure name="initialpos" >
  <crystal>
   <varray name="basis" >
    <v>       0.00000000       2.75277700       2.75277700 </v>
    <v>       2.75277700       0.00000000       2.75277700 </v>
    <v>       2.75277700       2.75277700       0.00000000 </v>
   </varray>
   <i name="volume">     41.71988366 </i>
   <varray name="rec_basis" >
    <v>      -0.18163476       0.18163476       0.18163476 </v>
    <v>       0.18163476      -0.18163476       0.18163476 </v>
    <v>       0.18163476       0.18163476      -0.18163476 </v>
   </varray>
  </crystal>
  <varray name="positions" >
   <v>       0.75000000       0.75000000       0.75000000 </v>
   <v>       0.50000000       0.50000000       0.50000000 </v>
  </varray>
 </structure>
 <calculation>
  <scstep>
   <time name="dav">    0.20    0.21</time>
   <time name="total">    0.74    0.75</time>
   <energy>
    <i name="alphaZ">      3.22753832 </i>
    <i name="ewald">   -225.42689443 </i>
    <i name="hartreedc">    -11.63203046 </i>
    <i name="XCdc">    -18.76284452 </i>
    <i name="pawpsdc">    176.24759923 </i>
    <i name="pawaedc">   -141.06103558 </i>
    <i name="eentropy">     -0.00996220 </i>
    <i name="bandstr">     25.17884955 </i>
    <i name="atom">    206.13324734 </i>
    <i name="e_fr_energy">     13.89446723 </i>
    <i name="e_wo_entrp">     13.90442944 </i>
    <i name="e_0_energy">     13.89944834 </i>
   </energy>
  </scstep>
  <scstep>
   <time name="dav">    0.28    0.28</time>
   <time name="total">    0.28    0.28</time>
   <energy>
    <i name="e_fr_energy">    -10.04145322 </i>
    <i name="e_wo_entrp">    -10.04145322 </i>
    <i name="e_0_energy">    -10.04145322 </i>
   </energy>
  </scstep>
  <scstep>
   <time name="dav">    0.23    0.24</time>
   <time name="total">    0.23    0.24</time>
   <energy>
    <i name="e_fr_energy">    -10.45542926 </i>
    <i name="e_wo_entrp">    -10.45542926 </i>
    <i name="e_0_energy">    -10.45542926 </i>
   </energy>
  </scstep>
  <scstep>
   <time name="dav">    0.31    0.31</time>
   <time name="total">    0.31    0.31</time>
   <energy>
    <i name="e_fr_energy">    -10.45706165 </i>
    <i name="e_wo_entrp">    -10.45706165 </i>
    <i name="e_0_energy">    -10.45706165 </i>
   </energy>
  </scstep>
  <scstep>
   <time name="dav">    0.24    0.24</time>
   <time name="total">    0.30    0.30</time>
   <energy>
    <i name="e_fr_energy">    -10.45706364 </i>
    <i name="e_wo_entrp">    -10.45706364 </i>
    <i name="e_0_energy">    -10.45706364 </i>
   </energy>
  </scstep>
  <scstep>
   <time name="dav">    0.29    0.29</time>
   <time name="total">    0.94    0.96</time>
   <energy>
    <i name="e_fr_energy">    -10.31072730 </i>
    <i name="e_wo_entrp">    -10.31072730 </i>
    <i name="e_0_energy">    -10.31072730 </i>
   </energy>
  </scstep>
  <scstep>
   <time name="dav">    0.24    0.25</time>
   <time name="total">    0.86    0.87</time>
   <energy>
    <i name="e_fr_energy">    -10.24423150 </i>
    <i name="e_wo_entrp">    -10.24423150 </i>
    <i name="e_0_energy">    -10.24423150 </i>
   </energy>
  </scstep>
  <scstep>
   <time name="dav">    0.26    0.26</time>
   <time name="total">    0.88    0.90</time>
   <energy>
    <i name="e_fr_energy">    -10.24667364 </i>
    <i name="e_wo_entrp">    -10.24667364 </i>
    <i name="e_0_energy">    -10.24667364 </i>
   </energy>
  </scstep>
  <scstep>
   <time name="dav">    0.28    0.29</time>
   <time name="total">    0.92    0.95</time>
   <energy>
    <i name="e_fr_energy">    -10.24711908 </i>
    <i name="e_wo_entrp">    -10.24711908 </i>
    <i name="e_0_energy">    -10.24711908 </i>
   </energy>
  </scstep>
  <scstep>
   <time name="dav">    0.31    0.42</time>
   <time name="total">    0.99    1.12</time>
   <energy>
    <i name="e_fr_energy">    -10.24716134 </i>
    <i name="e_wo_entrp">    -10.24716134 </i>
    <i name="e_0_energy">    -10.24716134 </i>
   </energy>
  </scstep>
  <scstep>
   <time name="dav">    0.25    0.25</time>
   <time name="total">    0.93    0.95</time>
   <energy>
    <i name="e_fr_energy">    -10.24716579 </i>
    <i name="e_wo_entrp">    -10.24716579 </i>
    <i name="e_0_energy">    -10.24716579 </i>
   </energy>
  </scstep>
  <scstep>
   <time name="dav">    0.24    0.24</time>
   <time name="total">    0.81    0.82</time>
   <energy>
    <i name="e_fr_energy">    -10.24716589 </i>
    <i name="e_wo_entrp">    -10.24716589 </i>
    <i name="e_0_energy">    -10.24716589 </i>
   </energy>
  </scstep>
  <scstep>
   <time name="dav">    0.23    0.23</time>
   <time name="total">    0.80    0.81</time>
   <energy>
    <i name="e_fr_energy">    -10.24716614 </i>
    <i name="e_wo_entrp">    -10.24716614 </i>
    <i name="e_0_energy">    -10.24716614 </i>
   </energy>
  </scstep>
  <scstep>
   <time name="dav">    0.20    0.21</time>
   <time name="total">    0.73    0.74</time>
   <energy>
    <i name="alphaZ">      3.22753832 </i>
    <i name="ewald">   -225.42689443 </i>
    <i name="hartreedc">    -16.21368611 </i>
    <i name="XCdc">    -18.05530503 </i>
    <i name="pawpsdc">    823.24380690 </i>
    <i name="pawaedc">   -788.26489869 </i>
    <i name="eentropy">     -0.00000000 </i>
    <i name="bandstr">      5.10902552 </i>
    <i name="atom">    206.13324734 </i>
    <i name="e_fr_energy">    -10.24716618 </i>
    <i name="e_wo_entrp">    -10.24716618 </i>
    <i name="e_0_energy">    -10.24716618 </i>
   </energy>
  </scstep>
  <structure>
   <crystal>
    <varray name="basis" >
     <v>       0.00000000       2.75277700       2.75277700 </v>
     <v>       2.75277700       0.00000000       2.75277700 </v>
     <v>       2.75277700       2.75277700       0.00000000 </v>
    </varray>
    <i name="volume">     41.71988366 </i>
    <varray name="rec_basis" >
     <v>      -0.18163476       0.18163476       0.18163476 </v>
     <v>       0.18163476      -0.18163476       0.18163476 </v>
     <v>       0.18163476       0.18163476      -0.18163476 </v>
    </varray>
   </crystal>
   <varray name="positions" >
    <v>       0.75000000       0.75000000       0.75000000 </v>
    <v>       0.50000000       0.50000000       0.50000000 </v>
   </varray>
  </structure>
  <varray name="forces" >
   <v>       0.00000000       0.00000000      -0.00000000 </v>
   <v>      -0.00000000      -0.00000000       0.00000000 </v>
  </varray>
  <varray name="stress" >
   <v>       0.05029857      -0.00000000       0.00000000 </v>
   <v>      -0.00000000       0.05029857      -0.00000000 </v>
   <v>       0.00000000      -0.00000000       0.05029857 </v>
  </varray>
  <energy>
   <i name="e_fr_energy">    -10.24716618 </i>
   <i name="e_wo_entrp">    -10.24716618 </i>
   <i name="e_0_energy">    -10.24716618 </i>
  </energy>
  <time name="totalsc">   11.13   11.41</time>
  <eigenvalues>
   <array>
    <dimension dim="1">band</dimension>
    <dimension dim="2">kpoint</dimension>
    <dimension dim="3">spin</dimension>
    <field>eigene</field>
    <field>occ</field>
    <set>
     <set comment="spin 1">
      <set comment="kpoint 1">
       <r>   -6.1745    1.0000 </r>
       <r>    5.5242    1.0000 </r>
       <r>    5.5242    1.0000 </r>
       <r>    5.5242    1.0000 </r>
       <r>    8.0290    0.0000 </r>
       <r>    8.0290    0.0000 </r>
       <r>    8.0290    0.0000 </r>
       <r>    8.4399    0.0000 </r>
      </set>
      <set comment="kpoint 2">
       <r>   -4.8471    1.0000 </r>
       <r>    0.2943    1.0000 </r>
       <r>    4.5477    1.0000 </r>
       <r>    4.5477    1.0000 </r>
       <r>    7.1301    0.0000 </r>
       <r>    8.9777    0.0000 </r>
       <r>    8.9777    0.0000 </r>
       <r>   13.2042    0.0000 </r>
      </set>
      <set comment="kpoint 3">
       <r>   -4.3343    1.0000 </r>
       <r>    0.5446    1.0000 </r>
       <r>    3.1815    1.0000 </r>
       <r>    3.1815    1.0000 </r>
       <r>    6.2746    0.0000 </r>
       <r>    7.5299    0.0000 </r>
       <r>   12.5899    0.0000 </r>
       <r>   12.5899    0.0000 </r>
      </set>
      <set comment="kpoint 4">
       <r>   -3.0338    1.0000 </r>
       <r>   -1.1500    1.0000 </r>
       <r>    1.2751    1.0000 </r>
       <r>    3.4750    1.0000 </r>
       <r>    7.0913    0.0000 </r>
       <r>   11.2583    0.0000 </r>
       <r>   11.8256    0.0000 </r>
       <r>   12.3813    0.0000 </r>
      </set>
     </set>
     <set comment="spin 2">
      <set comment="kpoint 1">
       <r>   -6.1745    1.0000 </r>
       <r>    5.5242    1.0000 </r>
       <r>    5.5242    1.0000 </r>
       <r>    5.5242    1.0000 </r>
       <r>    8.0290    0.0000 </r>
       <r>    8.0290    0.0000 </r>
       <r>    8.0290    0.0000 </r>
       <r>    8.4399    0.0000 </r>
      </set>
      <set comment="kpoint 2">
       <r>   -4.8471    1.0000 </r>
       <r>    0.2943    1.0000 </r>
       <r>    4.5477    1.0000 </r>
       <r>    4.5477    1.0000 </r>
       <r>    7.1301    0.0000 </r>
       <r>    8.9777    0.0000 </r>
       <r>    8.9777    0.0000 </r>
       <r>   13.2042    0.0000 </r>
      </set>
      <set comment="kpoint 3">
       <r>   -4.3343    1.0000 </r>
       <r>    0.5446    1.0000 </r>
       <r>    3.1815    1.0000 </r>
       <r>    3.1815    1.0000 </r>
       <r>    6.2746    0.0000 </r>
       <r>    7.5299    0.0000 </r>
       <r>   12.5899    0.0000 </r>
       <r>   12.5899    0.0000 </r>
      </set>
      <set comment="kpoint 4">
       <r>   -3.0338    1.0000 </r>
       <r>   -1.1500    1.0000 </r>
       <r>    1.2750    1.0000 </r>
       <r>    3.4750    1.0000 </r>
       <r>    7.0913    0.0000 </r>
       <r>   11.2583    0.0000 </r>
       <r>   11.8256    0.0000 </r>
       <r>   12.3813    0.0000 </r>
      </set>
     </set>
    </set>
   </array>
  </eigenvalues>
  <separator name="orbital magnetization" >
   <v name="MAGDIPOLOUT">      0.00000000      0.00000000      0.00000000</v>
  </separator>
  <dos>
   <i name="efermi">      5.79304426 </i>
   <total>
    <array>
     <dimension dim="1">gridpoints</dimension>
     <dimension dim="2">spin</dimension>
     <field>energy</field>
     <field>total</field>
     <field>integrated</field>
     <set>
      <set comment="spin 1">
       <r>    -7.1435     0.0000     0.0000 </r>
       <r>    -7.0724     0.0000     0.0000 </r>
       <r>    -7.0013     0.0000     0.0000 </r>
       <r>    -6.9303     0.0000     0.0000 </r>
       <r>    -6.8592     0.0000     0.0000 </r>
       <r>    -6.7882     0.0000     0.0000 </r>
       <r>    -6.7171     0.0000     0.0000 </r>
       <r>    -6.6461     0.0000     0.0000 </r>
       <r>    -6.5750     0.0000     0.0000 </r>
       <r>    -6.5040     0.0000     0.0000 </r>
       <r>    -6.4329     0.0000     0.0000 </r>
       <r>    -6.3618     0.0000     0.0000 </r>
       <r>    -6.2908     0.0003     0.0000 </r>
       <r>    -6.2197     0.0521     0.0037 </r>
       <r>    -6.1487     0.3477     0.0284 </r>
       <r>    -6.0776     0.1196     0.0369 </r>
       <r>    -6.0066     0.0016     0.0370 </r>
       <r>    -5.9355     0.0000     0.0370 </r>
       <r>    -5.8645     0.0000     0.0370 </r>
       <r>    -5.7934     0.0000     0.0370 </r>
       <r>    -5.7224     0.0000     0.0370 </r>
       <r>    -5.6513     0.0000     0.0370 </r>
       <r>    -5.5802     0.0000     0.0370 </r>
       <r>    -5.5092     0.0000     0.0370 </r>
       <r>    -5.4381     0.0000     0.0370 </r>
       <r>    -5.3671     0.0000     0.0370 </r>
       <r>    -5.2960     0.0000     0.0370 </r>
       <r>    -5.2250     0.0000     0.0370 </r>
       <r>    -5.1539     0.0000     0.0370 </r>
       <r>    -5.0829     0.0000     0.0370 </r>
       <r>    -5.0118     0.0000     0.0370 </r>
       <r>    -4.9407     0.0169     0.0382 </r>
       <r>    -4.8697     1.0745     0.1146 </r>
       <r>    -4.7986     2.7238     0.3081 </r>
       <r>    -4.7276     0.3532     0.3332 </r>
       <r>    -4.6565     0.0015     0.3333 </r>
       <r>    -4.5855     0.0000     0.3333 </r>
       <r>    -4.5144     0.0000     0.3333 </r>
       <r>    -4.4434     0.0032     0.3336 </r>
       <r>    -4.3723     0.4390     0.3648 </r>
       <r>    -4.3012     2.1388     0.5167 </r>
       <r>    -4.2302     0.5414     0.5552 </r>
       <r>    -4.1591     0.0050     0.5556 </r>
       <r>    -4.0881     0.0000     0.5556 </r>
       <r>    -4.0170     0.0000     0.5556 </r>
       <r>    -3.9460     0.0000     0.5556 </r>
       <r>    -3.8749     0.0000     0.5556 </r>
       <r>    -3.8039     0.0000     0.5556 </r>
       <r>    -3.7328     0.0000     0.5556 </r>
       <r>    -3.6617     0.0000     0.5556 </r>
       <r>    -3.5907     0.0000     0.5556 </r>
       <r>    -3.5196     0.0000     0.5556 </r>
       <r>    -3.4486     0.0000     0.5556 </r>
       <r>    -3.3775     0.0000     0.5556 </r>
       <r>    -3.3065     0.0000     0.5556 </r>
       <r>    -3.2354     0.0000     0.5556 </r>
       <r>    -3.1644     0.0007     0.5556 </r>
       <r>    -3.0933     0.2883     0.5761 </r>
       <r>    -3.0223     3.6399     0.8347 </r>
       <r>    -2.9512     2.2652     0.9957 </r>
       <r>    -2.8801     0.0608     1.0000 </r>
       <r>    -2.8091     0.0000     1.0000 </r>
       <r>    -2.7380     0.0000     1.0000 </r>
       <r>    -2.6670     0.0000     1.0000 </r>
       <r>    -2.5959     0.0000     1.0000 </r>
       <r>    -2.5249     0.0000     1.0000 </r>
       <r>    -2.4538     0.0000     1.0000 </r>
       <r>    -2.3828     0.0000     1.0000 </r>
       <r>    -2.3117     0.0000     1.0000 </r>
       <r>    -2.2406     0.0000     1.0000 </r>
       <r>    -2.1696     0.0000     1.0000 </r>
       <r>    -2.0985     0.0000     1.0000 </r>
       <r>    -2.0275     0.0000     1.0000 </r>
       <r>    -1.9564     0.0000     1.0000 </r>
       <r>    -1.8854     0.0000     1.0000 </r>
       <r>    -1.8143     0.0000     1.0000 </r>
       <r>    -1.7433     0.0000     1.0000 </r>
       <r>    -1.6722     0.0000     1.0000 </r>
       <r>    -1.6011     0.0000     1.0000 </r>
       <r>    -1.5301     0.0000     1.0000 </r>
       <r>    -1.4590     0.0000     1.0000 </r>
       <r>    -1.3880     0.0000     1.0000 </r>
       <r>    -1.3169     0.0000     1.0000 </r>
       <r>    -1.2459     0.0209     1.0015 </r>
       <r>    -1.1748     1.4881     1.1072 </r>
       <r>    -1.1038     4.1484     1.4020 </r>
       <r>    -1.0327     0.5946     1.4442 </r>
       <r>    -0.9616     0.0028     1.4444 </r>
       <r>    -0.8906     0.0000     1.4444 </r>
       <r>    -0.8195     0.0000     1.4444 </r>
       <r>    -0.7485     0.0000     1.4444 </r>
       <r>    -0.6774     0.0000     1.4444 </r>
       <r>    -0.6064     0.0000     1.4444 </r>
       <r>    -0.5353     0.0000     1.4444 </r>
       <r>    -0.4643     0.0000     1.4444 </r>
       <r>    -0.3932     0.0000     1.4444 </r>
       <r>    -0.3222     0.0000     1.4444 </r>
       <r>    -0.2511     0.0000     1.4444 </r>
       <r>    -0.1800     0.0000     1.4444 </r>
       <r>    -0.1090     0.0000     1.4444 </r>
       <r>    -0.0379     0.0000     1.4444 </r>
       <r>     0.0331     0.0000     1.4444 </r>
       <r>     0.1042     0.0000     1.4444 </r>
       <r>     0.1752     0.0016     1.4446 </r>
       <r>     0.2463     0.3626     1.4703 </r>
       <r>     0.3173     2.7338     1.6646 </r>
       <r>     0.3884     1.0557     1.7396 </r>
       <r>     0.4595     0.0412     1.7425 </r>
       <r>     0.5305     1.0544     1.8174 </r>
       <r>     0.6016     1.8805     1.9511 </r>
       <r>     0.6726     0.1670     1.9629 </r>
       <r>     0.7437     0.0005     1.9630 </r>
       <r>     0.8147     0.0000     1.9630 </r>
       <r>     0.8858     0.0000     1.9630 </r>
       <r>     0.9568     0.0000     1.9630 </r>
       <r>     1.0279     0.0000     1.9630 </r>
       <r>     1.0990     0.0000     1.9630 </r>
       <r>     1.1700     0.0093     1.9636 </r>
       <r>     1.2411     1.0429     2.0377 </r>
       <r>     1.3121     4.2820     2.3420 </r>
       <r>     1.3832     0.9138     2.4069 </r>
       <r>     1.4542     0.0070     2.4074 </r>
       <r>     1.5253     0.0000     2.4074 </r>
       <r>     1.5963     0.0000     2.4074 </r>
       <r>     1.6674     0.0000     2.4074 </r>
       <r>     1.7385     0.0000     2.4074 </r>
       <r>     1.8095     0.0000     2.4074 </r>
       <r>     1.8806     0.0000     2.4074 </r>
       <r>     1.9516     0.0000     2.4074 </r>
       <r>     2.0227     0.0000     2.4074 </r>
       <r>     2.0937     0.0000     2.4074 </r>
       <r>     2.1648     0.0000     2.4074 </r>
       <r>     2.2358     0.0000     2.4074 </r>
       <r>     2.3069     0.0000     2.4074 </r>
       <r>     2.3779     0.0000     2.4074 </r>
       <r>     2.4490     0.0000     2.4074 </r>
       <r>     2.5201     0.0000     2.4074 </r>
       <r>     2.5911     0.0000     2.4074 </r>
       <r>     2.6622     0.0000     2.4074 </r>
       <r>     2.7332     0.0000     2.4074 </r>
       <r>     2.8043     0.0000     2.4074 </r>
       <r>     2.8753     0.0000     2.4074 </r>
       <r>     2.9464     0.0000     2.4074 </r>
       <r>     3.0174     0.0000     2.4074 </r>
       <r>     3.0885     0.0267     2.4093 </r>
       <r>     3.1596     1.6479     2.5264 </r>
       <r>     3.2306     4.0658     2.8153 </r>
       <r>     3.3017     0.5124     2.8517 </r>
       <r>     3.3727     0.0141     2.8527 </r>
       <r>     3.4438     1.1688     2.9358 </r>
       <r>     3.5148     4.2622     3.2386 </r>
       <r>     3.5859     0.8066     3.2959 </r>
       <r>     3.6569     0.0053     3.2963 </r>
       <r>     3.7280     0.0000     3.2963 </r>
       <r>     3.7991     0.0000     3.2963 </r>
       <r>     3.8701     0.0000     3.2963 </r>
       <r>     3.9412     0.0000     3.2963 </r>
       <r>     4.0122     0.0000     3.2963 </r>
       <r>     4.0833     0.0000     3.2963 </r>
       <r>     4.1543     0.0000     3.2963 </r>
       <r>     4.2254     0.0000     3.2963 </r>
       <r>     4.2964     0.0000     3.2963 </r>
       <r>     4.3675     0.0000     3.2963 </r>
       <r>     4.4386     0.0085     3.2969 </r>
       <r>     4.5096     1.1668     3.3798 </r>
       <r>     4.5807     5.7029     3.7850 </r>
       <r>     4.6517     1.4482     3.8879 </r>
       <r>     4.7228     0.0135     3.8889 </r>
       <r>     4.7938     0.0000     3.8889 </r>
       <r>     4.8649     0.0000     3.8889 </r>
       <r>     4.9359     0.0000     3.8889 </r>
       <r>     5.0070     0.0000     3.8889 </r>
       <r>     5.0781     0.0000     3.8889 </r>
       <r>     5.1491     0.0000     3.8889 </r>
       <r>     5.2202     0.0000     3.8889 </r>
       <r>     5.2912     0.0000     3.8889 </r>
       <r>     5.3623     0.0000     3.8889 </r>
       <r>     5.4333     0.0079     3.8895 </r>
       <r>     5.5044     0.4418     3.9208 </r>
       <r>     5.5754     0.9989     3.9918 </r>
       <r>     5.6465     0.1147     4.0000 </r>
       <r>     5.7175     0.0004     4.0000 </r>
       <r>     5.7886     0.0000     4.0000 </r>
       <r>     5.8597     0.0000     4.0000 </r>
       <r>     5.9307     0.0000     4.0000 </r>
       <r>     6.0018     0.0000     4.0000 </r>
       <r>     6.0728     0.0000     4.0000 </r>
       <r>     6.1439     0.0003     4.0000 </r>
       <r>     6.2149     0.1431     4.0102 </r>
       <r>     6.2860     1.8169     4.1393 </r>
       <r>     6.3570     1.1364     4.2200 </r>
       <r>     6.4281     0.0307     4.2222 </r>
       <r>     6.4992     0.0000     4.2222 </r>
       <r>     6.5702     0.0000     4.2222 </r>
       <r>     6.6413     0.0000     4.2222 </r>
       <r>     6.7123     0.0000     4.2222 </r>
       <r>     6.7834     0.0000     4.2222 </r>
       <r>     6.8544     0.0000     4.2222 </r>
       <r>     6.9255     0.0000     4.2222 </r>
       <r>     6.9965     0.0233     4.2239 </r>
       <r>     7.0676     1.7097     4.3454 </r>
       <r>     7.1387     6.4428     4.8032 </r>
       <r>     7.2097     2.1958     4.9592 </r>
       <r>     7.2808     0.0531     4.9630 </r>
       <r>     7.3518     0.0000     4.9630 </r>
       <r>     7.4229     0.0039     4.9632 </r>
       <r>     7.4939     0.4789     4.9973 </r>
       <r>     7.5650     2.1423     5.1495 </r>
       <r>     7.6360     0.4982     5.1849 </r>
       <r>     7.7071     0.0042     5.1852 </r>
       <r>     7.7782     0.0000     5.1852 </r>
       <r>     7.8492     0.0000     5.1852 </r>
       <r>     7.9203     0.0016     5.1853 </r>
       <r>     7.9913     0.2224     5.2011 </r>
       <r>     8.0624     1.0698     5.2771 </r>
       <r>     8.1334     0.2674     5.2961 </r>
       <r>     8.2045     0.0025     5.2963 </r>
       <r>     8.2755     0.0000     5.2963 </r>
       <r>     8.3466     0.0022     5.2965 </r>
       <r>     8.4176     0.1357     5.3061 </r>
       <r>     8.4887     0.3397     5.3302 </r>
       <r>     8.5598     0.0435     5.3333 </r>
       <r>     8.6308     0.0002     5.3333 </r>
       <r>     8.7019     0.0000     5.3333 </r>
       <r>     8.7729     0.0000     5.3333 </r>
       <r>     8.8440     0.0007     5.3334 </r>
       <r>     8.9150     0.3182     5.3560 </r>
       <r>     8.9861     4.6362     5.6854 </r>
       <r>     9.0571     3.2823     5.9186 </r>
       <r>     9.1282     0.1024     5.9259 </r>
       <r>     9.1993     0.0001     5.9259 </r>
       <r>     9.2703     0.0000     5.9259 </r>
       <r>     9.3414     0.0000     5.9259 </r>
       <r>     9.4124     0.0000     5.9259 </r>
       <r>     9.4835     0.0000     5.9259 </r>
       <r>     9.5545     0.0000     5.9259 </r>
       <r>     9.6256     0.0000     5.9259 </r>
       <r>     9.6966     0.0000     5.9259 </r>
       <r>     9.7677     0.0000     5.9259 </r>
       <r>     9.8388     0.0000     5.9259 </r>
       <r>     9.9098     0.0000     5.9259 </r>
       <r>     9.9809     0.0000     5.9259 </r>
       <r>    10.0519     0.0000     5.9259 </r>
       <r>    10.1230     0.0000     5.9259 </r>
       <r>    10.1940     0.0000     5.9259 </r>
       <r>    10.2651     0.0000     5.9259 </r>
       <r>    10.3361     0.0000     5.9259 </r>
       <r>    10.4072     0.0000     5.9259 </r>
       <r>    10.4783     0.0000     5.9259 </r>
       <r>    10.5493     0.0000     5.9259 </r>
       <r>    10.6204     0.0000     5.9259 </r>
       <r>    10.6914     0.0000     5.9259 </r>
       <r>    10.7625     0.0000     5.9259 </r>
       <r>    10.8335     0.0000     5.9259 </r>
       <r>    10.9046     0.0000     5.9259 </r>
       <r>    10.9756     0.0000     5.9259 </r>
       <r>    11.0467     0.0000     5.9259 </r>
       <r>    11.1177     0.0002     5.9259 </r>
       <r>    11.1888     0.1539     5.9369 </r>
       <r>    11.2599     3.0818     6.1559 </r>
       <r>    11.3309     2.8938     6.3615 </r>
       <r>    11.4020     0.1251     6.3704 </r>
       <r>    11.4730     0.0002     6.3704 </r>
       <r>    11.5441     0.0000     6.3704 </r>
       <r>    11.6151     0.0000     6.3704 </r>
       <r>    11.6862     0.0003     6.3704 </r>
       <r>    11.7572     0.1665     6.3822 </r>
       <r>    11.8283     3.1539     6.6063 </r>
       <r>    11.8994     2.8189     6.8066 </r>
       <r>    11.9704     0.1152     6.8148 </r>
       <r>    12.0415     0.0001     6.8148 </r>
       <r>    12.1125     0.0000     6.8148 </r>
       <r>    12.1836     0.0000     6.8148 </r>
       <r>    12.2546     0.0011     6.8149 </r>
       <r>    12.3257     0.3609     6.8405 </r>
       <r>    12.3967     3.8219     7.1121 </r>
       <r>    12.4678     2.0276     7.2562 </r>
       <r>    12.5389     0.5097     7.2924 </r>
       <r>    12.6099     4.0038     7.5769 </r>
       <r>    12.6810     1.7536     7.7015 </r>
       <r>    12.7520     0.0312     7.7037 </r>
       <r>    12.8231     0.0000     7.7037 </r>
       <r>    12.8941     0.0000     7.7037 </r>
       <r>    12.9652     0.0000     7.7037 </r>
       <r>    13.0362     0.0000     7.7037 </r>
       <r>    13.1073     0.0128     7.7046 </r>
       <r>    13.1784     0.9565     7.7726 </r>
       <r>    13.2494     2.7817     7.9702 </r>
       <r>    13.3205     0.4168     7.9999 </r>
       <r>    13.3915     0.0021     8.0000 </r>
       <r>    13.4626     0.0000     8.0000 </r>
       <r>    13.5336     0.0000     8.0000 </r>
       <r>    13.6047     0.0000     8.0000 </r>
       <r>    13.6757     0.0000     8.0000 </r>
       <r>    13.7468     0.0000     8.0000 </r>
       <r>    13.8178     0.0000     8.0000 </r>
       <r>    13.8889     0.0000     8.0000 </r>
       <r>    13.9600     0.0000     8.0000 </r>
       <r>    14.0310     0.0000     8.0000 </r>
       <r>    14.1021     0.0000     8.0000 </r>
       <r>    14.1731     0.0000     8.0000 </r>
      </set>
      <set comment="spin 2">
       <r>    -7.1435     0.0000     0.0000 </r>
       <r>    -7.0724     0.0000     0.0000 </r>
       <r>    -7.0013     0.0000     0.0000 </r>
       <r>    -6.9303     0.0000     0.0000 </r>
       <r>    -6.8592     0.0000     0.0000 </r>
       <r>    -6.7882     0.0000     0.0000 </r>
       <r>    -6.7171     0.0000     0.0000 </r>
       <r>    -6.6461     0.0000     0.0000 </r>
       <r>    -6.5750     0.0000     0.0000 </r>
       <r>    -6.5040     0.0000     0.0000 </r>
       <r>    -6.4329     0.0000     0.0000 </r>
       <r>    -6.3618     0.0000     0.0000 </r>
       <r>    -6.2908     0.0003     0.0000 </r>
       <r>    -6.2197     0.0521     0.0037 </r>
       <r>    -6.1487     0.3477     0.0284 </r>
       <r>    -6.0776     0.1196     0.0369 </r>
       <r>    -6.0066     0.0016     0.0370 </r>
       <r>    -5.9355     0.0000     0.0370 </r>
       <r>    -5.8645     0.0000     0.0370 </r>
       <r>    -5.7934     0.0000     0.0370 </r>
       <r>    -5.7224     0.0000     0.0370 </r>
       <r>    -5.6513     0.0000     0.0370 </r>
       <r>    -5.5802     0.0000     0.0370 </r>
       <r>    -5.5092     0.0000     0.0370 </r>
       <r>    -5.4381     0.0000     0.0370 </r>
       <r>    -5.3671     0.0000     0.0370 </r>
       <r>    -5.2960     0.0000     0.0370 </r>
       <r>    -5.2250     0.0000     0.0370 </r>
       <r>    -5.1539     0.0000     0.0370 </r>
       <r>    -5.0829     0.0000     0.0370 </r>
       <r>    -5.0118     0.0000     0.0370 </r>
       <r>    -4.9407     0.0169     0.0382 </r>
       <r>    -4.8697     1.0745     0.1146 </r>
       <r>    -4.7986     2.7238     0.3081 </r>
       <r>    -4.7276     0.3533     0.3332 </r>
       <r>    -4.6565     0.0015     0.3333 </r>
       <r>    -4.5855     0.0000     0.3333 </r>
       <r>    -4.5144     0.0000     0.3333 </r>
       <r>    -4.4434     0.0032     0.3336 </r>
       <r>    -4.3723     0.4390     0.3648 </r>
       <r>    -4.3012     2.1388     0.5167 </r>
       <r>    -4.2302     0.5414     0.5552 </r>
       <r>    -4.1591     0.0050     0.5556 </r>
       <r>    -4.0881     0.0000     0.5556 </r>
       <r>    -4.0170     0.0000     0.5556 </r>
       <r>    -3.9460     0.0000     0.5556 </r>
       <r>    -3.8749     0.0000     0.5556 </r>
       <r>    -3.8039     0.0000     0.5556 </r>
       <r>    -3.7328     0.0000     0.5556 </r>
       <r>    -3.6617     0.0000     0.5556 </r>
       <r>    -3.5907     0.0000     0.5556 </r>
       <r>    -3.5196     0.0000     0.5556 </r>
       <r>    -3.4486     0.0000     0.5556 </r>
       <r>    -3.3775     0.0000     0.5556 </r>
       <r>    -3.3065     0.0000     0.5556 </r>
       <r>    -3.2354     0.0000     0.5556 </r>
       <r>    -3.1644     0.0007     0.5556 </r>
       <r>    -3.0933     0.2883     0.5761 </r>
       <r>    -3.0223     3.6398     0.8347 </r>
       <r>    -2.9512     2.2653     0.9957 </r>
       <r>    -2.8801     0.0608     1.0000 </r>
       <r>    -2.8091     0.0000     1.0000 </r>
       <r>    -2.7380     0.0000     1.0000 </r>
       <r>    -2.6670     0.0000     1.0000 </r>
       <r>    -2.5959     0.0000     1.0000 </r>
       <r>    -2.5249     0.0000     1.0000 </r>
       <r>    -2.4538     0.0000     1.0000 </r>
       <r>    -2.3828     0.0000     1.0000 </r>
       <r>    -2.3117     0.0000     1.0000 </r>
       <r>    -2.2406     0.0000     1.0000 </r>
       <r>    -2.1696     0.0000     1.0000 </r>
       <r>    -2.0985     0.0000     1.0000 </r>
       <r>    -2.0275     0.0000     1.0000 </r>
       <r>    -1.9564     0.0000     1.0000 </r>
       <r>    -1.8854     0.0000     1.0000 </r>
       <r>    -1.8143     0.0000     1.0000 </r>
       <r>    -1.7433     0.0000     1.0000 </r>
       <r>    -1.6722     0.0000     1.0000 </r>
       <r>    -1.6011     0.0000     1.0000 </r>
       <r>    -1.5301     0.0000     1.0000 </r>
       <r>    -1.4590     0.0000     1.0000 </r>
       <r>    -1.3880     0.0000     1.0000 </r>
       <r>    -1.3169     0.0000     1.0000 </r>
       <r>    -1.2459     0.0209     1.0015 </r>
       <r>    -1.1748     1.4881     1.1072 </r>
       <r>    -1.1038     4.1484     1.4020 </r>
       <r>    -1.0327     0.5947     1.4442 </r>
       <r>    -0.9616     0.0028     1.4444 </r>
       <r>    -0.8906     0.0000     1.4444 </r>
       <r>    -0.8195     0.0000     1.4444 </r>
       <r>    -0.7485     0.0000     1.4444 </r>
       <r>    -0.6774     0.0000     1.4444 </r>
       <r>    -0.6064     0.0000     1.4444 </r>
       <r>    -0.5353     0.0000     1.4444 </r>
       <r>    -0.4643     0.0000     1.4444 </r>
       <r>    -0.3932     0.0000     1.4444 </r>
       <r>    -0.3222     0.0000     1.4444 </r>
       <r>    -0.2511     0.0000     1.4444 </r>
       <r>    -0.1800     0.0000     1.4444 </r>
       <r>    -0.1090     0.0000     1.4444 </r>
       <r>    -0.0379     0.0000     1.4444 </r>
       <r>     0.0331     0.0000     1.4444 </r>
       <r>     0.1042     0.0000     1.4444 </r>
       <r>     0.1752     0.0016     1.4446 </r>
       <r>     0.2463     0.3626     1.4703 </r>
       <r>     0.3173     2.7338     1.6646 </r>
       <r>     0.3884     1.0557     1.7396 </r>
       <r>     0.4595     0.0412     1.7425 </r>
       <r>     0.5305     1.0544     1.8174 </r>
       <r>     0.6016     1.8805     1.9511 </r>
       <r>     0.6726     0.1670     1.9629 </r>
       <r>     0.7437     0.0005     1.9630 </r>
       <r>     0.8147     0.0000     1.9630 </r>
       <r>     0.8858     0.0000     1.9630 </r>
       <r>     0.9568     0.0000     1.9630 </r>
       <r>     1.0279     0.0000     1.9630 </r>
       <r>     1.0990     0.0000     1.9630 </r>
       <r>     1.1700     0.0093     1.9636 </r>
       <r>     1.2411     1.0429     2.0377 </r>
       <r>     1.3121     4.2820     2.3420 </r>
       <r>     1.3832     0.9137     2.4069 </r>
       <r>     1.4542     0.0070     2.4074 </r>
       <r>     1.5253     0.0000     2.4074 </r>
       <r>     1.5963     0.0000     2.4074 </r>
       <r>     1.6674     0.0000     2.4074 </r>
       <r>     1.7385     0.0000     2.4074 </r>
       <r>     1.8095     0.0000     2.4074 </r>
       <r>     1.8806     0.0000     2.4074 </r>
       <r>     1.9516     0.0000     2.4074 </r>
       <r>     2.0227     0.0000     2.4074 </r>
       <r>     2.0937     0.0000     2.4074 </r>
       <r>     2.1648     0.0000     2.4074 </r>
       <r>     2.2358     0.0000     2.4074 </r>
       <r>     2.3069     0.0000     2.4074 </r>
       <r>     2.3779     0.0000     2.4074 </r>
       <r>     2.4490     0.0000     2.4074 </r>
       <r>     2.5201     0.0000     2.4074 </r>
       <r>     2.5911     0.0000     2.4074 </r>
       <r>     2.6622     0.0000     2.4074 </r>
       <r>     2.7332     0.0000     2.4074 </r>
       <r>     2.8043     0.0000     2.4074 </r>
       <r>     2.8753     0.0000     2.4074 </r>
       <r>     2.9464     0.0000     2.4074 </r>
       <r>     3.0174     0.0000     2.4074 </r>
       <r>     3.0885     0.0267     2.4093 </r>
       <r>     3.1596     1.6478     2.5264 </r>
       <r>     3.2306     4.0658     2.8153 </r>
       <r>     3.3017     0.5124     2.8517 </r>
       <r>     3.3727     0.0141     2.8527 </r>
       <r>     3.4438     1.1687     2.9357 </r>
       <r>     3.5148     4.2623     3.2386 </r>
       <r>     3.5859     0.8066     3.2959 </r>
       <r>     3.6569     0.0053     3.2963 </r>
       <r>     3.7280     0.0000     3.2963 </r>
       <r>     3.7991     0.0000     3.2963 </r>
       <r>     3.8701     0.0000     3.2963 </r>
       <r>     3.9412     0.0000     3.2963 </r>
       <r>     4.0122     0.0000     3.2963 </r>
       <r>     4.0833     0.0000     3.2963 </r>
       <r>     4.1543     0.0000     3.2963 </r>
       <r>     4.2254     0.0000     3.2963 </r>
       <r>     4.2964     0.0000     3.2963 </r>
       <r>     4.3675     0.0000     3.2963 </r>
       <r>     4.4386     0.0085     3.2969 </r>
       <r>     4.5096     1.1667     3.3798 </r>
       <r>     4.5807     5.7029     3.7850 </r>
       <r>     4.6517     1.4483     3.8879 </r>
       <r>     4.7228     0.0135     3.8889 </r>
       <r>     4.7938     0.0000     3.8889 </r>
       <r>     4.8649     0.0000     3.8889 </r>
       <r>     4.9359     0.0000     3.8889 </r>
       <r>     5.0070     0.0000     3.8889 </r>
       <r>     5.0781     0.0000     3.8889 </r>
       <r>     5.1491     0.0000     3.8889 </r>
       <r>     5.2202     0.0000     3.8889 </r>
       <r>     5.2912     0.0000     3.8889 </r>
       <r>     5.3623     0.0000     3.8889 </r>
       <r>     5.4333     0.0079     3.8895 </r>
       <r>     5.5044     0.4418     3.9208 </r>
       <r>     5.5754     0.9989     3.9918 </r>
       <r>     5.6465     0.1147     4.0000 </r>
       <r>     5.7175     0.0004     4.0000 </r>
       <r>     5.7886     0.0000     4.0000 </r>
       <r>     5.8597     0.0000     4.0000 </r>
       <r>     5.9307     0.0000     4.0000 </r>
       <r>     6.0018     0.0000     4.0000 </r>
       <r>     6.0728     0.0000     4.0000 </r>
       <r>     6.1439     0.0003     4.0000 </r>
       <r>     6.2149     0.1431     4.0102 </r>
       <r>     6.2860     1.8170     4.1393 </r>
       <r>     6.3570     1.1363     4.2200 </r>
       <r>     6.4281     0.0307     4.2222 </r>
       <r>     6.4992     0.0000     4.2222 </r>
       <r>     6.5702     0.0000     4.2222 </r>
       <r>     6.6413     0.0000     4.2222 </r>
       <r>     6.7123     0.0000     4.2222 </r>
       <r>     6.7834     0.0000     4.2222 </r>
       <r>     6.8544     0.0000     4.2222 </r>
       <r>     6.9255     0.0000     4.2222 </r>
       <r>     6.9965     0.0233     4.2239 </r>
       <r>     7.0676     1.7099     4.3454 </r>
       <r>     7.1387     6.4428     4.8032 </r>
       <r>     7.2097     2.1956     4.9592 </r>
       <r>     7.2808     0.0531     4.9630 </r>
       <r>     7.3518     0.0000     4.9630 </r>
       <r>     7.4229     0.0039     4.9632 </r>
       <r>     7.4939     0.4789     4.9973 </r>
       <r>     7.5650     2.1423     5.1495 </r>
       <r>     7.6360     0.4982     5.1849 </r>
       <r>     7.7071     0.0042     5.1852 </r>
       <r>     7.7782     0.0000     5.1852 </r>
       <r>     7.8492     0.0000     5.1852 </r>
       <r>     7.9203     0.0016     5.1853 </r>
       <r>     7.9913     0.2223     5.2011 </r>
       <r>     8.0624     1.0698     5.2771 </r>
       <r>     8.1334     0.2675     5.2961 </r>
       <r>     8.2045     0.0025     5.2963 </r>
       <r>     8.2755     0.0000     5.2963 </r>
       <r>     8.3466     0.0022     5.2965 </r>
       <r>     8.4176     0.1357     5.3061 </r>
       <r>     8.4887     0.3397     5.3302 </r>
       <r>     8.5598     0.0435     5.3333 </r>
       <r>     8.6308     0.0002     5.3333 </r>
       <r>     8.7019     0.0000     5.3333 </r>
       <r>     8.7729     0.0000     5.3333 </r>
       <r>     8.8440     0.0007     5.3334 </r>
       <r>     8.9150     0.3182     5.3560 </r>
       <r>     8.9861     4.6360     5.6854 </r>
       <r>     9.0571     3.2825     5.9186 </r>
       <r>     9.1282     0.1024     5.9259 </r>
       <r>     9.1993     0.0001     5.9259 </r>
       <r>     9.2703     0.0000     5.9259 </r>
       <r>     9.3414     0.0000     5.9259 </r>
       <r>     9.4124     0.0000     5.9259 </r>
       <r>     9.4835     0.0000     5.9259 </r>
       <r>     9.5545     0.0000     5.9259 </r>
       <r>     9.6256     0.0000     5.9259 </r>
       <r>     9.6966     0.0000     5.9259 </r>
       <r>     9.7677     0.0000     5.9259 </r>
       <r>     9.8388     0.0000     5.9259 </r>
       <r>     9.9098     0.0000     5.9259 </r>
       <r>     9.9809     0.0000     5.9259 </r>
       <r>    10.0519     0.0000     5.9259 </r>
       <r>    10.1230     0.0000     5.9259 </r>
       <r>    10.1940     0.0000     5.9259 </r>
       <r>    10.2651     0.0000     5.9259 </r>
       <r>    10.3361     0.0000     5.9259 </r>
       <r>    10.4072     0.0000     5.9259 </r>
       <r>    10.4783     0.0000     5.9259 </r>
       <r>    10.5493     0.0000     5.9259 </r>
       <r>    10.6204     0.0000     5.9259 </r>
       <r>    10.6914     0.0000     5.9259 </r>
       <r>    10.7625     0.0000     5.9259 </r>
       <r>    10.8335     0.0000     5.9259 </r>
       <r>    10.9046     0.0000     5.9259 </r>
       <r>    10.9756     0.0000     5.9259 </r>
       <r>    11.0467     0.0000     5.9259 </r>
       <r>    11.1177     0.0002     5.9259 </r>
       <r>    11.1888     0.1539     5.9369 </r>
       <r>    11.2599     3.0822     6.1559 </r>
       <r>    11.3309     2.8934     6.3615 </r>
       <r>    11.4020     0.1251     6.3704 </r>
       <r>    11.4730     0.0002     6.3704 </r>
       <r>    11.5441     0.0000     6.3704 </r>
       <r>    11.6151     0.0000     6.3704 </r>
       <r>    11.6862     0.0003     6.3704 </r>
       <r>    11.7572     0.1665     6.3822 </r>
       <r>    11.8283     3.1537     6.6063 </r>
       <r>    11.8994     2.8191     6.8066 </r>
       <r>    11.9704     0.1152     6.8148 </r>
       <r>    12.0415     0.0001     6.8148 </r>
       <r>    12.1125     0.0000     6.8148 </r>
       <r>    12.1836     0.0000     6.8148 </r>
       <r>    12.2546     0.0011     6.8149 </r>
       <r>    12.3257     0.3610     6.8405 </r>
       <r>    12.3967     3.8220     7.1121 </r>
       <r>    12.4678     2.0275     7.2562 </r>
       <r>    12.5389     0.5096     7.2924 </r>
       <r>    12.6099     4.0038     7.5769 </r>
       <r>    12.6810     1.7536     7.7015 </r>
       <r>    12.7520     0.0312     7.7037 </r>
       <r>    12.8231     0.0000     7.7037 </r>
       <r>    12.8941     0.0000     7.7037 </r>
       <r>    12.9652     0.0000     7.7037 </r>
       <r>    13.0362     0.0000     7.7037 </r>
       <r>    13.1073     0.0128     7.7046 </r>
       <r>    13.1784     0.9569     7.7726 </r>
       <r>    13.2494     2.7816     7.9703 </r>
       <r>    13.3205     0.4166     7.9999 </r>
       <r>    13.3915     0.0021     8.0000 </r>
       <r>    13.4626     0.0000     8.0000 </r>
       <r>    13.5336     0.0000     8.0000 </r>
       <r>    13.6047     0.0000     8.0000 </r>
       <r>    13.6757     0.0000     8.0000 </r>
       <r>    13.7468     0.0000     8.0000 </r>
       <r>    13.8178     0.0000     8.0000 </r>
       <r>    13.8889     0.0000     8.0000 </r>
       <r>    13.9600     0.0000     8.0000 </r>
       <r>    14.0310     0.0000     8.0000 </r>
       <r>    14.1021     0.0000     8.0000 </r>
       <r>    14.1731     0.0000     8.0000 </r>
      </set>
     </set>
    </array>
   </total>
   <partial>
    <array>
     <dimension dim="1">gridpoints</dimension>
     <dimension dim="2">spin</dimension>
     <dimension dim="3">ion</dimension>
     <field>energy</field>
     <field>    s</field>
     <field>   py</field>
     <field>   pz</field>
     <field>   px</field>
     <field>  dxy</field>
     <field>  dyz</field>
     <field>  dz2</field>
     <field>  dxz</field>
     <field>x2-y2</field>
     <set>
      <set comment="ion 1">
       <set comment="spin 1">
        <r>    -7.1435     0.0000     0.0000     0.0000     0.0000     0.0000     0.0000     0.0000     0.0000     0.0000 </r>
        <r>    -7.0724     0.0000     0.0000     0.0000     0.0000     0.0000     0.0000     0.0000     0.0000     0.0000 </r>
        <r>    -7.0013     0.0000     0.0000     0.0000     0.0000     0.0000     0.0000     0.0000     0.0000     0.0000 </r>
        <r>    -6.9303     0.0000     0.0000     0.0000     0.0000     0.0000     0.0000     0.0000     0.0000     0.0000 </r>
        <r>    -6.8592     0.0000     0.0000     0.0000     0.0000     0.0000     0.0000     0.0000     0.0000     0.0000 </r>
        <r>    -6.7882     0.0000     0.0000     0.0000     0.0000     0.0000     0.0000     0.0000     0.0000     0.0000 </r>
        <r>    -6.7171     0.0000     0.0000     0.0000     0.0000     0.0000     0.0000     0.0000     0.0000     0.0000 </r>
        <r>    -6.6461     0.0000     0.0000     0.0000     0.0000     0.0000     0.0000     0.0000     0.0000     0.0000 </r>
        <r>    -6.5750     0.0000     0.0000     0.0000     0.0000     0.0000     0.0000     0.0000     0.0000     0.0000 </r>
        <r>    -6.5040     0.0000     0.0000     0.0000     0.0000     0.0000     0.0000     0.0000     0.0000     0.0000 </r>
        <r>    -6.4329     0.0000     0.0000     0.0000     0.0000     0.0000     0.0000     0.0000     0.0000     0.0000 </r>
        <r>    -6.3618     0.0000     0.0000     0.0000     0.0000     0.0000     0.0000     0.0000     0.0000     0.0000 </r>
        <r>    -6.2908     0.0001     0.0000     0.0000     0.0000     0.0000     0.0000     0.0000     0.0000     0.0000 </r>
        <r>    -6.2197     0.0109     0.0000     0.0000     0.0000     0.0000     0.0000     0.0000     0.0000     0.0000 </r>
        <r>    -6.1487     0.0730     0.0000     0.0000     0.0000     0.0000     0.0000     0.0000     0.0000     0.0000 </r>
        <r>    -6.0776     0.0251     0.0000     0.0000     0.0000     0.0000     0.0000     0.0000     0.0000     0.0000 </r>
        <r>    -6.0066     0.0003     0.0000     0.0000     0.0000     0.0000     0.0000     0.0000     0.0000     0.0000 </r>
        <r>    -5.9355     0.0000     0.0000     0.0000     0.0000     0.0000     0.0000     0.0000     0.0000     0.0000 </r>
        <r>    -5.8645     0.0000     0.0000     0.0000     0.0000     0.0000     0.0000     0.0000     0.0000     0.0000 </r>
        <r>    -5.7934     0.0000     0.0000     0.0000     0.0000     0.0000     0.0000     0.0000     0.0000     0.0000 </r>
        <r>    -5.7224     0.0000     0.0000     0.0000     0.0000     0.0000     0.0000     0.0000     0.0000     0.0000 </r>
        <r>    -5.6513     0.0000     0.0000     0.0000     0.0000     0.0000     0.0000     0.0000     0.0000     0.0000 </r>
        <r>    -5.5802     0.0000     0.0000     0.0000     0.0000     0.0000     0.0000     0.0000     0.0000     0.0000 </r>
        <r>    -5.5092     0.0000     0.0000     0.0000     0.0000     0.0000     0.0000     0.0000     0.0000     0.0000 </r>
        <r>    -5.4381     0.0000     0.0000     0.0000     0.0000     0.0000     0.0000     0.0000     0.0000     0.0000 </r>
        <r>    -5.3671     0.0000     0.0000     0.0000     0.0000     0.0000     0.0000     0.0000     0.0000     0.0000 </r>
        <r>    -5.2960     0.0000     0.0000     0.0000     0.0000     0.0000     0.0000     0.0000     0.0000     0.0000 </r>
        <r>    -5.2250     0.0000     0.0000     0.0000     0.0000     0.0000     0.0000     0.0000     0.0000     0.0000 </r>
        <r>    -5.1539     0.0000     0.0000     0.0000     0.0000     0.0000     0.0000     0.0000     0.0000     0.0000 </r>
        <r>    -5.0829     0.0000     0.0000     0.0000     0.0000     0.0000     0.0000     0.0000     0.0000     0.0000 </r>
        <r>    -5.0118     0.0000     0.0000     0.0000     0.0000     0.0000     0.0000     0.0000     0.0000     0.0000 </r>
        <r>    -4.9407     0.0035     0.0001     0.0001     0.0001     0.0000     0.0000     0.0000     0.0000     0.0000 </r>
        <r>    -4.8697     0.2236     0.0042     0.0042     0.0042     0.0000     0.0000     0.0000     0.0000     0.0000 </r>
        <r>    -4.7986     0.5668     0.0107     0.0107     0.0107     0.0000     0.0000     0.0000     0.0000     0.0000 </r>
        <r>    -4.7276     0.0735     0.0014     0.0014     0.0014     0.0000     0.0000     0.0000     0.0000     0.0000 </r>
        <r>    -4.6565     0.0003     0.0000     0.0000     0.0000     0.0000     0.0000     0.0000     0.0000     0.0000 </r>
        <r>    -4.5855     0.0000     0.0000     0.0000     0.0000     0.0000     0.0000     0.0000     0.0000     0.0000 </r>
        <r>    -4.5144     0.0000     0.0000     0.0000     0.0000     0.0000     0.0000     0.0000     0.0000     0.0000 </r>
        <r>    -4.4434     0.0006     0.0000     0.0000     0.0000     0.0000     0.0000     0.0000     0.0000     0.0000 </r>
        <r>    -4.3723     0.0885     0.0028     0.0028     0.0028     0.0000     0.0000     0.0000     0.0000     0.0000 </r>
        <r>    -4.3012     0.4313     0.0139     0.0139     0.0139     0.0000     0.0000     0.0000     0.0000     0.0000 </r>
        <r>    -4.2302     0.1092     0.0035     0.0035     0.0035     0.0000     0.0000     0.0000     0.0000     0.0000 </r>
        <r>    -4.1591     0.0010     0.0000     0.0000     0.0000     0.0000     0.0000     0.0000     0.0000     0.0000 </r>
        <r>    -4.0881     0.0000     0.0000     0.0000     0.0000     0.0000     0.0000     0.0000     0.0000     0.0000 </r>
        <r>    -4.0170     0.0000     0.0000     0.0000     0.0000     0.0000     0.0000     0.0000     0.0000     0.0000 </r>
        <r>    -3.9460     0.0000     0.0000     0.0000     0.0000     0.0000     0.0000     0.0000     0.0000     0.0000 </r>
        <r>    -3.8749     0.0000     0.0000     0.0000     0.0000     0.0000     0.0000     0.0000     0.0000     0.0000 </r>
        <r>    -3.8039     0.0000     0.0000     0.0000     0.0000     0.0000     0.0000     0.0000     0.0000     0.0000 </r>
        <r>    -3.7328     0.0000     0.0000     0.0000     0.0000     0.0000     0.0000     0.0000     0.0000     0.0000 </r>
        <r>    -3.6617     0.0000     0.0000     0.0000     0.0000     0.0000     0.0000     0.0000     0.0000     0.0000 </r>
        <r>    -3.5907     0.0000     0.0000     0.0000     0.0000     0.0000     0.0000     0.0000     0.0000     0.0000 </r>
        <r>    -3.5196     0.0000     0.0000     0.0000     0.0000     0.0000     0.0000     0.0000     0.0000     0.0000 </r>
        <r>    -3.4486     0.0000     0.0000     0.0000     0.0000     0.0000     0.0000     0.0000     0.0000     0.0000 </r>
        <r>    -3.3775     0.0000     0.0000     0.0000     0.0000     0.0000     0.0000     0.0000     0.0000     0.0000 </r>
        <r>    -3.3065     0.0000     0.0000     0.0000     0.0000     0.0000     0.0000     0.0000     0.0000     0.0000 </r>
        <r>    -3.2354     0.0000     0.0000     0.0000     0.0000     0.0000     0.0000     0.0000     0.0000     0.0000 </r>
        <r>    -3.1644     0.0001     0.0000     0.0000     0.0000     0.0000     0.0000     0.0000     0.0000     0.0000 </r>
        <r>    -3.0933     0.0611     0.0025     0.0025     0.0025     0.0000     0.0000     0.0000     0.0000     0.0000 </r>
        <r>    -3.0223     0.7710     0.0317     0.0317     0.0317     0.0000     0.0000     0.0000     0.0000     0.0000 </r>
        <r>    -2.9512     0.4798     0.0197     0.0197     0.0197     0.0000     0.0000     0.0000     0.0000     0.0000 </r>
        <r>    -2.8801     0.0129     0.0005     0.0005     0.0005     0.0000     0.0000     0.0000     0.0000     0.0000 </r>
        <r>    -2.8091     0.0000     0.0000     0.0000     0.0000     0.0000     0.0000     0.0000     0.0000     0.0000 </r>
        <r>    -2.7380     0.0000     0.0000     0.0000     0.0000     0.0000     0.0000     0.0000     0.0000     0.0000 </r>
        <r>    -2.6670     0.0000     0.0000     0.0000     0.0000     0.0000     0.0000     0.0000     0.0000     0.0000 </r>
        <r>    -2.5959     0.0000     0.0000     0.0000     0.0000     0.0000     0.0000     0.0000     0.0000     0.0000 </r>
        <r>    -2.5249     0.0000     0.0000     0.0000     0.0000     0.0000     0.0000     0.0000     0.0000     0.0000 </r>
        <r>    -2.4538     0.0000     0.0000     0.0000     0.0000     0.0000     0.0000     0.0000     0.0000     0.0000 </r>
        <r>    -2.3828     0.0000     0.0000     0.0000     0.0000     0.0000     0.0000     0.0000     0.0000     0.0000 </r>
        <r>    -2.3117     0.0000     0.0000     0.0000     0.0000     0.0000     0.0000     0.0000     0.0000     0.0000 </r>
        <r>    -2.2406     0.0000     0.0000     0.0000     0.0000     0.0000     0.0000     0.0000     0.0000     0.0000 </r>
        <r>    -2.1696     0.0000     0.0000     0.0000     0.0000     0.0000     0.0000     0.0000     0.0000     0.0000 </r>
        <r>    -2.0985     0.0000     0.0000     0.0000     0.0000     0.0000     0.0000     0.0000     0.0000     0.0000 </r>
        <r>    -2.0275     0.0000     0.0000     0.0000     0.0000     0.0000     0.0000     0.0000     0.0000     0.0000 </r>
        <r>    -1.9564     0.0000     0.0000     0.0000     0.0000     0.0000     0.0000     0.0000     0.0000     0.0000 </r>
        <r>    -1.8854     0.0000     0.0000     0.0000     0.0000     0.0000     0.0000     0.0000     0.0000     0.0000 </r>
        <r>    -1.8143     0.0000     0.0000     0.0000     0.0000     0.0000     0.0000     0.0000     0.0000     0.0000 </r>
        <r>    -1.7433     0.0000     0.0000     0.0000     0.0000     0.0000     0.0000     0.0000     0.0000     0.0000 </r>
        <r>    -1.6722     0.0000     0.0000     0.0000     0.0000     0.0000     0.0000     0.0000     0.0000     0.0000 </r>
        <r>    -1.6011     0.0000     0.0000     0.0000     0.0000     0.0000     0.0000     0.0000     0.0000     0.0000 </r>
        <r>    -1.5301     0.0000     0.0000     0.0000     0.0000     0.0000     0.0000     0.0000     0.0000     0.0000 </r>
        <r>    -1.4590     0.0000     0.0000     0.0000     0.0000     0.0000     0.0000     0.0000     0.0000     0.0000 </r>
        <r>    -1.3880     0.0000     0.0000     0.0000     0.0000     0.0000     0.0000     0.0000     0.0000     0.0000 </r>
        <r>    -1.3169     0.0000     0.0000     0.0000     0.0000     0.0000     0.0000     0.0000     0.0000     0.0000 </r>
        <r>    -1.2459     0.0037     0.0004     0.0004     0.0004     0.0000     0.0000     0.0000     0.0000     0.0000 </r>
        <r>    -1.1748     0.2622     0.0293     0.0293     0.0293     0.0000     0.0000     0.0000     0.0000     0.0000 </r>
        <r>    -1.1038     0.7309     0.0816     0.0816     0.0816     0.0000     0.0000     0.0000     0.0000     0.0000 </r>
        <r>    -1.0327     0.1048     0.0117     0.0117     0.0117     0.0000     0.0000     0.0000     0.0000     0.0000 </r>
        <r>    -0.9616     0.0005     0.0001     0.0001     0.0001     0.0000     0.0000     0.0000     0.0000     0.0000 </r>
        <r>    -0.8906     0.0000     0.0000     0.0000     0.0000     0.0000     0.0000     0.0000     0.0000     0.0000 </r>
        <r>    -0.8195     0.0000     0.0000     0.0000     0.0000     0.0000     0.0000     0.0000     0.0000     0.0000 </r>
        <r>    -0.7485     0.0000     0.0000     0.0000     0.0000     0.0000     0.0000     0.0000     0.0000     0.0000 </r>
        <r>    -0.6774     0.0000     0.0000     0.0000     0.0000     0.0000     0.0000     0.0000     0.0000     0.0000 </r>
        <r>    -0.6064     0.0000     0.0000     0.0000     0.0000     0.0000     0.0000     0.0000     0.0000     0.0000 </r>
        <r>    -0.5353     0.0000     0.0000     0.0000     0.0000     0.0000     0.0000     0.0000     0.0000     0.0000 </r>
        <r>    -0.4643     0.0000     0.0000     0.0000     0.0000     0.0000     0.0000     0.0000     0.0000     0.0000 </r>
        <r>    -0.3932     0.0000     0.0000     0.0000     0.0000     0.0000     0.0000     0.0000     0.0000     0.0000 </r>
        <r>    -0.3222     0.0000     0.0000     0.0000     0.0000     0.0000     0.0000     0.0000     0.0000     0.0000 </r>
        <r>    -0.2511     0.0000     0.0000     0.0000     0.0000     0.0000     0.0000     0.0000     0.0000     0.0000 </r>
        <r>    -0.1800     0.0000     0.0000     0.0000     0.0000     0.0000     0.0000     0.0000     0.0000     0.0000 </r>
        <r>    -0.1090     0.0000     0.0000     0.0000     0.0000     0.0000     0.0000     0.0000     0.0000     0.0000 </r>
        <r>    -0.0379     0.0000     0.0000     0.0000     0.0000     0.0000     0.0000     0.0000     0.0000     0.0000 </r>
        <r>     0.0331     0.0000     0.0000     0.0000     0.0000     0.0000     0.0000     0.0000     0.0000     0.0000 </r>
        <r>     0.1042     0.0000     0.0000     0.0000     0.0000     0.0000     0.0000     0.0000     0.0000     0.0000 </r>
        <r>     0.1752     0.0002     0.0001     0.0001     0.0001     0.0000     0.0000     0.0000     0.0000     0.0000 </r>
        <r>     0.2463     0.0389     0.0120     0.0120     0.0120     0.0000     0.0000     0.0000     0.0000     0.0000 </r>
        <r>     0.3173     0.2934     0.0901     0.0901     0.0901     0.0000     0.0000     0.0000     0.0000     0.0000 </r>
        <r>     0.3884     0.1133     0.0348     0.0348     0.0348     0.0000     0.0000     0.0000     0.0000     0.0000 </r>
        <r>     0.4595     0.0061     0.0011     0.0011     0.0011     0.0000     0.0000     0.0000     0.0000     0.0000 </r>
        <r>     0.5305     0.1850     0.0259     0.0259     0.0259     0.0000     0.0000     0.0000     0.0000     0.0000 </r>
        <r>     0.6016     0.3300     0.0462     0.0462     0.0462     0.0000     0.0000     0.0000     0.0000     0.0000 </r>
        <r>     0.6726     0.0293     0.0041     0.0041     0.0041     0.0000     0.0000     0.0000     0.0000     0.0000 </r>
        <r>     0.7437     0.0001     0.0000     0.0000     0.0000     0.0000     0.0000     0.0000     0.0000     0.0000 </r>
        <r>     0.8147     0.0000     0.0000     0.0000     0.0000     0.0000     0.0000     0.0000     0.0000     0.0000 </r>
        <r>     0.8858     0.0000     0.0000     0.0000     0.0000     0.0000     0.0000     0.0000     0.0000     0.0000 </r>
        <r>     0.9568     0.0000     0.0000     0.0000     0.0000     0.0000     0.0000     0.0000     0.0000     0.0000 </r>
        <r>     1.0279     0.0000     0.0000     0.0000     0.0000     0.0000     0.0000     0.0000     0.0000     0.0000 </r>
        <r>     1.0990     0.0000     0.0000     0.0000     0.0000     0.0000     0.0000     0.0000     0.0000     0.0000 </r>
        <r>     1.1700     0.0000     0.0005     0.0005     0.0005     0.0000     0.0000     0.0000     0.0000     0.0000 </r>
        <r>     1.2411     0.0035     0.0516     0.0516     0.0516     0.0000     0.0000     0.0000     0.0000     0.0000 </r>
        <r>     1.3121     0.0143     0.2119     0.2119     0.2119     0.0000     0.0000     0.0000     0.0000     0.0000 </r>
        <r>     1.3832     0.0030     0.0452     0.0452     0.0452     0.0000     0.0000     0.0000     0.0000     0.0000 </r>
        <r>     1.4542     0.0000     0.0003     0.0003     0.0003     0.0000     0.0000     0.0000     0.0000     0.0000 </r>
        <r>     1.5253     0.0000     0.0000     0.0000     0.0000     0.0000     0.0000     0.0000     0.0000     0.0000 </r>
        <r>     1.5963     0.0000     0.0000     0.0000     0.0000     0.0000     0.0000     0.0000     0.0000     0.0000 </r>
        <r>     1.6674     0.0000     0.0000     0.0000     0.0000     0.0000     0.0000     0.0000     0.0000     0.0000 </r>
        <r>     1.7385     0.0000     0.0000     0.0000     0.0000     0.0000     0.0000     0.0000     0.0000     0.0000 </r>
        <r>     1.8095     0.0000     0.0000     0.0000     0.0000     0.0000     0.0000     0.0000     0.0000     0.0000 </r>
        <r>     1.8806     0.0000     0.0000     0.0000     0.0000     0.0000     0.0000     0.0000     0.0000     0.0000 </r>
        <r>     1.9516     0.0000     0.0000     0.0000     0.0000     0.0000     0.0000     0.0000     0.0000     0.0000 </r>
        <r>     2.0227     0.0000     0.0000     0.0000     0.0000     0.0000     0.0000     0.0000     0.0000     0.0000 </r>
        <r>     2.0937     0.0000     0.0000     0.0000     0.0000     0.0000     0.0000     0.0000     0.0000     0.0000 </r>
        <r>     2.1648     0.0000     0.0000     0.0000     0.0000     0.0000     0.0000     0.0000     0.0000     0.0000 </r>
        <r>     2.2358     0.0000     0.0000     0.0000     0.0000     0.0000     0.0000     0.0000     0.0000     0.0000 </r>
        <r>     2.3069     0.0000     0.0000     0.0000     0.0000     0.0000     0.0000     0.0000     0.0000     0.0000 </r>
        <r>     2.3779     0.0000     0.0000     0.0000     0.0000     0.0000     0.0000     0.0000     0.0000     0.0000 </r>
        <r>     2.4490     0.0000     0.0000     0.0000     0.0000     0.0000     0.0000     0.0000     0.0000     0.0000 </r>
        <r>     2.5201     0.0000     0.0000     0.0000     0.0000     0.0000     0.0000     0.0000     0.0000     0.0000 </r>
        <r>     2.5911     0.0000     0.0000     0.0000     0.0000     0.0000     0.0000     0.0000     0.0000     0.0000 </r>
        <r>     2.6622     0.0000     0.0000     0.0000     0.0000     0.0000     0.0000     0.0000     0.0000     0.0000 </r>
        <r>     2.7332     0.0000     0.0000     0.0000     0.0000     0.0000     0.0000     0.0000     0.0000     0.0000 </r>
        <r>     2.8043     0.0000     0.0000     0.0000     0.0000     0.0000     0.0000     0.0000     0.0000     0.0000 </r>
        <r>     2.8753     0.0000     0.0000     0.0000     0.0000     0.0000     0.0000     0.0000     0.0000     0.0000 </r>
        <r>     2.9464     0.0000     0.0000     0.0000     0.0000     0.0000     0.0000     0.0000     0.0000     0.0000 </r>
        <r>     3.0174     0.0000     0.0000     0.0000     0.0000     0.0000     0.0000     0.0000     0.0000     0.0000 </r>
        <r>     3.0885     0.0000     0.0017     0.0017     0.0017     0.0000     0.0000     0.0000     0.0000     0.0000 </r>
        <r>     3.1596     0.0000     0.1056     0.1056     0.1056     0.0000     0.0000     0.0000     0.0000     0.0000 </r>
        <r>     3.2306     0.0000     0.2605     0.2605     0.2605     0.0000     0.0000     0.0000     0.0000     0.0000 </r>
        <r>     3.3017     0.0000     0.0328     0.0328     0.0328     0.0000     0.0000     0.0000     0.0000     0.0000 </r>
        <r>     3.3727     0.0000     0.0009     0.0009     0.0009     0.0000     0.0000     0.0000     0.0000     0.0000 </r>
        <r>     3.4438     0.0000     0.0770     0.0770     0.0770     0.0000     0.0000     0.0000     0.0000     0.0000 </r>
        <r>     3.5148     0.0000     0.2808     0.2808     0.2808     0.0000     0.0000     0.0000     0.0000     0.0000 </r>
        <r>     3.5859     0.0000     0.0531     0.0531     0.0531     0.0000     0.0000     0.0000     0.0000     0.0000 </r>
        <r>     3.6569     0.0000     0.0004     0.0004     0.0004     0.0000     0.0000     0.0000     0.0000     0.0000 </r>
        <r>     3.7280     0.0000     0.0000     0.0000     0.0000     0.0000     0.0000     0.0000     0.0000     0.0000 </r>
        <r>     3.7991     0.0000     0.0000     0.0000     0.0000     0.0000     0.0000     0.0000     0.0000     0.0000 </r>
        <r>     3.8701     0.0000     0.0000     0.0000     0.0000     0.0000     0.0000     0.0000     0.0000     0.0000 </r>
        <r>     3.9412     0.0000     0.0000     0.0000     0.0000     0.0000     0.0000     0.0000     0.0000     0.0000 </r>
        <r>     4.0122     0.0000     0.0000     0.0000     0.0000     0.0000     0.0000     0.0000     0.0000     0.0000 </r>
        <r>     4.0833     0.0000     0.0000     0.0000     0.0000     0.0000     0.0000     0.0000     0.0000     0.0000 </r>
        <r>     4.1543     0.0000     0.0000     0.0000     0.0000     0.0000     0.0000     0.0000     0.0000     0.0000 </r>
        <r>     4.2254     0.0000     0.0000     0.0000     0.0000     0.0000     0.0000     0.0000     0.0000     0.0000 </r>
        <r>     4.2964     0.0000     0.0000     0.0000     0.0000     0.0000     0.0000     0.0000     0.0000     0.0000 </r>
        <r>     4.3675     0.0000     0.0000     0.0000     0.0000     0.0000     0.0000     0.0000     0.0000     0.0000 </r>
        <r>     4.4386     0.0000     0.0006     0.0006     0.0006     0.0000     0.0000     0.0000     0.0000     0.0000 </r>
        <r>     4.5096     0.0000     0.0816     0.0816     0.0816     0.0000     0.0000     0.0000     0.0000     0.0000 </r>
        <r>     4.5807     0.0000     0.3991     0.3991     0.3991     0.0000     0.0000     0.0000     0.0000     0.0000 </r>
        <r>     4.6517     0.0000     0.1013     0.1013     0.1013     0.0000     0.0000     0.0000     0.0000     0.0000 </r>
        <r>     4.7228     0.0000     0.0009     0.0009     0.0009     0.0000     0.0000     0.0000     0.0000     0.0000 </r>
        <r>     4.7938     0.0000     0.0000     0.0000     0.0000     0.0000     0.0000     0.0000     0.0000     0.0000 </r>
        <r>     4.8649     0.0000     0.0000     0.0000     0.0000     0.0000     0.0000     0.0000     0.0000     0.0000 </r>
        <r>     4.9359     0.0000     0.0000     0.0000     0.0000     0.0000     0.0000     0.0000     0.0000     0.0000 </r>
        <r>     5.0070     0.0000     0.0000     0.0000     0.0000     0.0000     0.0000     0.0000     0.0000     0.0000 </r>
        <r>     5.0781     0.0000     0.0000     0.0000     0.0000     0.0000     0.0000     0.0000     0.0000     0.0000 </r>
        <r>     5.1491     0.0000     0.0000     0.0000     0.0000     0.0000     0.0000     0.0000     0.0000     0.0000 </r>
        <r>     5.2202     0.0000     0.0000     0.0000     0.0000     0.0000     0.0000     0.0000     0.0000     0.0000 </r>
        <r>     5.2912     0.0000     0.0000     0.0000     0.0000     0.0000     0.0000     0.0000     0.0000     0.0000 </r>
        <r>     5.3623     0.0000     0.0000     0.0000     0.0000     0.0000     0.0000     0.0000     0.0000     0.0000 </r>
[...]
        <r>    13.7468     0.0000     0.0000     0.0000     0.0000     0.0000     0.0000     0.0000     0.0000     0.0000 </r>
        <r>    13.8178     0.0000     0.0000     0.0000     0.0000     0.0000     0.0000     0.0000     0.0000     0.0000 </r>
        <r>    13.8889     0.0000     0.0000     0.0000     0.0000     0.0000     0.0000     0.0000     0.0000     0.0000 </r>
        <r>    13.9600     0.0000     0.0000     0.0000     0.0000     0.0000     0.0000     0.0000     0.0000     0.0000 </r>
        <r>    14.0310     0.0000     0.0000     0.0000     0.0000     0.0000     0.0000     0.0000     0.0000     0.0000 </r>
        <r>    14.1021     0.0000     0.0000     0.0000     0.0000     0.0000     0.0000     0.0000     0.0000     0.0000 </r>
        <r>    14.1731     0.0000     0.0000     0.0000     0.0000     0.0000     0.0000     0.0000     0.0000     0.0000 </r>
       </set>
      </set>
     </set>
    </array>
   </partial>
  </dos>
  <projected>
   <eigenvalues>
    <array>
     <dimension dim="1">band</dimension>
     <dimension dim="2">kpoint</dimension>
     <dimension dim="3">spin</dimension>
     <field>eigene</field>
     <field>occ</field>
     <set>
      <set comment="spin 1">
       <set comment="kpoint 1">
        <r>   -6.1745    1.0000 </r>
        <r>    5.5242    1.0000 </r>
        <r>    5.5242    1.0000 </r>
        <r>    5.5242    1.0000 </r>
        <r>    8.0290    0.0000 </r>
        <r>    8.0290    0.0000 </r>
        <r>    8.0290    0.0000 </r>
        <r>    8.4399    0.0000 </r>
       </set>
       <set comment="kpoint 2">
        <r>   -4.8471    1.0000 </r>
        <r>    0.2943    1.0000 </r>
        <r>    4.5477    1.0000 </r>
        <r>    4.5477    1.0000 </r>
        <r>    7.1301    0.0000 </r>
        <r>    8.9777    0.0000 </r>
        <r>    8.9777    0.0000 </r>
        <r>   13.2042    0.0000 </r>
       </set>
       <set comment="kpoint 3">
        <r>   -4.3343    1.0000 </r>
        <r>    0.5446    1.0000 </r>
        <r>    3.1815    1.0000 </r>
        <r>    3.1815    1.0000 </r>
        <r>    6.2746    0.0000 </r>
        <r>    7.5299    0.0000 </r>
        <r>   12.5899    0.0000 </r>
        <r>   12.5899    0.0000 </r>
       </set>
       <set comment="kpoint 4">
        <r>   -3.0338    1.0000 </r>
        <r>   -1.1500    1.0000 </r>
        <r>    1.2751    1.0000 </r>
        <r>    3.4750    1.0000 </r>
        <r>    7.0913    0.0000 </r>
        <r>   11.2583    0.0000 </r>
        <r>   11.8256    0.0000 </r>
        <r>   12.3813    0.0000 </r>
       </set>
      </set>
      <set comment="spin 2">
       <set comment="kpoint 1">
        <r>   -6.1745    1.0000 </r>
        <r>    5.5242    1.0000 </r>
        <r>    5.5242    1.0000 </r>
        <r>    5.5242    1.0000 </r>
        <r>    8.0290    0.0000 </r>
        <r>    8.0290    0.0000 </r>
        <r>    8.0290    0.0000 </r>
        <r>    8.4399    0.0000 </r>
       </set>
       <set comment="kpoint 2">
        <r>   -4.8471    1.0000 </r>
        <r>    0.2943    1.0000 </r>
        <r>    4.5477    1.0000 </r>
        <r>    4.5477    1.0000 </r>
        <r>    7.1301    0.0000 </r>
        <r>    8.9777    0.0000 </r>
        <r>    8.9777    0.0000 </r>
        <r>   13.2042    0.0000 </r>
       </set>
       <set comment="kpoint 3">
        <r>   -4.3343    1.0000 </r>
        <r>    0.5446    1.0000 </r>
        <r>    3.1815    1.0000 </r>
        <r>    3.1815    1.0000 </r>
        <r>    6.2746    0.0000 </r>
        <r>    7.5299    0.0000 </r>
        <r>   12.5899    0.0000 </r>
        <r>   12.5899    0.0000 </r>
       </set>
       <set comment="kpoint 4">
        <r>   -3.0338    1.0000 </r>
        <r>   -1.1500    1.0000 </r>
        <r>    1.2750    1.0000 </r>
        <r>    3.4750    1.0000 </r>
        <r>    7.0913    0.0000 </r>
        <r>   11.2583    0.0000 </r>
        <r>   11.8256    0.0000 </r>
        <r>   12.3813    0.0000 </r>
       </set>
      </set>
     </set>
    </array>
   </eigenvalues>
   <array>
    <dimension dim="1">ion</dimension>
    <dimension dim="2">band</dimension>
    <dimension dim="3">kpoint</dimension>
    <dimension dim="4">spin</dimension>
    <field>    s</field>
    <field>   py</field>
    <field>   pz</field>
    <field>   px</field>
    <field>  dxy</field>
    <field>  dyz</field>
    <field>  dz2</field>
    <field>  dxz</field>
    <field>x2-y2</field>
    <set>
     <set comment="spin1">
      <set comment="kpoint 1">
       <set comment="band 1">
        <r>  0.2098  0.0000  0.0000  0.0000  0.0000  0.0000  0.0000  0.0000  0.0000 </r>
        <r>  0.2098  0.0000  0.0000  0.0000  0.0000  0.0000  0.0000  0.0000  0.0000 </r>
       </set>
       <set comment="band 2">
        <r>  0.0000  0.0117  0.1263  0.0732  0.0000  0.0000  0.0000  0.0000  0.0000 </r>
        <r>  0.0000  0.0117  0.1263  0.0732  0.0000  0.0000  0.0000  0.0000  0.0000 </r>
       </set>
       <set comment="band 3">
        <r>  0.0000  0.1291  0.0145  0.0676  0.0000  0.0000  0.0000  0.0000  0.0000 </r>
        <r>  0.0000  0.1291  0.0145  0.0676  0.0000  0.0000  0.0000  0.0000  0.0000 </r>
       </set>
       <set comment="band 4">
        <r>  0.0000  0.0704  0.0704  0.0704  0.0000  0.0000  0.0000  0.0000  0.0000 </r>
        <r>  0.0000  0.0704  0.0704  0.0704  0.0000  0.0000  0.0000  0.0000  0.0000 </r>
       </set>
       <set comment="band 5">
        <r>  0.0000  0.0967  0.0369  0.0156  0.0000  0.0000  0.0000  0.0000  0.0000 </r>
        <r>  0.0000  0.0967  0.0369  0.0156  0.0000  0.0000  0.0000  0.0000  0.0000 </r>
       </set>
       <set comment="band 6">
        <r>  0.0000  0.0027  0.0626  0.0839  0.0000  0.0000  0.0000  0.0000  0.0000 </r>
        <r>  0.0000  0.0027  0.0626  0.0839  0.0000  0.0000  0.0000  0.0000  0.0000 </r>
       </set>
       <set comment="band 7">
        <r>  0.0000  0.0498  0.0497  0.0497  0.0000  0.0000  0.0000  0.0000  0.0000 </r>
        <r>  0.0000  0.0498  0.0497  0.0497  0.0000  0.0000  0.0000  0.0000  0.0000 </r>
       </set>
       <set comment="band 8">
        <r>  0.3577  0.0000  0.0000  0.0000  0.0000  0.0000  0.0000  0.0000  0.0000 </r>
        <r>  0.3577  0.0000  0.0000  0.0000  0.0000  0.0000  0.0000  0.0000  0.0000 </r>
       </set>
      </set>
      <set comment="kpoint 2">
       <set comment="band 1">
        <r>  0.2081  0.0039  0.0039  0.0039  0.0000  0.0000  0.0000  0.0000  0.0000 </r>
        <r>  0.2081  0.0039  0.0039  0.0039  0.0000  0.0000  0.0000  0.0000  0.0000 </r>
       </set>
       <set comment="band 2">
        <r>  0.1073  0.0330  0.0330  0.0330  0.0000  0.0000  0.0000  0.0000  0.0000 </r>
        <r>  0.1073  0.0330  0.0330  0.0330  0.0000  0.0000  0.0000  0.0000  0.0000 </r>
       </set>
       <set comment="band 3">
        <r>  0.0000  0.1050  0.1050  0.0000  0.0000  0.0000  0.0000  0.0000  0.0000 </r>
        <r>  0.0000  0.1050  0.1050  0.0000  0.0000  0.0000  0.0000  0.0000  0.0000 </r>
       </set>
       <set comment="band 4">
        <r>  0.0000  0.0350  0.0350  0.1399  0.0000  0.0000  0.0000  0.0000  0.0000 </r>
        <r>  0.0000  0.0350  0.0350  0.1399  0.0000  0.0000  0.0000  0.0000  0.0000 </r>
       </set>
       <set comment="band 5">
        <r>  0.1721  0.0112  0.0112  0.0112  0.0000  0.0000  0.0000  0.0000  0.0000 </r>
        <r>  0.1721  0.0112  0.0112  0.0112  0.0000  0.0000  0.0000  0.0000  0.0000 </r>
       </set>
       <set comment="band 6">
        <r>  0.0000  0.0576  0.0576  0.0000  0.0000  0.0000  0.0000  0.0000  0.0000 </r>
        <r>  0.0000  0.0576  0.0576  0.0000  0.0000  0.0000  0.0000  0.0000  0.0000 </r>
       </set>
       <set comment="band 7">
        <r>  0.0000  0.0192  0.0192  0.0768  0.0000  0.0000  0.0000  0.0000  0.0000 </r>
        <r>  0.0000  0.0192  0.0192  0.0768  0.0000  0.0000  0.0000  0.0000  0.0000 </r>
       </set>
       <set comment="band 8">
        <r>  0.0242  0.0466  0.0466  0.0466  0.0000  0.0000  0.0000  0.0000  0.0000 </r>
        <r>  0.0242  0.0466  0.0466  0.0466  0.0000  0.0000  0.0000  0.0000  0.0000 </r>
       </set>
      </set>
      <set comment="kpoint 3">
       <set comment="band 1">
        <r>  0.2016  0.0000  0.0194  0.0000  0.0000  0.0000  0.0000  0.0000  0.0000 </r>
        <r>  0.2016  0.0000  0.0194  0.0000  0.0000  0.0000  0.0000  0.0000  0.0000 </r>
       </set>
       <set comment="band 2">
        <r>  0.1755  0.0000  0.0738  0.0000  0.0000  0.0000  0.0000  0.0000  0.0000 </r>
        <r>  0.1755  0.0000  0.0738  0.0000  0.0000  0.0000  0.0000  0.0000  0.0000 </r>
       </set>
       <set comment="band 3">
        <r>  0.0000  0.0961  0.0000  0.0961  0.0000  0.0000  0.0000  0.0000  0.0000 </r>
        <r>  0.0000  0.0961  0.0000  0.0961  0.0000  0.0000  0.0000  0.0000  0.0000 </r>
       </set>
       <set comment="band 4">
        <r>  0.0000  0.0961  0.0000  0.0961  0.0000  0.0000  0.0000  0.0000  0.0000 </r>
        <r>  0.0000  0.0961  0.0000  0.0961  0.0000  0.0000  0.0000  0.0000  0.0000 </r>
       </set>
       <set comment="band 5">
        <r>  0.0490  0.0000  0.0588  0.0000  0.0000  0.0000  0.0000  0.0000  0.0000 </r>
        <r>  0.0490  0.0000  0.0588  0.0000  0.0000  0.0000  0.0000  0.0000  0.0000 </r>
       </set>
       <set comment="band 6">
        <r>  0.0450  0.0000  0.0340  0.0000  0.0000  0.0000  0.0000  0.0000  0.0000 </r>
        <r>  0.0450  0.0000  0.0340  0.0000  0.0000  0.0000  0.0000  0.0000  0.0000 </r>
       </set>
       <set comment="band 7">
        <r>  0.0000  0.0834  0.0000  0.0832  0.0000  0.0000  0.0000  0.0000  0.0000 </r>
        <r>  0.0000  0.0832  0.0000  0.0835  0.0000  0.0000  0.0000  0.0000  0.0000 </r>
       </set>
       <set comment="band 8">
        <r>  0.0000  0.0832  0.0000  0.0834  0.0000  0.0000  0.0000  0.0000  0.0000 </r>
        <r>  0.0000  0.0835  0.0000  0.0832  0.0000  0.0000  0.0000  0.0000  0.0000 </r>
       </set>
      </set>
      <set comment="kpoint 4">
       <set comment="band 1">
        <r>  0.2118  0.0073  0.0115  0.0073  0.0000  0.0000  0.0000  0.0000  0.0000 </r>
        <r>  0.2118  0.0073  0.0115  0.0073  0.0000  0.0000  0.0000  0.0000  0.0000 </r>
       </set>
       <set comment="band 2">
        <r>  0.1762  0.0095  0.0400  0.0095  0.0000  0.0000  0.0000  0.0000  0.0000 </r>
        <r>  0.1762  0.0095  0.0400  0.0095  0.0000  0.0000  0.0000  0.0000  0.0000 </r>
       </set>
       <set comment="band 3">
        <r>  0.0033  0.0455  0.0575  0.0455  0.0000  0.0000  0.0000  0.0000  0.0000 </r>
        <r>  0.0033  0.0455  0.0575  0.0455  0.0000  0.0000  0.0000  0.0000  0.0000 </r>
       </set>
       <set comment="band 4">
        <r>  0.0000  0.0988  0.0000  0.0988  0.0000  0.0000  0.0000  0.0000  0.0000 </r>
        <r>  0.0000  0.0988  0.0000  0.0988  0.0000  0.0000  0.0000  0.0000  0.0000 </r>
       </set>
       <set comment="band 5">
        <r>  0.0542  0.0010  0.0456  0.0010  0.0000  0.0000  0.0000  0.0000  0.0000 </r>
        <r>  0.0542  0.0010  0.0456  0.0010  0.0000  0.0000  0.0000  0.0000  0.0000 </r>
       </set>
       <set comment="band 6">
        <r>  0.0084  0.0382  0.0026  0.0382  0.0000  0.0000  0.0000  0.0000  0.0000 </r>
        <r>  0.0084  0.0382  0.0026  0.0382  0.0000  0.0000  0.0000  0.0000  0.0000 </r>
       </set>
       <set comment="band 7">
        <r>  0.0000  0.0763  0.0000  0.0763  0.0000  0.0000  0.0000  0.0000  0.0000 </r>
        <r>  0.0000  0.0763  0.0000  0.0763  0.0000  0.0000  0.0000  0.0000  0.0000 </r>
       </set>
       <set comment="band 8">
        <r>  0.0427  0.0031  0.1232  0.0030  0.0000  0.0000  0.0000  0.0000  0.0000 </r>
        <r>  0.0426  0.0031  0.1233  0.0031  0.0000  0.0000  0.0000  0.0000  0.0000 </r>
       </set>
      </set>
     </set>
     <set comment="spin2">
      <set comment="kpoint 1">
       <set comment="band 1">
        <r>  0.2098  0.0000  0.0000  0.0000  0.0000  0.0000  0.0000  0.0000  0.0000 </r>
        <r>  0.2098  0.0000  0.0000  0.0000  0.0000  0.0000  0.0000  0.0000  0.0000 </r>
       </set>
       <set comment="band 2">
        <r>  0.0000  0.0073  0.1271  0.0768  0.0000  0.0000  0.0000  0.0000  0.0000 </r>
        <r>  0.0000  0.0073  0.1271  0.0768  0.0000  0.0000  0.0000  0.0000  0.0000 </r>
       </set>
       <set comment="band 3">
        <r>  0.0000  0.1334  0.0137  0.0640  0.0000  0.0000  0.0000  0.0000  0.0000 </r>
        <r>  0.0000  0.1334  0.0137  0.0640  0.0000  0.0000  0.0000  0.0000  0.0000 </r>
       </set>
       <set comment="band 4">
        <r>  0.0000  0.0704  0.0704  0.0704  0.0000  0.0000  0.0000  0.0000  0.0000 </r>
        <r>  0.0000  0.0704  0.0704  0.0704  0.0000  0.0000  0.0000  0.0000  0.0000 </r>
       </set>
       <set comment="band 5">
        <r>  0.0000  0.0557  0.0692  0.0243  0.0000  0.0000  0.0000  0.0000  0.0000 </r>
        <r>  0.0000  0.0557  0.0692  0.0243  0.0000  0.0000  0.0000  0.0000  0.0000 </r>
       </set>
       <set comment="band 6">
        <r>  0.0000  0.0438  0.0303  0.0752  0.0000  0.0000  0.0000  0.0000  0.0000 </r>
        <r>  0.0000  0.0438  0.0303  0.0752  0.0000  0.0000  0.0000  0.0000  0.0000 </r>
       </set>
       <set comment="band 7">
        <r>  0.0000  0.0498  0.0498  0.0497  0.0000  0.0000  0.0000  0.0000  0.0000 </r>
        <r>  0.0000  0.0498  0.0498  0.0497  0.0000  0.0000  0.0000  0.0000  0.0000 </r>
       </set>
       <set comment="band 8">
        <r>  0.3577  0.0000  0.0000  0.0000  0.0000  0.0000  0.0000  0.0000  0.0000 </r>
        <r>  0.3577  0.0000  0.0000  0.0000  0.0000  0.0000  0.0000  0.0000  0.0000 </r>
       </set>
      </set>
      <set comment="kpoint 2">
       <set comment="band 1">
        <r>  0.2081  0.0039  0.0039  0.0039  0.0000  0.0000  0.0000  0.0000  0.0000 </r>
        <r>  0.2081  0.0039  0.0039  0.0039  0.0000  0.0000  0.0000  0.0000  0.0000 </r>
       </set>
       <set comment="band 2">
        <r>  0.1073  0.0330  0.0330  0.0330  0.0000  0.0000  0.0000  0.0000  0.0000 </r>
        <r>  0.1073  0.0330  0.0330  0.0330  0.0000  0.0000  0.0000  0.0000  0.0000 </r>
       </set>
       <set comment="band 3">
        <r>  0.0000  0.1050  0.1050  0.0000  0.0000  0.0000  0.0000  0.0000  0.0000 </r>
        <r>  0.0000  0.1050  0.1050  0.0000  0.0000  0.0000  0.0000  0.0000  0.0000 </r>
       </set>
       <set comment="band 4">
        <r>  0.0000  0.0350  0.0350  0.1399  0.0000  0.0000  0.0000  0.0000  0.0000 </r>
        <r>  0.0000  0.0350  0.0350  0.1399  0.0000  0.0000  0.0000  0.0000  0.0000 </r>
       </set>
       <set comment="band 5">
        <r>  0.1721  0.0112  0.0112  0.0112  0.0000  0.0000  0.0000  0.0000  0.0000 </r>
        <r>  0.1721  0.0112  0.0112  0.0112  0.0000  0.0000  0.0000  0.0000  0.0000 </r>
       </set>
       <set comment="band 6">
        <r>  0.0000  0.0576  0.0576  0.0000  0.0000  0.0000  0.0000  0.0000  0.0000 </r>
        <r>  0.0000  0.0576  0.0576  0.0000  0.0000  0.0000  0.0000  0.0000  0.0000 </r>
       </set>
       <set comment="band 7">
        <r>  0.0000  0.0192  0.0192  0.0768  0.0000  0.0000  0.0000  0.0000  0.0000 </r>
        <r>  0.0000  0.0192  0.0192  0.0768  0.0000  0.0000  0.0000  0.0000  0.0000 </r>
       </set>
       <set comment="band 8">
        <r>  0.0242  0.0466  0.0466  0.0466  0.0000  0.0000  0.0000  0.0000  0.0000 </r>
        <r>  0.0242  0.0466  0.0466  0.0466  0.0000  0.0000  0.0000  0.0000  0.0000 </r>
       </set>
      </set>
      <set comment="kpoint 3">
       <set comment="band 1">
        <r>  0.2016  0.0000  0.0194  0.0000  0.0000  0.0000  0.0000  0.0000  0.0000 </r>
        <r>  0.2016  0.0000  0.0194  0.0000  0.0000  0.0000  0.0000  0.0000  0.0000 </r>
       </set>
       <set comment="band 2">
        <r>  0.1755  0.0000  0.0738  0.0000  0.0000  0.0000  0.0000  0.0000  0.0000 </r>
        <r>  0.1755  0.0000  0.0738  0.0000  0.0000  0.0000  0.0000  0.0000  0.0000 </r>
       </set>
       <set comment="band 3">
        <r>  0.0000  0.0961  0.0000  0.0961  0.0000  0.0000  0.0000  0.0000  0.0000 </r>
        <r>  0.0000  0.0961  0.0000  0.0961  0.0000  0.0000  0.0000  0.0000  0.0000 </r>
       </set>
       <set comment="band 4">
        <r>  0.0000  0.0961  0.0000  0.0961  0.0000  0.0000  0.0000  0.0000  0.0000 </r>
        <r>  0.0000  0.0961  0.0000  0.0961  0.0000  0.0000  0.0000  0.0000  0.0000 </r>
       </set>
       <set comment="band 5">
        <r>  0.0490  0.0000  0.0588  0.0000  0.0000  0.0000  0.0000  0.0000  0.0000 </r>
        <r>  0.0490  0.0000  0.0588  0.0000  0.0000  0.0000  0.0000  0.0000  0.0000 </r>
       </set>
       <set comment="band 6">
        <r>  0.0450  0.0000  0.0340  0.0000  0.0000  0.0000  0.0000  0.0000  0.0000 </r>
        <r>  0.0450  0.0000  0.0340  0.0000  0.0000  0.0000  0.0000  0.0000  0.0000 </r>
       </set>
       <set comment="band 7">
        <r>  0.0000  0.0833  0.0000  0.0834  0.0000  0.0000  0.0000  0.0000  0.0000 </r>
        <r>  0.0000  0.0834  0.0000  0.0833  0.0000  0.0000  0.0000  0.0000  0.0000 </r>
       </set>
       <set comment="band 8">
        <r>  0.0000  0.0834  0.0000  0.0833  0.0000  0.0000  0.0000  0.0000  0.0000 </r>
        <r>  0.0000  0.0833  0.0000  0.0834  0.0000  0.0000  0.0000  0.0000  0.0000 </r>
       </set>
      </set>
      <set comment="kpoint 4">
       <set comment="band 1">
        <r>  0.2118  0.0073  0.0115  0.0073  0.0000  0.0000  0.0000  0.0000  0.0000 </r>
        <r>  0.2118  0.0073  0.0115  0.0073  0.0000  0.0000  0.0000  0.0000  0.0000 </r>
       </set>
       <set comment="band 2">
        <r>  0.1762  0.0095  0.0400  0.0095  0.0000  0.0000  0.0000  0.0000  0.0000 </r>
        <r>  0.1762  0.0095  0.0400  0.0095  0.0000  0.0000  0.0000  0.0000  0.0000 </r>
       </set>
       <set comment="band 3">
        <r>  0.0033  0.0455  0.0575  0.0455  0.0000  0.0000  0.0000  0.0000  0.0000 </r>
        <r>  0.0033  0.0455  0.0575  0.0455  0.0000  0.0000  0.0000  0.0000  0.0000 </r>
       </set>
       <set comment="band 4">
        <r>  0.0000  0.0988  0.0000  0.0988  0.0000  0.0000  0.0000  0.0000  0.0000 </r>
        <r>  0.0000  0.0988  0.0000  0.0988  0.0000  0.0000  0.0000  0.0000  0.0000 </r>
       </set>
       <set comment="band 5">
        <r>  0.0542  0.0010  0.0456  0.0010  0.0000  0.0000  0.0000  0.0000  0.0000 </r>
        <r>  0.0542  0.0010  0.0456  0.0010  0.0000  0.0000  0.0000  0.0000  0.0000 </r>
       </set>
       <set comment="band 6">
        <r>  0.0084  0.0382  0.0026  0.0382  0.0000  0.0000  0.0000  0.0000  0.0000 </r>
        <r>  0.0084  0.0382  0.0026  0.0382  0.0000  0.0000  0.0000  0.0000  0.0000 </r>
       </set>
       <set comment="band 7">
        <r>  0.0000  0.0763  0.0000  0.0763  0.0000  0.0000  0.0000  0.0000  0.0000 </r>
        <r>  0.0000  0.0763  0.0000  0.0763  0.0000  0.0000  0.0000  0.0000  0.0000 </r>
       </set>
       <set comment="band 8">
        <r>  0.0426  0.0031  0.1233  0.0031  0.0000  0.0000  0.0000  0.0000  0.0000 </r>
        <r>  0.0426  0.0031  0.1232  0.0031  0.0000  0.0000  0.0000  0.0000  0.0000 </r>
       </set>
      </set>
     </set>
    </set>
   </array>
  </projected>
 </calculation>
 <structure name="finalpos" >
  <crystal>
   <varray name="basis" >
    <v>       0.00000000       2.75277700       2.75277700 </v>
    <v>       2.75277700       0.00000000       2.75277700 </v>
    <v>       2.75277700       2.75277700       0.00000000 </v>
   </varray>
   <i name="volume">     41.71988366 </i>
   <varray name="rec_basis" >
    <v>      -0.18163476       0.18163476       0.18163476 </v>
    <v>       0.18163476      -0.18163476       0.18163476 </v>
    <v>       0.18163476       0.18163476      -0.18163476 </v>
   </varray>
  </crystal>
  <varray name="positions" >
   <v>       0.75000000       0.75000000       0.75000000 </v>
   <v>       0.50000000       0.50000000       0.50000000 </v>
  </varray>
 </structure>
</modeling>
