 vasp.6.2.1 16May21 (build Oct 27 2021 18:14:32) complex                        
  
 executed on             LinuxIFC date 2021.11.08  17:25:38
 running on    1 total cores
 distrk:  each k-point on    1 cores,    1 groups
 distr:  one band on NCORE=   1 cores,    1 groups


--------------------------------------------------------------------------------------------------------


 INCAR:
   ALGO = Normal
   EDIFF = 1e-07
   EDIFFG = -0.001
   ENAUG = 1360.0
   ENCUT = 700.0
   IBRION = 2
   ISIF = 3
   ISMEAR = -5
   ISPIN = 2
   KSPACING = 0.2925287784072645
   LAECHG = False
   LASPH = True
   LCHARG = True
   LELF = True
   LMIXTAU = True
   LORBIT = 11
   LREAL = False
   LVTOT = True
   LWAVE = False
   MAGMOM = 2*-0.0
   NELM = 200
   NSW = 1
   PREC = Accurate
   SIGMA = 0.05

 POTCAR:    PAW_PBE Si 05Jan2001                  
 WARNING: For LVTOT=.TRUE., VASP.5.x writes the TOTAL local potential to the
     file LOCPOT. If you want only the Hartree contributions, use LVHAR=.TRUE.
     instead. 

 POTCAR:    PAW_PBE Si 05Jan2001                  
   VRHFIN =Si: s2p2                                                                                 
   LEXCH  = PE                                                                                      
   EATOM  =   103.0669 eV,    7.5752 Ry                                                             
                                                                                                    
   TITEL  = PAW_PBE Si 05Jan2001                                                                    
   LULTRA =        F    use ultrasoft PP ?                                                          
   IUNSCR =        1    unscreen: 0-lin 1-nonlin 2-no                                               
   RPACOR =    1.500    partial core radius                                                         
   POMASS =   28.085; ZVAL   =    4.000    mass and valenz                                          
   RCORE  =    1.900    outmost cutoff radius                                                       
   RWIGS  =    2.480; RWIGS  =    1.312    wigner-seitz radius (au A)                               
   ENMAX  =  245.345; ENMIN  =  184.009 eV                                                          
   ICORE  =        2    local potential                                                             
   LCOR   =        T    correct aug charges                                                         
   LPAW   =        T    paw PP                                                                      
   EAUG   =  322.069                                                                                
   DEXC   =    0.000                                                                                
   RMAX   =    1.950    core radius for proj-oper                                                   
   RAUG   =    1.300    factor for augmentation sphere                                              
   RDEP   =    1.993    radius for radial grids                                                     
   RDEPT  =    1.837    core radius for aug-charge                                                  
                                                                                                    
   Atomic configuration                                                                             
    6 entries                                                                                       
     n  l   j            E        occ.                                                              
     1  0  0.50     -1785.8828   2.0000                                                             
     2  0  0.50      -139.4969   2.0000                                                             
     2  1  1.50       -95.5546   6.0000                                                             
     3  0  0.50       -10.8127   2.0000                                                             
     3  1  0.50        -4.0811   2.0000                                                             
     3  2  1.50        -4.0817   0.0000                                                             
   Description                                                                                      
     l       E           TYP  RCUT    TYP  RCUT                                                     
     0    -10.8127223     23  1.900                                                                 
     0     -7.6451159     23  1.900                                                                 
     1     -4.0811372     23  1.900                                                                 
     1      2.4879257     23  1.900                                                                 
     2     -4.0817478      7  1.900                                                                 
  local pseudopotential read in
  partial core-charges read in
  partial kinetic energy density read in
  atomic valenz-charges read in
  non local Contribution for L=           0  read in
    real space projection operators read in
  non local Contribution for L=           0  read in
    real space projection operators read in
  non local Contribution for L=           1  read in
    real space projection operators read in
  non local Contribution for L=           1  read in
    real space projection operators read in
    PAW grid and wavefunctions read in
 
   number of l-projection  operators is LMAX  =           4
   number of lm-projection operators is LMMAX =           8
 
  PAW_PBE Si 05Jan2001                  :
 energy of atom  1       EATOM= -103.0669
 kinetic energy error for atom=    0.0003 (will be added to EATOM!!)
 
 
 POSCAR: Si2
  positions in direct lattice
  No initial velocities read in
 exchange correlation table for  LEXCH =        8
   RHO(1)=    0.500       N(1)  =     2000
   RHO(2)=  100.500       N(2)  =     4000
 


--------------------------------------------------------------------------------------------------------


 ion  position               nearest neighbor table
   1  0.750  0.750  0.750-   2 2.38   2 2.38   2 2.39   2 2.39
   2  0.500  0.500  0.500-   1 2.38   1 2.38   1 2.39   1 2.39
 
  LATTYP: Found a body centered orthorhombic cell.
 ALAT       =     3.8735001712
 B/A-ratio  =     1.0100505895
 C/A-ratio  =     1.4213382617
  
  Lattice vectors:
  
 A1 = (  -2.7527770000,   0.0275280000,  -2.7526390000)
 A2 = (  -2.7527770000,  -0.0275280000,   2.7526390000)
 A3 = (   2.7527770000,   2.7527770000,   0.0000000000)


Analysis of symmetry for initial positions (statically):
=====================================================================
 Subroutine PRICEL returns:
 Original cell was already a primitive cell.
 

 Routine SETGRP: Setting up the symmetry group for a 
 body centered orthorhombic supercell.


 Subroutine GETGRP returns: Found  8 space group operations
 (whereof  4 operations were pure point group operations)
 out of a pool of  8 trial point group operations.


The static configuration has the point symmetry C_2v.
 The point group associated with its full space group is D_2h.


Analysis of symmetry for dynamics (positions and initial velocities):
=====================================================================
 Subroutine PRICEL returns:
 Original cell was already a primitive cell.
 

 Routine SETGRP: Setting up the symmetry group for a 
 body centered orthorhombic supercell.


 Subroutine GETGRP returns: Found  8 space group operations
 (whereof  4 operations were pure point group operations)
 out of a pool of  8 trial point group operations.


The dynamic configuration has the point symmetry C_2v.
 The point group associated with its full space group is D_2h.


Analysis of structural, dynamic, and magnetic symmetry:
=====================================================================
 Subroutine PRICEL returns:
 Original cell was already a primitive cell.
 

 Routine SETGRP: Setting up the symmetry group for a 
 body centered orthorhombic supercell.


 Subroutine GETGRP returns: Found  8 space group operations
 (whereof  4 operations were pure point group operations)
 out of a pool of  8 trial point group operations.


The overall configuration has the point symmetry C_2v.
 The point group associated with its full space group is D_2h.


 Subroutine INISYM returns: Found  8 space group operations
 (whereof  4 operations are pure point group operations),
 and found     1 'primitive' translations


----------------------------------------------------------------------------------------

                                     Primitive cell                                     

  volume of cell :      41.7178

  direct lattice vectors                    reciprocal lattice vectors
     0.000000000  2.725249000  2.752639000    -0.181634764  0.181634764  0.183460324
     2.752777000 -0.027528000  2.752639000     0.181634764 -0.181634764  0.179827416
     2.752777000  2.752777000  0.000000000     0.181634764  0.181634764 -0.179827416

  length of vectors
     3.873500171  3.893014316  3.893014568     0.315658146  0.313560639  0.313560639

  position of ions in fractional coordinates (direct lattice)
     0.750000000  0.750000000  0.750000000
     0.500000000  0.500000000  0.500000000

  ion indices of the primitive-cell ions
   primitive index   ion index
                 1           1
                 2           2

----------------------------------------------------------------------------------------

 
 
 KPOINTS: pymatgen with grid density = 100 / numbe

Automatic generation of k-mesh.
 Grid dimensions read from file:
 generate k-points for:    3    3    3

 Generating k-lattice:

  Cartesian coordinates                     Fractional coordinates (reciprocal lattice)
    -0.060544921  0.060544921  0.061153441     0.333333333 -0.000000000 -0.000000000
     0.060544921 -0.060544921  0.059942472     0.000000000  0.333333333  0.000000000
     0.060544921  0.060544921 -0.059942472    -0.000000000 -0.000000000  0.333333333

  Length of vectors
     0.105219382  0.104520213  0.104520213

  Shift w.r.t. Gamma in fractional coordinates (k-lattice)
     0.000000000  0.000000000  0.000000000

 TETIRR: Found     26 inequivalent tetrahedra from      162
 
 Subroutine IBZKPT returns following result:
 ===========================================
 
 Found      8 irreducible k-points:
 
 Following reciprocal coordinates:
            Coordinates               Weight
  0.000000  0.000000  0.000000      1.000000
  0.333333 -0.000000  0.000000      4.000000
 -0.000000  0.333333 -0.000000      4.000000
  0.333333  0.333333 -0.000000      4.000000
 -0.333333  0.333333  0.000000      8.000000
 -0.000000  0.333333  0.333333      2.000000
 -0.333333  0.333333  0.333333      2.000000
  0.000000 -0.333333  0.333333      2.000000
 
 Following cartesian coordinates:
            Coordinates               Weight
  0.000000  0.000000  0.000000      1.000000
 -0.060545  0.060545  0.061153      4.000000
  0.060545 -0.060545  0.059942      4.000000
 -0.000000 -0.000000  0.121096      4.000000
  0.121090 -0.121090 -0.001211      8.000000
  0.121090 -0.000000 -0.000000      2.000000
  0.181635 -0.060545 -0.061153      2.000000
 -0.000000  0.121090 -0.119885      2.000000
 


--------------------------------------------------------------------------------------------------------




 Dimension of arrays:
   k-points           NKPTS =      8   k-points in BZ     NKDIM =      8   number of bands    NBANDS=      8
   number of dos      NEDOS =    301   number of ions     NIONS =      2
   non local maximal  LDIM  =      4   non local SUM 2l+1 LMDIM =      8
   total plane-waves  NPLWV =  46656
   max r-space proj   IRMAX =      1   max aug-charges    IRDMAX=  37588
   dimension x,y,z NGX =    36 NGY =   36 NGZ =   36
   dimension x,y,z NGXF=    72 NGYF=   72 NGZF=   72
   support grid    NGXF=    72 NGYF=   72 NGZF=   72
   ions per type =               2
   NGX,Y,Z   is equivalent  to a cutoff of  15.45, 15.37, 15.37 a.u.
   NGXF,Y,Z  is equivalent  to a cutoff of  30.90, 30.75, 30.75 a.u.

 SYSTEM =  unknown system                          
 POSCAR =  Si2                                     

 Startparameter for this run:
   NWRITE =      2    write-flag & timer
   PREC   = accura    normal or accurate (medium, high low for compatibility)
   ISTART =      0    job   : 0-new  1-cont  2-samecut
   ICHARG =      2    charge: 1-file 2-atom 10-const
   ISPIN  =      2    spin polarized calculation?
   LNONCOLLINEAR =      F non collinear calculations
   LSORBIT =      F    spin-orbit coupling
   INIWAV =      1    electr: 0-lowe 1-rand  2-diag
   LASPH  =      T    aspherical Exc in radial PAW
 Electronic Relaxation 1
   ENCUT  =  700.0 eV  51.45 Ry    7.17 a.u.   8.36  8.40  8.40*2*pi/ulx,y,z
   ENINI  =  700.0     initial cutoff
   ENAUG  = 1360.0 eV  augmentation charge cutoff
   NELM   =    200;   NELMIN=  2; NELMDL= -5     # of ELM steps 
   EDIFF  = 0.1E-06   stopping-criterion for ELM
   LREAL  =      F    real-space projection
   NLSPLINE    = F    spline interpolate recip. space projectors
   LCOMPAT=      F    compatible to vasp.4.4
   GGA_COMPAT  = T    GGA compatible to vasp.4.4-vasp.4.6
   LMAXPAW     = -100 max onsite density
   LMAXMIX     =    2 max onsite mixed and CHGCAR
   VOSKOWN=      0    Vosko Wilk Nusair interpolation
   ROPT   =    0.00000
 Ionic relaxation
   EDIFFG = -.1E-02   stopping-criterion for IOM
   NSW    =      1    number of steps for IOM
   NBLOCK =      1;   KBLOCK =      1    inner block; outer block 
   IBRION =      2    ionic relax: 0-MD 1-quasi-New 2-CG
   NFREE  =      1    steps in history (QN), initial steepest desc. (CG)
   ISIF   =      3    stress and relaxation
   IWAVPR =     11    prediction:  0-non 1-charg 2-wave 3-comb
   ISYM   =      2    0-nonsym 1-usesym 2-fastsym
   LCORR  =      T    Harris-Foulkes like correction to forces

   POTIM  = 0.5000    time-step for ionic-motion
   TEIN   =    0.0    initial temperature
   TEBEG  =    0.0;   TEEND  =   0.0 temperature during run
   SMASS  =  -3.00    Nose mass-parameter (am)
   estimated Nose-frequenzy (Omega)   =  0.10E-29 period in steps = 0.13E+47 mass=  -0.343E-27a.u.
   SCALEE = 1.0000    scale energy and forces
   NPACO  =    256;   APACO  = 16.0  distance and # of slots for P.C.
   PSTRESS=    0.0 pullay stress

  Mass of Ions in am
   POMASS =  28.09
  Ionic Valenz
   ZVAL   =   4.00
  Atomic Wigner-Seitz radii
   RWIGS  =  -1.00
  virtual crystal weights 
   VCA    =   1.00
   NELECT =       8.0000    total number of electrons
   NUPDOWN=      -1.0000    fix difference up-down

 DOS related values:
   EMIN   =  10.00;   EMAX   =-10.00  energy-range for DOS
   EFERMI =   0.00
   ISMEAR =    -5;   SIGMA  =   0.05  broadening in eV -4-tet -1-fermi 0-gaus

 Electronic relaxation 2 (details)
   IALGO  =     38    algorithm
   LDIAG  =      T    sub-space diagonalisation (order eigenvalues)
   LSUBROT=      F    optimize rotation matrix (better conditioning)
   TURBO    =      0    0=normal 1=particle mesh
   IRESTART =      0    0=no restart 2=restart with 2 vectors
   NREBOOT  =      0    no. of reboots
   NMIN     =      0    reboot dimension
   EREF     =   0.00    reference energy to select bands
   IMIX   =      4    mixing-type and parameters
     AMIX     =   0.40;   BMIX     =  1.00
     AMIX_MAG =   1.60;   BMIX_MAG =  1.00
     AMIN     =   0.10
     WC   =   100.;   INIMIX=   1;  MIXPRE=   1;  MAXMIX= -45

 Intra band minimization:
   WEIMIN = 0.0010     energy-eigenvalue tresh-hold
   EBREAK =  0.31E-08  absolut break condition
   DEPER  =   0.30     relativ break condition  

   TIME   =   0.40     timestep for ELM

  volume/ion in A,a.u.               =      20.86       140.76
  Fermi-wavevector in a.u.,A,eV,Ry     =   0.944056  1.784007 12.126078  0.891242
  Thomas-Fermi vector in A             =   2.071824
 
 Write flags
   LWAVE        =      F    write WAVECAR
   LDOWNSAMPLE  =      F    k-point downsampling of WAVECAR
   LCHARG       =      T    write CHGCAR
   LVTOT        =      T    write LOCPOT, total local potential
   LVHAR        =      F    write LOCPOT, Hartree potential only
   LELF         =      T    write electronic localiz. function (ELF)
   LORBIT       =     11    0 simple, 1 ext, 2 COOP (PROOUT), +10 PAW based schemes


 Dipole corrections
   LMONO  =      F    monopole corrections only (constant potential shift)
   LDIPOL =      F    correct potential (dipole corrections)
   IDIPOL =      0    1-x, 2-y, 3-z, 4-all directions 
   EPSILON=  1.0000000 bulk dielectric constant

 Exchange correlation treatment:
   GGA     =    --    GGA type
   LEXCH   =     8    internal setting for exchange type
   VOSKOWN=      0    Vosko Wilk Nusair interpolation
   LHFCALC =     F    Hartree Fock is set to
   LHFONE  =     F    Hartree Fock one center treatment
   AEXX    =    0.0000 exact exchange contribution

 Linear response parameters
   LEPSILON=     F    determine dielectric tensor
   LRPA    =     F    only Hartree local field effects (RPA)
   LNABLA  =     F    use nabla operator in PAW spheres
   LVEL    =     F    velocity operator in full k-point grid
   LINTERFAST=   F  fast interpolation
   KINTER  =     0    interpolate to denser k-point grid
   CSHIFT  =0.1000    complex shift for real part using Kramers Kronig
   OMEGAMAX=  -1.0    maximum frequency
   DEG_THRESHOLD= 0.2000000E-02 threshold for treating states as degnerate
   RTIME   =   -0.100 relaxation time in fs
  (WPLASMAI=    0.000 imaginary part of plasma frequency in eV, 0.658/RTIME)
   DFIELD  = 0.0000000 0.0000000 0.0000000 field for delta impulse in time
 
 Orbital magnetization related:
   ORBITALMAG=     F  switch on orbital magnetization
   LCHIMAG   =     F  perturbation theory with respect to B field
   DQ        =  0.001000  dq finite difference perturbation B field
   LLRAUG    =     F  two centre corrections for induced B field



--------------------------------------------------------------------------------------------------------


 conjugate gradient relaxation of ions
 charge density and potential will be updated during run
 spin polarized calculation
 Variant of blocked Davidson
 Davidson routine will perform the subspace rotation
 perform sub-space diagonalisation
    after iterative eigenvector-optimisation
 modified Broyden-mixing scheme, WC =      100.0
 initial mixing is a Kerker type mixing with AMIX =  0.4000 and BMIX =      1.0000
 Hartree-type preconditioning will be used
 using additional bands            4
 reciprocal scheme for non local part
 use partial core corrections
 calculate Harris-corrections to forces 
   (improved forces if not selfconsistent)
 use gradient corrections 
 use of overlap-Matrix (Vanderbilt PP)
 Fermi weights with tetrahedron method with Bloechl corrections


--------------------------------------------------------------------------------------------------------


  energy-cutoff  :      700.00
  volume of cell :       41.72
      direct lattice vectors                 reciprocal lattice vectors
     0.000000000  2.725249000  2.752639000    -0.181634764  0.181634764  0.183460324
     2.752777000 -0.027528000  2.752639000     0.181634764 -0.181634764  0.179827416
     2.752777000  2.752777000  0.000000000     0.181634764  0.181634764 -0.179827416

  length of vectors
     3.873500171  3.893014316  3.893014568     0.315658146  0.313560639  0.313560639


 
 k-points in units of 2pi/SCALE and weight: pymatgen with grid density = 100 / numbe
   0.00000000  0.00000000  0.00000000       0.037
  -0.06054492  0.06054492  0.06115344       0.148
   0.06054492 -0.06054492  0.05994247       0.148
  -0.00000000 -0.00000000  0.12109591       0.148
   0.12108984 -0.12108984 -0.00121097       0.296
   0.12108984  0.00000000 -0.00000000       0.074
   0.18163476 -0.06054492 -0.06115344       0.074
  -0.00000000  0.12108984 -0.11988494       0.074
 
 k-points in reciprocal lattice and weights: pymatgen with grid density = 100 / numbe
   0.00000000  0.00000000  0.00000000       0.037
   0.33333333 -0.00000000  0.00000000       0.148
  -0.00000000  0.33333333 -0.00000000       0.148
   0.33333333  0.33333333 -0.00000000       0.148
  -0.33333333  0.33333333  0.00000000       0.296
  -0.00000000  0.33333333  0.33333333       0.074
  -0.33333333  0.33333333  0.33333333       0.074
   0.00000000 -0.33333333  0.33333333       0.074
 
 position of ions in fractional coordinates (direct lattice) 
   0.75000000  0.75000000  0.75000000
   0.50000000  0.50000000  0.50000000
 
 position of ions in cartesian coordinates  (Angst):
   4.12916550  4.08787350  4.12895850
   2.75277700  2.72524900  2.75263900
 


--------------------------------------------------------------------------------------------------------


 k-point   1 :   0.0000 0.0000 0.0000  plane waves:    1799
 k-point   2 :   0.3333-0.0000 0.0000  plane waves:    1750
 k-point   3 :  -0.0000 0.3333-0.0000  plane waves:    1755
 k-point   4 :   0.3333 0.3333-0.0000  plane waves:    1744
 k-point   5 :  -0.3333 0.3333 0.0000  plane waves:    1761
 k-point   6 :  -0.0000 0.3333 0.3333  plane waves:    1748
 k-point   7 :  -0.3333 0.3333 0.3333  plane waves:    1762
 k-point   8 :   0.0000-0.3333 0.3333  plane waves:    1754

 maximum and minimum number of plane-waves per node :      1799     1744

 maximum number of plane-waves:      1799
 maximum index in each direction: 
   IXMAX=    8   IYMAX=    8   IZMAX=    8
   IXMIN=   -8   IYMIN=   -8   IZMIN=   -8


 serial   3D FFT for wavefunctions
 parallel 3D FFT for charge:
    minimum data exchange during FFTs selected (reduces bandwidth)


 total amount of memory used by VASP MPI-rank0    78995. kBytes
=======================================================================

   base      :      30000. kBytes
   nonl-proj :        978. kBytes
   fftplans  :      13060. kBytes
   grid      :      31228. kBytes
   one-center:         12. kBytes
   wavefun   :       3717. kBytes
 
     INWAV:  cpu time    0.0001: real time    0.0001
 Broyden mixing: mesh for mixing (old mesh)
   NGX = 17   NGY = 17   NGZ = 17
  (NGX  = 72   NGY  = 72   NGZ  = 72)
  gives a total of   4913 points

 initial charge density was supplied:
 charge density of overlapping atoms calculated
 number of electron       8.0000000 magnetization       0.0000000
 keeping initial charge density in first step


--------------------------------------------------------------------------------------------------------


 Maximum index for augmentation-charges        36297 (set IRDMAX)


--------------------------------------------------------------------------------------------------------


 First call to EWALD:  gamma=   0.511
 Maximum number of real-space cells 3x 3x 3
 Maximum number of reciprocal cells 3x 3x 3

    FEWALD:  cpu time    0.0010: real time    0.0011


--------------------------------------- Iteration      1(   1)  ---------------------------------------


    POTLOK:  cpu time    0.2575: real time    0.2615
    SETDIJ:  cpu time    0.2529: real time    0.2540
     EDDAV:  cpu time    0.4427: real time    0.4555
 BZINTS: Fermi energy:   10.346558;    8.000000 electrons
         Band energy: 0.242896E+02;  BLOECHL correction:   -0.358594
       DOS:  cpu time    0.0008: real time    0.0031
    --------------------------------------------
      LOOP:  cpu time    0.9539: real time    0.9741

 eigenvalue-minimisations  :   256
 total energy-change (2. order) : 0.1301466E+02  (-0.4036503E+03)
 number of electron       8.0000000 magnetization       0.0000000
 augmentation part        8.0000000 magnetization       0.0000000

 Free energy of the ion-electron system (eV)
  ---------------------------------------------------
  alpha Z        PSCENC =         3.22770013
  Ewald energy   TEWEN  =      -225.42643357
  -Hartree energ DENC   =       -11.63338281
  -exchange      EXHF   =         0.00000000
  -V(xc)+E(xc)   XCENC  =       -18.76258435
  PAW double counting   =       176.24759923     -141.06103558
  entropy T*S    EENTRO =         0.00000000
  eigenvalues    EBANDS =        24.28955269
  atomic energy  EATOM  =       206.13324734
  Solvation  Ediel_sol  =         0.00000000
  ---------------------------------------------------
  free energy    TOTEN  =        13.01466308 eV

  energy without entropy =       13.01466308  energy(sigma->0) =       13.01466308


--------------------------------------------------------------------------------------------------------




--------------------------------------- Iteration      1(   2)  ---------------------------------------


     EDDAV:  cpu time    0.5226: real time    0.5249
 BZINTS: Fermi energy:    5.021944;    8.000000 electrons
         Band energy: 0.119154E+01;  BLOECHL correction:   -0.000000
       DOS:  cpu time    0.0004: real time    0.0004
    --------------------------------------------
      LOOP:  cpu time    0.5229: real time    0.5253

 eigenvalue-minimisations  :   392
 total energy-change (2. order) :-0.2309801E+02  (-0.2295027E+02)
 number of electron       8.0000000 magnetization       0.0000000
 augmentation part        8.0000000 magnetization       0.0000000

 Free energy of the ion-electron system (eV)
  ---------------------------------------------------
  alpha Z        PSCENC =         3.22770013
  Ewald energy   TEWEN  =      -225.42643357
  -Hartree energ DENC   =       -11.63338281
  -exchange      EXHF   =         0.00000000
  -V(xc)+E(xc)   XCENC  =       -18.76258435
  PAW double counting   =       176.24759923     -141.06103558
  entropy T*S    EENTRO =         0.00000000
  eigenvalues    EBANDS =         1.19154088
  atomic energy  EATOM  =       206.13324734
  Solvation  Ediel_sol  =         0.00000000
  ---------------------------------------------------
  free energy    TOTEN  =       -10.08334872 eV

  energy without entropy =      -10.08334872  energy(sigma->0) =      -10.08334872


--------------------------------------------------------------------------------------------------------




--------------------------------------- Iteration      1(   3)  ---------------------------------------


     EDDAV:  cpu time    0.4636: real time    0.4707
 BZINTS: Fermi energy:    4.897230;    8.000000 electrons
         Band energy: 0.820220E+00;  BLOECHL correction:    0.000000
       DOS:  cpu time    0.0003: real time    0.0003
    --------------------------------------------
      LOOP:  cpu time    0.4639: real time    0.4710

 eigenvalue-minimisations  :   344
 total energy-change (2. order) :-0.3713206E+00  (-0.3713206E+00)
 number of electron       8.0000000 magnetization       0.0000000
 augmentation part        8.0000000 magnetization       0.0000000

 Free energy of the ion-electron system (eV)
  ---------------------------------------------------
  alpha Z        PSCENC =         3.22770013
  Ewald energy   TEWEN  =      -225.42643357
  -Hartree energ DENC   =       -11.63338281
  -exchange      EXHF   =         0.00000000
  -V(xc)+E(xc)   XCENC  =       -18.76258435
  PAW double counting   =       176.24759923     -141.06103558
  entropy T*S    EENTRO =         0.00000000
  eigenvalues    EBANDS =         0.82022027
  atomic energy  EATOM  =       206.13324734
  Solvation  Ediel_sol  =         0.00000000
  ---------------------------------------------------
  free energy    TOTEN  =       -10.45466934 eV

  energy without entropy =      -10.45466934  energy(sigma->0) =      -10.45466934


--------------------------------------------------------------------------------------------------------




--------------------------------------- Iteration      1(   4)  ---------------------------------------


     EDDAV:  cpu time    0.5526: real time    0.5552
 BZINTS: Fermi energy:    4.896346;    8.000000 electrons
         Band energy: 0.818774E+00;  BLOECHL correction:    0.000000
       DOS:  cpu time    0.0003: real time    0.0003
    --------------------------------------------
      LOOP:  cpu time    0.5530: real time    0.5555

 eigenvalue-minimisations  :   432
 total energy-change (2. order) :-0.1446075E-02  (-0.1446075E-02)
 number of electron       8.0000000 magnetization       0.0000000
 augmentation part        8.0000000 magnetization       0.0000000

 Free energy of the ion-electron system (eV)
  ---------------------------------------------------
  alpha Z        PSCENC =         3.22770013
  Ewald energy   TEWEN  =      -225.42643357
  -Hartree energ DENC   =       -11.63338281
  -exchange      EXHF   =         0.00000000
  -V(xc)+E(xc)   XCENC  =       -18.76258435
  PAW double counting   =       176.24759923     -141.06103558
  entropy T*S    EENTRO =         0.00000000
  eigenvalues    EBANDS =         0.81877419
  atomic energy  EATOM  =       206.13324734
  Solvation  Ediel_sol  =         0.00000000
  ---------------------------------------------------
  free energy    TOTEN  =       -10.45611542 eV

  energy without entropy =      -10.45611542  energy(sigma->0) =      -10.45611542


--------------------------------------------------------------------------------------------------------




--------------------------------------- Iteration      1(   5)  ---------------------------------------


     EDDAV:  cpu time    0.4566: real time    0.4585
 BZINTS: Fermi energy:    4.896234;    8.000000 electrons
         Band energy: 0.818773E+00;  BLOECHL correction:   -0.000000
       DOS:  cpu time    0.0003: real time    0.0003
    CHARGE:  cpu time    0.0512: real time    0.0514
    MIXING:  cpu time    0.0087: real time    0.0087
    --------------------------------------------
      LOOP:  cpu time    0.5168: real time    0.5189

 eigenvalue-minimisations  :   344
 total energy-change (2. order) :-0.1652237E-05  (-0.1652157E-05)
 number of electron       8.0000000 magnetization      -0.0000000
 augmentation part       -0.4582818 magnetization      -0.0000002

 Broyden mixing:
  rms(total) = 0.48585E+00    rms(broyden)= 0.48585E+00
  rms(prec ) = 0.10112E+01
  weight for this iteration     100.00

 Free energy of the ion-electron system (eV)
  ---------------------------------------------------
  alpha Z        PSCENC =         3.22770013
  Ewald energy   TEWEN  =      -225.42643357
  -Hartree energ DENC   =       -11.63338281
  -exchange      EXHF   =         0.00000000
  -V(xc)+E(xc)   XCENC  =       -18.76258435
  PAW double counting   =       176.24759923     -141.06103558
  entropy T*S    EENTRO =         0.00000000
  eigenvalues    EBANDS =         0.81877254
  atomic energy  EATOM  =       206.13324734
  Solvation  Ediel_sol  =         0.00000000
  ---------------------------------------------------
  free energy    TOTEN  =       -10.45611707 eV

  energy without entropy =      -10.45611707  energy(sigma->0) =      -10.45611707


--------------------------------------------------------------------------------------------------------




--------------------------------------- Iteration      1(   6)  ---------------------------------------


    POTLOK:  cpu time    0.2686: real time    0.2729
    SETDIJ:  cpu time    0.3416: real time    0.3493
     EDDAV:  cpu time    0.6533: real time    0.6717
 BZINTS: Fermi energy:    5.141981;    8.000000 electrons
         Band energy: 0.250652E+01;  BLOECHL correction:   -0.000000
       DOS:  cpu time    0.0003: real time    0.0003
    CHARGE:  cpu time    0.0651: real time    0.0665
    MIXING:  cpu time    0.0132: real time    0.0134
    --------------------------------------------
      LOOP:  cpu time    1.3421: real time    1.3741

 eigenvalue-minimisations  :   320
 total energy-change (2. order) : 0.1465766E+00  (-0.9081501E-02)
 number of electron       8.0000000 magnetization      -0.0000000
 augmentation part       -0.4516067 magnetization      -0.0000036

 Broyden mixing:
  rms(total) = 0.29849E+00    rms(broyden)= 0.29849E+00
  rms(prec ) = 0.60662E+00
  weight for this iteration     100.00

 eigenvalues of (default mixing * dielectric matrix)
  average eigenvalue GAMMA=   2.5806
  2.5806

 Free energy of the ion-electron system (eV)
  ---------------------------------------------------
  alpha Z        PSCENC =         3.22770013
  Ewald energy   TEWEN  =      -225.42643357
  -Hartree energ DENC   =       -13.32349329
  -exchange      EXHF   =         0.00000000
  -V(xc)+E(xc)   XCENC  =       -18.50838665
  PAW double counting   =       366.72794589     -331.64664302
  entropy T*S    EENTRO =         0.00000000
  eigenvalues    EBANDS =         2.50652272
  atomic energy  EATOM  =       206.13324734
  Solvation  Ediel_sol  =         0.00000000
  ---------------------------------------------------
  free energy    TOTEN  =       -10.30954046 eV

  energy without entropy =      -10.30954046  energy(sigma->0) =      -10.30954046


--------------------------------------------------------------------------------------------------------




--------------------------------------- Iteration      1(   7)  ---------------------------------------


    POTLOK:  cpu time    0.4512: real time    0.4861
    SETDIJ:  cpu time    0.4853: real time    0.6123
     EDDAV:  cpu time    0.9376: real time    1.0628
 BZINTS: Fermi energy:    5.546328;    8.000000 electrons
         Band energy: 0.514495E+01;  BLOECHL correction:    0.000000
       DOS:  cpu time    0.0003: real time    0.0003
    CHARGE:  cpu time    0.1275: real time    0.1319
    MIXING:  cpu time    0.0201: real time    0.0205
    --------------------------------------------
      LOOP:  cpu time    2.0222: real time    2.3141

 eigenvalue-minimisations  :   320
 total energy-change (2. order) : 0.6653156E-01  (-0.1830999E-01)
 number of electron       8.0000000 magnetization       0.0000000
 augmentation part       -0.4432799 magnetization      -0.0000019

 Broyden mixing:
  rms(total) = 0.19413E-01    rms(broyden)= 0.19413E-01
  rms(prec ) = 0.45600E-01
  weight for this iteration     100.00

 eigenvalues of (default mixing * dielectric matrix)
  average eigenvalue GAMMA=   2.0929
  1.8488  2.3371

 Free energy of the ion-electron system (eV)
  ---------------------------------------------------
  alpha Z        PSCENC =         3.22770013
  Ewald energy   TEWEN  =      -225.42643357
  -Hartree energ DENC   =       -16.20153828
  -exchange      EXHF   =         0.00000000
  -V(xc)+E(xc)   XCENC  =       -18.06609795
  PAW double counting   =       826.48789436     -791.54273321
  entropy T*S    EENTRO =         0.00000000
  eigenvalues    EBANDS =         5.14495229
  atomic energy  EATOM  =       206.13324734
  Solvation  Ediel_sol  =         0.00000000
  ---------------------------------------------------
  free energy    TOTEN  =       -10.24300890 eV

  energy without entropy =      -10.24300890  energy(sigma->0) =      -10.24300890


--------------------------------------------------------------------------------------------------------




--------------------------------------- Iteration      1(   8)  ---------------------------------------


    POTLOK:  cpu time    0.4604: real time    0.5038
    SETDIJ:  cpu time    0.3734: real time    0.3899
     EDDAV:  cpu time    0.8814: real time    0.9955
 BZINTS: Fermi energy:    5.528444;    8.000000 electrons
         Band energy: 0.505638E+01;  BLOECHL correction:    0.000000
       DOS:  cpu time    0.0004: real time    0.0004
    CHARGE:  cpu time    0.1065: real time    0.1277
    MIXING:  cpu time    0.0183: real time    0.0263
    --------------------------------------------
      LOOP:  cpu time    1.8402: real time    2.0435

 eigenvalue-minimisations  :   320
 total energy-change (2. order) :-0.2441222E-02  (-0.5275367E-03)
 number of electron       8.0000000 magnetization      -0.0000000
 augmentation part       -0.4443527 magnetization       0.0000046

 Broyden mixing:
  rms(total) = 0.73246E-02    rms(broyden)= 0.73246E-02
  rms(prec ) = 0.15098E-01
  weight for this iteration     100.00

 eigenvalues of (default mixing * dielectric matrix)
  average eigenvalue GAMMA=   2.1646
  2.8046  1.7421  1.9471

 Free energy of the ion-electron system (eV)
  ---------------------------------------------------
  alpha Z        PSCENC =         3.22770013
  Ewald energy   TEWEN  =      -225.42643357
  -Hartree energ DENC   =       -16.14612651
  -exchange      EXHF   =         0.00000000
  -V(xc)+E(xc)   XCENC  =       -18.06536501
  PAW double counting   =       831.21914267     -796.24399582
  entropy T*S    EENTRO =         0.00000000
  eigenvalues    EBANDS =         5.05638066
  atomic energy  EATOM  =       206.13324734
  Solvation  Ediel_sol  =         0.00000000
  ---------------------------------------------------
  free energy    TOTEN  =       -10.24545012 eV

  energy without entropy =      -10.24545012  energy(sigma->0) =      -10.24545012


--------------------------------------------------------------------------------------------------------




--------------------------------------- Iteration      1(   9)  ---------------------------------------


    POTLOK:  cpu time    0.4537: real time    0.5557
    SETDIJ:  cpu time    0.3106: real time    0.3190
     EDDAV:  cpu time    0.5223: real time    0.5306
 BZINTS: Fermi energy:    5.534282;    8.000000 electrons
         Band energy: 0.510061E+01;  BLOECHL correction:    0.000000
       DOS:  cpu time    0.0003: real time    0.0003
    CHARGE:  cpu time    0.0513: real time    0.0527
    MIXING:  cpu time    0.0090: real time    0.0090
    --------------------------------------------
      LOOP:  cpu time    1.3471: real time    1.4672

 eigenvalue-minimisations  :   368
 total energy-change (2. order) :-0.4369770E-03  (-0.4356099E-04)
 number of electron       8.0000000 magnetization       0.0000000
 augmentation part       -0.4444917 magnetization       0.0000005

 Broyden mixing:
  rms(total) = 0.58026E-02    rms(broyden)= 0.58026E-02
  rms(prec ) = 0.69965E-02
  weight for this iteration     100.00

 eigenvalues of (default mixing * dielectric matrix)
  average eigenvalue GAMMA=   1.9644
  2.9965  2.0936  2.0936  0.6737

 Free energy of the ion-electron system (eV)
  ---------------------------------------------------
  alpha Z        PSCENC =         3.22770013
  Ewald energy   TEWEN  =      -225.42643357
  -Hartree energ DENC   =       -16.20467947
  -exchange      EXHF   =         0.00000000
  -V(xc)+E(xc)   XCENC  =       -18.05523171
  PAW double counting   =       833.28394718     -798.30505113
  entropy T*S    EENTRO =         0.00000000
  eigenvalues    EBANDS =         5.10061414
  atomic energy  EATOM  =       206.13324734
  Solvation  Ediel_sol  =         0.00000000
  ---------------------------------------------------
  free energy    TOTEN  =       -10.24588710 eV

  energy without entropy =      -10.24588710  energy(sigma->0) =      -10.24588710


--------------------------------------------------------------------------------------------------------




--------------------------------------- Iteration      1(  10)  ---------------------------------------


    POTLOK:  cpu time    0.2598: real time    0.2630
    SETDIJ:  cpu time    0.2877: real time    0.2925
     EDDAV:  cpu time    0.4589: real time    0.4681
 BZINTS: Fermi energy:    5.535609;    8.000000 electrons
         Band energy: 0.511082E+01;  BLOECHL correction:   -0.000000
       DOS:  cpu time    0.0004: real time    0.0004
    CHARGE:  cpu time    0.0486: real time    0.0489
    MIXING:  cpu time    0.0086: real time    0.0086
    --------------------------------------------
      LOOP:  cpu time    1.0640: real time    1.0815

 eigenvalue-minimisations  :   320
 total energy-change (2. order) :-0.4397623E-04  (-0.4923721E-05)
 number of electron       8.0000000 magnetization       0.0000000
 augmentation part       -0.4444691 magnetization       0.0000005

 Broyden mixing:
  rms(total) = 0.10509E-02    rms(broyden)= 0.10509E-02
  rms(prec ) = 0.13342E-02
  weight for this iteration     100.00

 eigenvalues of (default mixing * dielectric matrix)
  average eigenvalue GAMMA=   1.8115
  3.0191  2.2705  2.2705  0.8184  0.6791

 Free energy of the ion-electron system (eV)
  ---------------------------------------------------
  alpha Z        PSCENC =         3.22770013
  Ewald energy   TEWEN  =      -225.42643357
  -Hartree energ DENC   =       -16.21497541
  -exchange      EXHF   =         0.00000000
  -V(xc)+E(xc)   XCENC  =       -18.05482820
  PAW double counting   =       823.74573151     -788.76719766
  entropy T*S    EENTRO =         0.00000000
  eigenvalues    EBANDS =         5.11082480
  atomic energy  EATOM  =       206.13324734
  Solvation  Ediel_sol  =         0.00000000
  ---------------------------------------------------
  free energy    TOTEN  =       -10.24593108 eV

  energy without entropy =      -10.24593108  energy(sigma->0) =      -10.24593108


--------------------------------------------------------------------------------------------------------




--------------------------------------- Iteration      1(  11)  ---------------------------------------


    POTLOK:  cpu time    0.2632: real time    0.2686
    SETDIJ:  cpu time    0.2856: real time    0.2897
     EDDAV:  cpu time    0.5313: real time    0.5385
 BZINTS: Fermi energy:    5.535358;    8.000000 electrons
         Band energy: 0.511065E+01;  BLOECHL correction:   -0.000000
       DOS:  cpu time    0.0003: real time    0.0003
    CHARGE:  cpu time    0.0496: real time    0.0508
    MIXING:  cpu time    0.0084: real time    0.0084
    --------------------------------------------
      LOOP:  cpu time    1.1383: real time    1.1563

 eigenvalue-minimisations  :   392
 total energy-change (2. order) :-0.1448495E-05  (-0.1477128E-06)
 number of electron       8.0000000 magnetization      -0.0000000
 augmentation part       -0.4444745 magnetization      -0.0000000

 Broyden mixing:
  rms(total) = 0.35989E-03    rms(broyden)= 0.35989E-03
  rms(prec ) = 0.52682E-03
  weight for this iteration     100.00

 eigenvalues of (default mixing * dielectric matrix)
  average eigenvalue GAMMA=   1.7495
  3.0169  2.4899  2.0571  0.9877  1.3174  0.6282

 Free energy of the ion-electron system (eV)
  ---------------------------------------------------
  alpha Z        PSCENC =         3.22770013
  Ewald energy   TEWEN  =      -225.42643357
  -Hartree energ DENC   =       -16.21484115
  -exchange      EXHF   =         0.00000000
  -V(xc)+E(xc)   XCENC  =       -18.05496721
  PAW double counting   =       823.00747153     -788.02875823
  entropy T*S    EENTRO =         0.00000000
  eigenvalues    EBANDS =         5.11064864
  atomic energy  EATOM  =       206.13324734
  Solvation  Ediel_sol  =         0.00000000
  ---------------------------------------------------
  free energy    TOTEN  =       -10.24593252 eV

  energy without entropy =      -10.24593252  energy(sigma->0) =      -10.24593252


--------------------------------------------------------------------------------------------------------




--------------------------------------- Iteration      1(  12)  ---------------------------------------


    POTLOK:  cpu time    0.2591: real time    0.2625
    SETDIJ:  cpu time    0.2842: real time    0.2880
     EDDAV:  cpu time    0.4818: real time    0.4902
 BZINTS: Fermi energy:    5.535469;    8.000000 electrons
         Band energy: 0.511046E+01;  BLOECHL correction:   -0.000000
       DOS:  cpu time    0.0003: real time    0.0003
    CHARGE:  cpu time    0.0502: real time    0.0504
    MIXING:  cpu time    0.0090: real time    0.0090
    --------------------------------------------
      LOOP:  cpu time    1.0847: real time    1.1005

 eigenvalue-minimisations  :   336
 total energy-change (2. order) :-0.1701403E-06  (-0.1663053E-07)
 number of electron       8.0000000 magnetization       0.0000000
 augmentation part       -0.4444750 magnetization      -0.0000001

 Broyden mixing:
  rms(total) = 0.12973E-03    rms(broyden)= 0.12973E-03
  rms(prec ) = 0.28433E-03
  weight for this iteration     100.00

 eigenvalues of (default mixing * dielectric matrix)
  average eigenvalue GAMMA=   1.7922
  3.0613  2.5190  2.2046  2.2046  0.9648  0.9648  0.6259

 Free energy of the ion-electron system (eV)
  ---------------------------------------------------
  alpha Z        PSCENC =         3.22770013
  Ewald energy   TEWEN  =      -225.42643357
  -Hartree energ DENC   =       -16.21469112
  -exchange      EXHF   =         0.00000000
  -V(xc)+E(xc)   XCENC  =       -18.05504635
  PAW double counting   =       823.31440275     -788.33556878
  entropy T*S    EENTRO =         0.00000000
  eigenvalues    EBANDS =         5.11045691
  atomic energy  EATOM  =       206.13324734
  Solvation  Ediel_sol  =         0.00000000
  ---------------------------------------------------
  free energy    TOTEN  =       -10.24593269 eV

  energy without entropy =      -10.24593269  energy(sigma->0) =      -10.24593269


--------------------------------------------------------------------------------------------------------




--------------------------------------- Iteration      1(  13)  ---------------------------------------


    POTLOK:  cpu time    0.2806: real time    0.2861
    SETDIJ:  cpu time    0.2883: real time    0.2932
     EDDAV:  cpu time    0.4642: real time    0.4719
 BZINTS: Fermi energy:    5.535771;    8.000000 electrons
         Band energy: 0.511152E+01;  BLOECHL correction:    0.000000
       DOS:  cpu time    0.0004: real time    0.0004
    CHARGE:  cpu time    0.0515: real time    0.0517
    MIXING:  cpu time    0.0093: real time    0.0095
    --------------------------------------------
      LOOP:  cpu time    1.0943: real time    1.1128

 eigenvalue-minimisations  :   320
 total energy-change (2. order) :-0.2714649E-06  (-0.3282424E-07)
 number of electron       8.0000000 magnetization       0.0000000
 augmentation part       -0.4444684 magnetization       0.0000001

 Broyden mixing:
  rms(total) = 0.33638E-04    rms(broyden)= 0.33638E-04
  rms(prec ) = 0.42875E-04
  weight for this iteration     100.00

 eigenvalues of (default mixing * dielectric matrix)
  average eigenvalue GAMMA=   1.7509
  3.2341  2.5959  2.4839  2.2882  1.0260  1.0260  0.7277  0.6258

 Free energy of the ion-electron system (eV)
  ---------------------------------------------------
  alpha Z        PSCENC =         3.22770013
  Ewald energy   TEWEN  =      -225.42643357
  -Hartree energ DENC   =       -16.21572872
  -exchange      EXHF   =         0.00000000
  -V(xc)+E(xc)   XCENC  =       -18.05503921
  PAW double counting   =       823.35065894     -788.37186215
  entropy T*S    EENTRO =         0.00000000
  eigenvalues    EBANDS =         5.11152429
  atomic energy  EATOM  =       206.13324734
  Solvation  Ediel_sol  =         0.00000000
  ---------------------------------------------------
  free energy    TOTEN  =       -10.24593297 eV

  energy without entropy =      -10.24593297  energy(sigma->0) =      -10.24593297


--------------------------------------------------------------------------------------------------------




--------------------------------------- Iteration      1(  14)  ---------------------------------------


    POTLOK:  cpu time    0.2625: real time    0.2663
    SETDIJ:  cpu time    0.2856: real time    0.2896
     EDDAV:  cpu time    0.7713: real time    0.8562
 BZINTS: Fermi energy:    5.535776;    8.000000 electrons
         Band energy: 0.511152E+01;  BLOECHL correction:    0.000000
       DOS:  cpu time    0.0004: real time    0.0004
    --------------------------------------------
      LOOP:  cpu time    1.3197: real time    1.4125

 eigenvalue-minimisations  :   312
 total energy-change (2. order) : 0.3458382E-08  (-0.5934992E-09)
 number of electron       8.0000000 magnetization       0.0000000
 augmentation part       -0.4444684 magnetization       0.0000001

 Free energy of the ion-electron system (eV)
  ---------------------------------------------------
  alpha Z        PSCENC =         3.22770013
  Ewald energy   TEWEN  =      -225.42643357
  -Hartree energ DENC   =       -16.21572385
  -exchange      EXHF   =         0.00000000
  -V(xc)+E(xc)   XCENC  =       -18.05504102
  PAW double counting   =       823.36919447     -788.39039174
  entropy T*S    EENTRO =         0.00000000
  eigenvalues    EBANDS =         5.11151529
  atomic energy  EATOM  =       206.13324734
  Solvation  Ediel_sol  =         0.00000000
  ---------------------------------------------------
  free energy    TOTEN  =       -10.24593296 eV

  energy without entropy =      -10.24593296  energy(sigma->0) =      -10.24593296


--------------------------------------------------------------------------------------------------------




 average (electrostatic) potential at core
  the test charge radii are     0.9892
  (the norm of the test charge is              1.0000)
       1 -83.5395       2 -83.5395
 
 
 
 E-fermi :   5.5358     XC(G=0):  -9.1806     alpha+bet :-11.4985

 Fermi energy:         5.5357758387

 spin component 1

 k-point     1 :       0.0000    0.0000    0.0000
  band No.  band energies     occupation 
      1      -6.1746      1.00000
      2       5.5143      1.00000
      3       5.5238      1.00000
      4       5.5356      1.00000
      5       7.9567      0.00000
      6       8.0069      0.00000
      7       8.1029      0.00000
      8       8.4637      0.00000

 k-point     2 :       0.3333   -0.0000    0.0000
  band No.  band energies     occupation 
      1      -4.8328      1.00000
      2       0.3057      1.00000
      3       4.5272      1.00000
      4       4.5274      1.00000
      5       7.0880      0.00000
      6       8.9268      0.00000
      7       9.0111      0.00000
      8      13.1847      0.00000

 k-point     3 :      -0.0000    0.3333   -0.0000
  band No.  band energies     occupation 
      1      -4.8615      1.00000
      2       0.2835      1.00000
      3       4.5681      1.00000
      4       4.5697      1.00000
      5       7.1727      0.00000
      6       8.9456      0.00000
      7       9.0308      0.00000
      8      13.1972      0.00000

 k-point     4 :       0.3333    0.3333   -0.0000
  band No.  band energies     occupation 
      1      -4.3342      1.00000
      2       0.5453      1.00000
      3       3.1816      1.00000
      4       3.1818      1.00000
      5       6.2751      0.00000
      6       7.5304      0.00000
      7      12.5875      0.00000
      8      12.5886      0.00000

 k-point     5 :      -0.3333    0.3333    0.0000
  band No.  band energies     occupation 
      1      -3.0341      1.00000
      2      -1.1490      1.00000
      3       1.2752      1.00000
      4       3.4755      1.00000
      5       7.0915      0.00000
      6      11.2588      0.00000
      7      11.8182      0.00000
      8      12.3694      0.00000

 k-point     6 :      -0.0000    0.3333    0.3333
  band No.  band energies     occupation 
      1      -4.3347      1.00000
      2       0.5445      1.00000
      3       3.1346      1.00000
      4       3.2298      1.00000
      5       6.2741      0.00000
      6       7.5323      0.00000
      7      12.5853      0.00000
      8      12.5966      0.00000

 k-point     7 :      -0.3333    0.3333    0.3333
  band No.  band energies     occupation 
      1      -2.9872      1.00000
      2      -1.1813      1.00000
      3       1.2764      1.00000
      4       3.4385      1.00000
      5       7.0484      0.00000
      6      11.3537      0.00000
      7      11.7972      0.00000
      8      12.3935      0.00000

 k-point     8 :       0.0000   -0.3333    0.3333
  band No.  band energies     occupation 
      1      -3.0798      1.00000
      2      -1.1187      1.00000
      3       1.2738      1.00000
      4       3.5132      1.00000
      5       7.1362      0.00000
      6      11.1588      0.00000
      7      11.8562      0.00000
      8      12.3768      0.00000
 Fermi energy:         5.5357758387

 spin component 2

 k-point     1 :       0.0000    0.0000    0.0000
  band No.  band energies     occupation 
      1      -6.1746      1.00000
      2       5.5143      1.00000
      3       5.5238      1.00000
      4       5.5356      1.00000
      5       7.9567      0.00000
      6       8.0069      0.00000
      7       8.1029      0.00000
      8       8.4637      0.00000

 k-point     2 :       0.3333   -0.0000    0.0000
  band No.  band energies     occupation 
      1      -4.8328      1.00000
      2       0.3057      1.00000
      3       4.5272      1.00000
      4       4.5274      1.00000
      5       7.0880      0.00000
      6       8.9268      0.00000
      7       9.0111      0.00000
      8      13.1847      0.00000

 k-point     3 :      -0.0000    0.3333   -0.0000
  band No.  band energies     occupation 
      1      -4.8615      1.00000
      2       0.2835      1.00000
      3       4.5681      1.00000
      4       4.5697      1.00000
      5       7.1727      0.00000
      6       8.9456      0.00000
      7       9.0308      0.00000
      8      13.1972      0.00000

 k-point     4 :       0.3333    0.3333   -0.0000
  band No.  band energies     occupation 
      1      -4.3342      1.00000
      2       0.5453      1.00000
      3       3.1816      1.00000
      4       3.1818      1.00000
      5       6.2751      0.00000
      6       7.5304      0.00000
      7      12.5875      0.00000
      8      12.5886      0.00000

 k-point     5 :      -0.3333    0.3333    0.0000
  band No.  band energies     occupation 
      1      -3.0341      1.00000
      2      -1.1490      1.00000
      3       1.2752      1.00000
      4       3.4755      1.00000
      5       7.0915      0.00000
      6      11.2588      0.00000
      7      11.8182      0.00000
      8      12.3694      0.00000

 k-point     6 :      -0.0000    0.3333    0.3333
  band No.  band energies     occupation 
      1      -4.3347      1.00000
      2       0.5445      1.00000
      3       3.1346      1.00000
      4       3.2298      1.00000
      5       6.2741      0.00000
      6       7.5323      0.00000
      7      12.5853      0.00000
      8      12.5966      0.00000

 k-point     7 :      -0.3333    0.3333    0.3333
  band No.  band energies     occupation 
      1      -2.9872      1.00000
      2      -1.1813      1.00000
      3       1.2764      1.00000
      4       3.4385      1.00000
      5       7.0484      0.00000
      6      11.3537      0.00000
      7      11.7972      0.00000
      8      12.3935      0.00000

 k-point     8 :       0.0000   -0.3333    0.3333
  band No.  band energies     occupation 
      1      -3.0798      1.00000
      2      -1.1187      1.00000
      3       1.2738      1.00000
      4       3.5132      1.00000
      5       7.1362      0.00000
      6      11.1588      0.00000
      7      11.8562      0.00000
      8      12.3768      0.00000


--------------------------------------------------------------------------------------------------------


 soft charge-density along one line, spin component           1
         0         1         2         3         4         5         6         7         8         9
 total charge-density along one line
 
 soft charge-density along one line, spin component           2
         0         1         2         3         4         5         6         7         8         9
 total charge-density along one line
 
 pseudopotential strength for first ion, spin component:           1
 18.445  25.734  -0.000  -0.000   0.000  -0.000  -0.000   0.001
 25.734  35.909  -0.000  -0.000   0.001  -0.000  -0.000   0.001
 -0.000  -0.000   4.182   0.000   0.000   7.793   0.000   0.000
 -0.000  -0.000   0.000   4.182   0.000   0.000   7.793   0.000
  0.000   0.001   0.000   0.000   4.182   0.000   0.000   7.793
 -0.000  -0.000   7.793   0.000   0.000  14.533   0.000   0.000
 -0.000  -0.000   0.000   7.793   0.000   0.000  14.533   0.000
  0.001   0.001   0.000   0.000   7.793   0.000   0.000  14.533
 pseudopotential strength for first ion, spin component:           2
 18.445  25.734   0.000   0.000   0.000   0.000   0.000   0.001
 25.734  35.909   0.000   0.000   0.001   0.000   0.000   0.001
  0.000   0.000   4.182   0.000   0.000   7.793   0.000   0.000
  0.000   0.000   0.000   4.182   0.000   0.000   7.793   0.000
  0.000   0.001   0.000   0.000   4.182   0.000   0.000   7.793
  0.000   0.000   7.793   0.000   0.000  14.533   0.000   0.000
  0.000   0.000   0.000   7.793   0.000   0.000  14.533   0.000
  0.001   0.001   0.000   0.000   7.793   0.000   0.000  14.533
 total augmentation occupancy for first ion, spin component:           1
  5.459  -2.017  -0.000   0.000  -0.040   0.000  -0.000   0.014
 -2.017   0.816   0.000   0.000   0.020   0.000  -0.000  -0.007
 -0.000   0.000   2.901   0.022   0.000  -0.634  -0.005  -0.000
  0.000   0.000   0.022   2.901  -0.000  -0.005  -0.634   0.000
 -0.040   0.020   0.000  -0.000   2.901  -0.000   0.000  -0.634
  0.000   0.000  -0.634  -0.005  -0.000   0.148   0.001   0.000
 -0.000  -0.000  -0.005  -0.634   0.000   0.001   0.149   0.000
  0.014  -0.007  -0.000   0.000  -0.634   0.000   0.000   0.149
 total augmentation occupancy for first ion, spin component:           2
 -0.000   0.000  -0.000   0.000  -0.000   0.000   0.000   0.000
  0.000  -0.000   0.000  -0.000   0.000  -0.000   0.000  -0.000
 -0.000   0.000  -0.000   0.000  -0.000   0.000  -0.000   0.000
  0.000  -0.000   0.000  -0.000   0.000  -0.000   0.000  -0.000
 -0.000   0.000  -0.000   0.000  -0.000   0.000  -0.000   0.000
  0.000  -0.000   0.000  -0.000   0.000  -0.000   0.000  -0.000
  0.000  -0.000  -0.000   0.000  -0.000   0.000  -0.000   0.000
  0.000  -0.000   0.000  -0.000   0.000  -0.000   0.000  -0.000


------------------------ aborting loop because EDIFF is reached ----------------------------------------





 total charge

# of ion       s       p       d       tot
------------------------------------------
    1        0.718   0.957   0.000   1.675
    2        0.718   0.957   0.000   1.675
--------------------------------------------------
tot          1.436   1.914   0.000   3.350



 magnetization (x)

# of ion       s       p       d       tot
------------------------------------------
    1        0.000   0.000   0.000   0.000
    2        0.000   0.000   0.000   0.000
--------------------------------------------------
tot          0.000   0.000   0.000   0.000
 
    CHARGE:  cpu time    0.0897: real time    0.0931
    FORLOC:  cpu time    0.0106: real time    0.0107
    FORNL :  cpu time    0.0975: real time    0.1168
    STRESS:  cpu time    0.2330: real time    0.2419
    FORCOR:  cpu time    0.3023: real time    0.3157
    FORHAR:  cpu time    0.0263: real time    0.0266
    MIXING:  cpu time    0.0085: real time    0.0085
    OFIELD:  cpu time    0.0001: real time    0.0001

  FORCE on cell =-STRESS in cart. coord.  units (eV):
  Direction    XX          YY          ZZ          XY          YZ          ZX
  --------------------------------------------------------------------------------------
  Alpha Z     3.22770     3.22770     3.22770
  Ewald     -75.14120   -75.15112   -75.13422     0.00000     0.84552    -0.00000
  Hartree     5.40387     5.40379     5.40804     0.00000     0.21283     0.00000
  E(xc)     -25.26279   -25.26267   -25.26285     0.00000    -0.00903     0.00000
  Local     -30.21176   -30.20268   -30.22420     0.00000    -1.07706     0.00000
  n-local    76.30771    78.28917    74.32455     2.31800     0.18612     0.01416
  augment   -11.30373   -11.30367   -11.30407    -0.00000    -0.01995    -0.00000
  Kinetic    56.98423    58.73305    55.24148     3.62083     0.14541     0.02852
  Fock        0.00000     0.00000     0.00000     0.00000     0.00000     0.00000
  -------------------------------------------------------------------------------------
  Total       0.00403     0.00254     0.00747     0.00000     0.24651     0.00000
  in kB       0.15461     0.09747     0.28683     0.00000     9.46734     0.00000
  external pressure =        0.18 kB  Pullay stress =        0.00 kB


 VOLUME and BASIS-vectors are now :
 -----------------------------------------------------------------------------
  energy-cutoff  :      700.00
  volume of cell :       41.72
      direct lattice vectors                 reciprocal lattice vectors
     0.000000000  2.725249000  2.752639000    -0.181634764  0.181634764  0.183460324
     2.752777000 -0.027528000  2.752639000     0.181634764 -0.181634764  0.179827416
     2.752777000  2.752777000  0.000000000     0.181634764  0.181634764 -0.179827416

  length of vectors
     3.873500171  3.893014316  3.893014568     0.315658146  0.313560639  0.313560639


 FORCES acting on ions
    electron-ion (+dipol)            ewald-force                    non-local-force                 convergence-correction
 -----------------------------------------------------------------------------------------------
   -.100E+01 -.561E-08 -.628E-08   0.765E+00 0.731E-15 0.276E-14   0.319E+00 -.904E-16 -.513E-16   0.446E-04 -.211E-10 -.213E-10
   0.100E+01 0.561E-08 0.628E-08   -.765E+00 -.108E-15 -.215E-14   -.319E+00 0.113E-15 0.808E-16   -.446E-04 0.211E-10 0.213E-10
 -----------------------------------------------------------------------------------------------
   0.386E-12 0.105E-12 0.243E-12   0.000E+00 0.623E-15 0.611E-15   0.555E-16 0.226E-16 0.294E-16   -.276E-14 -.201E-14 0.150E-14
 
 
 POSITION                                       TOTAL-FORCE (eV/Angst)
 -----------------------------------------------------------------------------------
      4.12917      4.08787      4.12896         0.079687      0.000000     -0.000000
      2.75278      2.72525      2.75264        -0.079687     -0.000000      0.000000
 -----------------------------------------------------------------------------------
    total drift:                                0.000000      0.000000      0.000000


--------------------------------------------------------------------------------------------------------



  FREE ENERGIE OF THE ION-ELECTRON SYSTEM (eV)
  ---------------------------------------------------
  free  energy   TOTEN  =       -10.24593296 eV

  energy  without entropy=      -10.24593296  energy(sigma->0) =      -10.24593296
 


--------------------------------------------------------------------------------------------------------


    POTLOK:  cpu time    0.5365: real time    0.5457


--------------------------------------------------------------------------------------------------------




--------------------------------------------------------------------------------------------------------


     LOOP+:  cpu time   18.2707: real time   19.4583
    4ORBIT:  cpu time    0.0000: real time    0.0000



 total charge

# of ion       s       p       d       tot
------------------------------------------
    1        0.718   0.957   0.000   1.675
    2        0.718   0.957   0.000   1.675
--------------------------------------------------
tot          1.436   1.914   0.000   3.350



 magnetization (x)

# of ion       s       p       d       tot
------------------------------------------
    1        0.000   0.000   0.000   0.000
    2        0.000   0.000   0.000   0.000
--------------------------------------------------
tot          0.000   0.000   0.000   0.000
 
 BZINTS: Fermi energy:    5.535776;    8.000000 electrons
         Band energy: 0.511152E+01;  BLOECHL correction:    0.000000

 total amount of memory used by VASP MPI-rank0    78995. kBytes
=======================================================================

   base      :      30000. kBytes
   nonl-proj :        978. kBytes
   fftplans  :      13060. kBytes
   grid      :      31228. kBytes
   one-center:         12. kBytes
   wavefun   :       3717. kBytes
 
  
  
 General timing and accounting informations for this job:
 ========================================================
  
                  Total CPU time used (sec):       21.931
                            User time (sec):       19.716
                          System time (sec):        2.215
                         Elapsed time (sec):       23.282
  
                   Maximum memory used (kb):   120442880.
                   Average memory used (kb):          N/A
  
                          Minor page faults:       186607
                          Major page faults:           19
                 Voluntary context switches:           19
