<?xml version="1.0" encoding="ISO-8859-1"?>
<modeling>
 <generator>
  <i name="program" type="string">vasp </i>
  <i name="version" type="string">6.2.1  </i>
  <i name="subversion" type="string">16May21 (build Oct 27 2021 18:14:32) complex                          parallel </i>
  <i name="platform" type="string">LinuxIFC </i>
  <i name="date" type="string">2021 11 08 </i>
  <i name="time" type="string">17:25:38 </i>
 </generator>
 <incar>
  <i type="string" name="PREC">Accurate</i>
  <i type="string" name="ALGO">Normal</i>
  <i type="int" name="ISPIN">     2</i>
  <i type="int" name="NELM">   200</i>
  <i type="int" name="IBRION">     2</i>
  <i name="EDIFF">      0.00000010</i>
  <i name="EDIFFG">     -0.00100000</i>
  <i type="int" name="NSW">     1</i>
  <i type="int" name="ISIF">     3</i>
  <i name="ENCUT">    700.00000000</i>
  <i name="ENAUG">   1360.00000000</i>
  <v name="MAGMOM">      0.00000000      0.00000000</v>
  <i type="logical" name="LREAL"> F  </i>
  <i type="int" name="ISMEAR">    -5</i>
  <i name="SIGMA">      0.05000000</i>
  <i name="KSPACING">      0.29252878</i>
  <i type="logical" name="LWAVE"> F  </i>
  <i type="logical" name="LCHARG"> T  </i>
  <i type="logical" name="LVTOT"> T  </i>
  <i type="int" name="LORBIT">    11</i>
  <i type="logical" name="LELF"> T  </i>
  <i type="logical" name="LASPH"> T  </i>
  <i type="logical" name="LAECHG"> F  </i>
  <i type="logical" name="LMIXTAU"> T  </i>
 </incar>
 <primitive_cell>
  <structure name="primitive_cell" >
   <crystal>
    <varray name="basis" >
     <v>       0.00000000       2.72524900       2.75263900 </v>
     <v>       2.75277700      -0.02752800       2.75263900 </v>
     <v>       2.75277700       2.75277700       0.00000000 </v>
    </varray>
    <i name="volume">     41.71779219 </i>
    <varray name="rec_basis" >
     <v>      -0.18163476       0.18163476       0.18346032 </v>
     <v>       0.18163476      -0.18163476       0.17982742 </v>
     <v>       0.18163476       0.18163476      -0.17982742 </v>
    </varray>
   </crystal>
   <varray name="positions" >
    <v>       0.75000000       0.75000000       0.75000000 </v>
    <v>       0.50000000       0.50000000       0.50000000 </v>
   </varray>
  </structure>
  <varray name="primitive_index" >
   <v type="int" >        1 </v>
   <v type="int" >        2 </v>
  </varray>
 </primitive_cell>
 <kpoints>
  <generation param="Gamma">
   <v type="int" name="divisions">       3        3        3 </v>
   <v name="usershift">      0.00000000       0.00000000       0.00000000 </v>
   <v name="genvec1">      0.33333333      -0.00000000      -0.00000000 </v>
   <v name="genvec2">      0.00000000       0.33333333       0.00000000 </v>
   <v name="genvec3">     -0.00000000      -0.00000000       0.33333333 </v>
   <v name="shift">      0.00000000       0.00000000       0.00000000 </v>
  </generation>
  <varray name="kpointlist" >
   <v>       0.00000000       0.00000000       0.00000000 </v>
   <v>       0.33333333      -0.00000000       0.00000000 </v>
   <v>      -0.00000000       0.33333333      -0.00000000 </v>
   <v>       0.33333333       0.33333333      -0.00000000 </v>
   <v>      -0.33333333       0.33333333       0.00000000 </v>
   <v>      -0.00000000       0.33333333       0.33333333 </v>
   <v>      -0.33333333       0.33333333       0.33333333 </v>
   <v>       0.00000000      -0.33333333       0.33333333 </v>
  </varray>
  <varray name="weights" >
   <v>       0.03703704 </v>
   <v>       0.14814815 </v>
   <v>       0.14814815 </v>
   <v>       0.14814815 </v>
   <v>       0.29629630 </v>
   <v>       0.07407407 </v>
   <v>       0.07407407 </v>
   <v>       0.07407407 </v>
  </varray>
  <varray name="tetrahedronlist"  type="int" >
   <v type="int" >        8        1        2        3        4 </v>
   <v type="int" >        4        1        2        2        4 </v>
   <v type="int" >        8        1        2        3        6 </v>
   <v type="int" >        8        2        4        5        7 </v>
   <v type="int" >        8        2        2        5        7 </v>
   <v type="int" >        4        2        2        4        7 </v>
   <v type="int" >        8        2        3        5        6 </v>
   <v type="int" >        8        2        5        6        7 </v>
   <v type="int" >        4        3        3        5        5 </v>
   <v type="int" >        8        3        4        5        5 </v>
   <v type="int" >        8        2        3        4        5 </v>
   <v type="int" >        8        3        3        5        8 </v>
   <v type="int" >        8        3        5        6        8 </v>
   <v type="int" >        8        4        4        5        5 </v>
   <v type="int" >        4        4        5        5        7 </v>
   <v type="int" >        8        4        5        5        5 </v>
   <v type="int" >        8        2        4        5        5 </v>
   <v type="int" >        8        3        4        5        8 </v>
   <v type="int" >        4        4        5        5        8 </v>
   <v type="int" >        4        5        5        7        8 </v>
   <v type="int" >        8        5        6        7        8 </v>
   <v type="int" >        4        1        3        3        4 </v>
   <v type="int" >        4        3        3        4        8 </v>
   <v type="int" >        4        2        2        5        5 </v>
   <v type="int" >        2        5        5        5        5 </v>
   <v type="int" >        4        6        6        7        8 </v>
  </varray>
  <i name="volumeweight">      0.00617284 </i>
 </kpoints>
 <parameters>
  <separator name="general" >
   <i type="string" name="SYSTEM">unknown system</i>
   <i type="logical" name="LCOMPAT"> F  </i>
  </separator>
  <separator name="electronic" >
   <i type="string" name="PREC">accura</i>
   <i name="ENMAX">    700.00000000</i>
   <i name="ENAUG">   1360.00000000</i>
   <i name="EDIFF">      0.00000010</i>
   <i type="int" name="IALGO">    38</i>
   <i type="int" name="IWAVPR">    11</i>
   <i type="int" name="NBANDS">     8</i>
   <i type="int" name="NBANDSLOW">    -1</i>
   <i type="int" name="NBANDSHIGH">    -1</i>
   <i name="NELECT">      8.00000000</i>
   <i type="int" name="TURBO">     0</i>
   <i type="int" name="IRESTART">     0</i>
   <i type="int" name="NREBOOT">     0</i>
   <i type="int" name="NMIN">     0</i>
   <i name="EREF">      0.00000000</i>
   <separator name="electronic smearing" >
    <i type="int" name="ISMEAR">    -5</i>
    <i name="SIGMA">      0.05000000</i>
    <i name="KSPACING">      0.29252878</i>
    <i type="logical" name="KGAMMA"> T  </i>
    <i type="logical" name="KBLOWUP"> T  </i>
   </separator>
   <separator name="electronic projectors" >
    <i type="logical" name="LREAL"> F  </i>
    <v name="ROPT">      0.00000000</v>
    <i type="int" name="LMAXPAW">  -100</i>
    <i type="int" name="LMAXMIX">     2</i>
    <i type="logical" name="NLSPLINE"> F  </i>
   </separator>
   <separator name="electronic startup" >
    <i type="int" name="ISTART">     0</i>
    <i type="int" name="ICHARG">     2</i>
    <i type="int" name="INIWAV">     1</i>
   </separator>
   <separator name="electronic spin" >
    <i type="int" name="ISPIN">     2</i>
    <i type="logical" name="LNONCOLLINEAR"> F  </i>
    <v name="MAGMOM">      0.00000000      0.00000000</v>
    <i name="NUPDOWN">     -1.00000000</i>
    <i type="logical" name="LSORBIT"> F  </i>
    <v name="SAXIS">      0.00000000      0.00000000      1.00000000</v>
    <i type="logical" name="LSPIRAL"> F  </i>
    <v name="QSPIRAL">      0.00000000      0.00000000      0.00000000</v>
    <i type="logical" name="LZEROZ"> F  </i>
   </separator>
   <separator name="electronic exchange-correlation" >
    <i type="logical" name="LASPH"> T  </i>
    <i type="logical" name="LMETAGGA"> F  </i>
   </separator>
   <separator name="electronic convergence" >
    <i type="int" name="NELM">   200</i>
    <i type="int" name="NELMDL">    -5</i>
    <i type="int" name="NELMIN">     2</i>
    <i name="ENINI">    700.00000000</i>
    <separator name="electronic convergence detail" >
     <i type="logical" name="LDIAG"> T  </i>
     <i type="logical" name="LSUBROT"> F  </i>
     <i name="WEIMIN">      0.00100000</i>
     <i name="EBREAK">      0.00000000</i>
     <i name="DEPER">      0.30000000</i>
     <i type="int" name="NRMM">     4</i>
     <i name="TIME">      0.40000000</i>
    </separator>
   </separator>
   <separator name="electronic mixer" >
    <i name="AMIX">      0.40000000</i>
    <i name="BMIX">      1.00000000</i>
    <i name="AMIN">      0.10000000</i>
    <i name="AMIX_MAG">      1.60000000</i>
    <i name="BMIX_MAG">      1.00000000</i>
    <separator name="electronic mixer details" >
     <i type="int" name="IMIX">     4</i>
     <i type="logical" name="MIXFIRST"> F  </i>
     <i type="int" name="MAXMIX">   -45</i>
     <i name="WC">    100.00000000</i>
     <i type="int" name="INIMIX">     1</i>
     <i type="int" name="MIXPRE">     1</i>
     <i type="int" name="MREMOVE">     5</i>
    </separator>
   </separator>
   <separator name="electronic dipolcorrection" >
    <i type="logical" name="LDIPOL"> F  </i>
    <i type="logical" name="LMONO"> F  </i>
    <i type="int" name="IDIPOL">     0</i>
    <i name="EPSILON">      1.00000000</i>
    <v name="DIPOL">   -100.00000000   -100.00000000   -100.00000000</v>
    <i name="EFIELD">      0.00000000</i>
   </separator>
  </separator>
  <separator name="grids" >
   <i type="int" name="NGX">    36</i>
   <i type="int" name="NGY">    36</i>
   <i type="int" name="NGZ">    36</i>
   <i type="int" name="NGXF">    72</i>
   <i type="int" name="NGYF">    72</i>
   <i type="int" name="NGZF">    72</i>
   <i type="logical" name="ADDGRID"> F  </i>
  </separator>
  <separator name="ionic" >
   <i type="int" name="NSW">     1</i>
   <i type="int" name="IBRION">     2</i>
   <i type="int" name="MDALGO">     0</i>
   <i type="int" name="ISIF">     3</i>
   <i name="PSTRESS">      0.00000000</i>
   <i name="EDIFFG">     -0.00100000</i>
   <i type="int" name="NFREE">     1</i>
   <i name="POTIM">      0.50000000</i>
   <i name="SMASS">     -3.00000000</i>
   <i name="SCALEE">      1.00000000</i>
  </separator>
  <separator name="ionic md" >
   <i name="TEBEG">      0.00010000</i>
   <i name="TEEND">      0.00010000</i>
   <i type="int" name="NBLOCK">     1</i>
   <i type="int" name="KBLOCK">     1</i>
   <i type="int" name="NPACO">   256</i>
   <i name="APACO">     16.00000000</i>
  </separator>
  <separator name="symmetry" >
   <i type="int" name="ISYM">     2</i>
   <i name="SYMPREC">      0.00001000</i>
  </separator>
  <separator name="dos" >
   <i type="int" name="LORBIT">    11</i>
   <v name="RWIGS">     -1.00000000</v>
   <i type="int" name="NEDOS">   301</i>
   <i name="EMIN">     10.00000000</i>
   <i name="EMAX">    -10.00000000</i>
   <i name="EFERMI">      0.00000000</i>
  </separator>
  <separator name="writing" >
   <i type="int" name="NWRITE">     2</i>
   <i type="logical" name="LWAVE"> F  </i>
   <i type="logical" name="LDOWNSAMPLE"> F  </i>
   <i type="logical" name="LCHARG"> T  </i>
   <i type="logical" name="LPARD"> F  </i>
   <i type="logical" name="LVTOT"> T  </i>
   <i type="logical" name="LVHAR"> F  </i>
   <i type="logical" name="LELF"> T  </i>
   <i type="logical" name="LOPTICS"> F  </i>
   <v name="STM">      0.00000000      0.00000000      0.00000000      0.00000000      0.00000000      0.00000000      0.00000000</v>
  </separator>
  <separator name="performance" >
   <i type="int" name="NPAR">     1</i>
   <i type="int" name="NSIM">     4</i>
   <i type="int" name="NBLK">    -1</i>
   <i type="logical" name="LPLANE"> T  </i>
   <i type="logical" name="LSCALAPACK"> F  </i>
   <i type="logical" name="LSCAAWARE"> F  </i>
   <i type="logical" name="LSCALU"> F  </i>
   <i type="logical" name="LASYNC"> F  </i>
   <i type="logical" name="LORBITALREAL"> F  </i>
  </separator>
  <separator name="miscellaneous" >
   <i type="int" name="IDIOT">     3</i>
   <i type="int" name="PHON_NSTRUCT">    -1</i>
   <i type="logical" name="LMUSIC"> F  </i>
   <v name="POMASS">     28.08500000</v>
   <v name="DARWINR">      0.00000000</v>
   <v name="DARWINV">      1.00000000</v>
   <i type="logical" name="LCORR"> T  </i>
  </separator>
  <i type="logical" name="GGA_COMPAT"> T  </i>
  <i type="logical" name="LBERRY"> F  </i>
  <i type="int" name="ICORELEVEL">     0</i>
  <i type="logical" name="LDAU"> F  </i>
  <i type="int" name="I_CONSTRAINED_M">     0</i>
  <separator name="electronic exchange-correlation" >
   <i type="string" name="GGA">--</i>
   <i type="int" name="VOSKOWN">     0</i>
   <i type="logical" name="LHFCALC"> F  </i>
   <i type="string" name="PRECFOCK"></i>
   <i type="logical" name="LSYMGRAD"> F  </i>
   <i type="logical" name="LHFONE"> F  </i>
   <i type="logical" name="LRHFCALC"> F  </i>
   <i type="logical" name="LTHOMAS"> F  </i>
   <i type="logical" name="LMODELHF"> F  </i>
   <i type="logical" name="LFOCKACE"> F  </i>
   <i name="ENCUT4O">     -1.00000000</i>
   <i type="int" name="EXXOEP">     0</i>
   <i type="int" name="FOURORBIT">     0</i>
   <i name="AEXX">      0.00000000</i>
   <i name="HFALPHA">      0.00000000</i>
   <i name="MCALPHA">      0.00000000</i>
   <i name="ALDAX">      1.00000000</i>
   <i name="AGGAX">      1.00000000</i>
   <i name="ALDAC">      1.00000000</i>
   <i name="AGGAC">      1.00000000</i>
   <i type="int" name="NKREDX">     1</i>
   <i type="int" name="NKREDY">     1</i>
   <i type="int" name="NKREDZ">     1</i>
   <i type="logical" name="SHIFTRED"> F  </i>
   <i type="logical" name="ODDONLY"> F  </i>
   <i type="logical" name="EVENONLY"> F  </i>
   <i type="int" name="LMAXFOCK">     0</i>
   <i type="int" name="NMAXFOCKAE">     0</i>
   <i type="logical" name="LFOCKAEDFT"> F  </i>
   <i name="HFSCREEN">      0.00000000</i>
   <i name="HFSCREENC">      0.00000000</i>
   <i type="int" name="NBANDSGWLOW">     0</i>
  </separator>
  <separator name="vdW DFT" >
   <i type="logical" name="LUSE_VDW"> F  </i>
   <i name="Zab_VDW">     -0.84910000</i>
   <i name="PARAM1">      0.12340000</i>
   <i name="PARAM2">      1.00000000</i>
   <i name="PARAM3">      0.00000000</i>
  </separator>
  <separator name="model GW" >
   <i type="int" name="MODEL_GW">     0</i>
   <i name="MODEL_EPS0">     12.51533766</i>
   <i name="MODEL_ALPHA">      1.00000000</i>
  </separator>
  <separator name="linear response parameters" >
   <i type="logical" name="LEPSILON"> F  </i>
   <i type="logical" name="LRPA"> F  </i>
   <i type="logical" name="LNABLA"> F  </i>
   <i type="logical" name="LVEL"> F  </i>
   <i type="int" name="KINTER">     0</i>
   <i name="CSHIFT">      0.10000000</i>
   <i name="OMEGAMAX">     -1.00000000</i>
   <i name="DEG_THRESHOLD">      0.00200000</i>
   <i name="RTIME">     -0.10000000</i>
   <i name="WPLASMAI">      0.00000000</i>
   <v name="DFIELD">      0.00000000      0.00000000      0.00000000</v>
   <v name="WPLASMA">      0.00000000      0.00000000      0.00000000      0.00000000      0.00000000      0.00000000      0.00000000      0.00000000      0.00000000</v>
  </separator>
  <separator name="orbital magnetization" >
   <i type="logical" name="NUCIND"> F  </i>
   <v name="MAGPOS">      0.00000000      0.00000000      0.00000000</v>
   <i type="logical" name="LNICSALL"> T  </i>
   <i type="logical" name="ORBITALMAG"> F  </i>
   <i type="logical" name="LMAGBLOCH"> F  </i>
   <i type="logical" name="LCHIMAG"> F  </i>
   <i type="logical" name="LGAUGE"> T  </i>
   <i type="int" name="MAGATOM">     0</i>
   <v name="MAGDIPOL">      0.00000000      0.00000000      0.00000000</v>
   <v name="AVECCONST">      0.00000000      0.00000000      0.00000000</v>
  </separator>
  <separator name="response functions" >
   <i type="logical" name="LFINITE_TEMPERATURE"> F  </i>
   <i type="logical" name="LADDER"> F  </i>
   <i type="logical" name="LRPAFORCE"> F  </i>
   <i type="logical" name="LFXC"> F  </i>
   <i type="logical" name="LHARTREE"> T  </i>
   <i type="int" name="IBSE">     0</i>
   <v type="int" name="KPOINT">    -1     0     0     0</v>
   <i type="logical" name="LTCTC"> F  </i>
   <i type="logical" name="LTCTE"> F  </i>
   <i type="logical" name="LTETE"> F  </i>
   <i type="logical" name="LTRIPLET"> F  </i>
   <i type="logical" name="LFXCEPS"> F  </i>
   <i type="logical" name="LFXHEG"> F  </i>
   <i type="int" name="NATURALO">     2</i>
   <i type="logical" name="LHOLEGF"> F  </i>
   <i type="logical" name="L2ORDER"> F  </i>
   <i type="logical" name="LDMP1"> F  </i>
   <i type="logical" name="LMP2LT"> F  </i>
   <i type="logical" name="LSMP2LT"> F  </i>
   <i type="logical" name="LGWLF"> F  </i>
   <i name="ENCUTGW">     -2.00000000</i>
   <i name="ENCUTGWSOFT">     -2.00000000</i>
   <i name="ENCUTLF">     -1.00000000</i>
   <i type="logical" name="LESF_SPLINES"> F  </i>
   <i type="int" name="LMAXMP2">    -1</i>
   <i name="SCISSOR">      0.00000000</i>
   <i type="int" name="NOMEGA">     0</i>
   <i type="int" name="NOMEGAR">     0</i>
   <i type="int" name="NBANDSGW">    -1</i>
   <i type="int" name="NBANDSO">    -1</i>
   <i type="int" name="NBANDSV">    -1</i>
   <i type="int" name="NELM">   200</i>
   <i type="int" name="NELMHF">     1</i>
   <i type="int" name="DIM">     3</i>
   <i type="int" name="IESPILON">     4</i>
   <i type="int" name="ANTIRES">     0</i>
   <i name="OMEGAMAX">    -30.00000000</i>
   <i name="OMEGAMIN">    -30.00000000</i>
   <i name="OMEGATL">   -200.00000000</i>
   <i type="int" name="OMEGAGRID">     0</i>
   <i name="CSHIFT">     -0.10000000</i>
   <i type="logical" name="LSELFENERGY"> F  </i>
   <i type="logical" name="LSPECTRAL"> F  </i>
   <i type="logical" name="LSPECTRALGW"> F  </i>
   <i type="logical" name="LSINGLES"> F  </i>
   <i type="logical" name="LFERMIGW"> F  </i>
   <i type="logical" name="ODDONLYGW"> F  </i>
   <i type="logical" name="EVENONLYGW"> F  </i>
   <i type="int" name="NKREDLFX">     1</i>
   <i type="int" name="NKREDLFY">     1</i>
   <i type="int" name="NKREDLFZ">     1</i>
   <i type="int" name="MAXMEM">  2800</i>
   <i type="int" name="TELESCOPE">     0</i>
   <i type="int" name="NTAUPAR">    -1</i>
   <i type="int" name="NOMEGAPAR">    -1</i>
   <i name="DAMP_NEWTON">      0.80000001</i>
   <i name="LAMBDA">      1.00000000</i>
  </separator>
  <separator name="External order field" >
   <i name="OFIELD_KAPPA">      0.00000000</i>
   <v name="OFIELD_K">      0.00000000      0.00000000      0.00000000</v>
   <i name="OFIELD_Q6_NEAR">      0.00000000</i>
   <i name="OFIELD_Q6_FAR">      0.00000000</i>
   <i name="OFIELD_A">      0.00000000</i>
  </separator>
 </parameters>
 <atominfo>
  <atoms>       2 </atoms>
  <types>       1 </types>
  <array name="atoms" >
   <dimension dim="1">ion</dimension>
   <field type="string">element</field>
   <field type="int">atomtype</field>
   <set>
    <rc><c>Si</c><c>   1</c></rc>
    <rc><c>Si</c><c>   1</c></rc>
   </set>
  </array>
  <array name="atomtypes" >
   <dimension dim="1">type</dimension>
   <field type="int">atomspertype</field>
   <field type="string">element</field>
   <field>mass</field>
   <field>valence</field>
   <field type="string">pseudopotential</field>
   <set>
    <rc><c>   2</c><c>Si</c><c>     28.08500000</c><c>      4.00000000</c><c>  PAW_PBE Si 05Jan2001                  </c></rc>
   </set>
  </array>
 </atominfo>
 <structure name="initialpos" >
  <crystal>
   <varray name="basis" >
    <v>       0.00000000       2.72524900       2.75263900 </v>
    <v>       2.75277700      -0.02752800       2.75263900 </v>
    <v>       2.75277700       2.75277700       0.00000000 </v>
   </varray>
   <i name="volume">     41.71779219 </i>
   <varray name="rec_basis" >
    <v>      -0.18163476       0.18163476       0.18346032 </v>
    <v>       0.18163476      -0.18163476       0.17982742 </v>
    <v>       0.18163476       0.18163476      -0.17982742 </v>
   </varray>
  </crystal>
  <varray name="positions" >
   <v>       0.75000000       0.75000000       0.75000000 </v>
   <v>       0.50000000       0.50000000       0.50000000 </v>
  </varray>
 </structure>
 <calculation>
  <scstep>
   <time name="dav">    0.44    0.46</time>
   <time name="total">    0.95    0.97</time>
   <energy>
    <i name="alphaZ">      3.22770013 </i>
    <i name="ewald">   -225.42643357 </i>
    <i name="hartreedc">    -11.63338281 </i>
    <i name="XCdc">    -18.76258435 </i>
    <i name="pawpsdc">    176.24759923 </i>
    <i name="pawaedc">   -141.06103558 </i>
    <i name="eentropy">      0.00000000 </i>
    <i name="bandstr">     24.28955269 </i>
    <i name="atom">    206.13324734 </i>
    <i name="e_fr_energy">     13.01466308 </i>
    <i name="e_wo_entrp">     13.01466308 </i>
    <i name="e_0_energy">     13.01466308 </i>
   </energy>
  </scstep>
  <scstep>
   <time name="dav">    0.52    0.52</time>
   <time name="total">    0.52    0.53</time>
   <energy>
    <i name="e_fr_energy">    -10.08334872 </i>
    <i name="e_wo_entrp">    -10.08334872 </i>
    <i name="e_0_energy">    -10.08334872 </i>
   </energy>
  </scstep>
  <scstep>
   <time name="dav">    0.46    0.47</time>
   <time name="total">    0.46    0.47</time>
   <energy>
    <i name="e_fr_energy">    -10.45466934 </i>
    <i name="e_wo_entrp">    -10.45466934 </i>
    <i name="e_0_energy">    -10.45466934 </i>
   </energy>
  </scstep>
  <scstep>
   <time name="dav">    0.55    0.56</time>
   <time name="total">    0.55    0.56</time>
   <energy>
    <i name="e_fr_energy">    -10.45611542 </i>
    <i name="e_wo_entrp">    -10.45611542 </i>
    <i name="e_0_energy">    -10.45611542 </i>
   </energy>
  </scstep>
  <scstep>
   <time name="dav">    0.46    0.46</time>
   <time name="total">    0.52    0.52</time>
   <energy>
    <i name="e_fr_energy">    -10.45611707 </i>
    <i name="e_wo_entrp">    -10.45611707 </i>
    <i name="e_0_energy">    -10.45611707 </i>
   </energy>
  </scstep>
  <scstep>
   <time name="dav">    0.65    0.67</time>
   <time name="total">    1.34    1.37</time>
   <energy>
    <i name="e_fr_energy">    -10.30954046 </i>
    <i name="e_wo_entrp">    -10.30954046 </i>
    <i name="e_0_energy">    -10.30954046 </i>
   </energy>
  </scstep>
  <scstep>
   <time name="dav">    0.94    1.06</time>
   <time name="total">    2.02    2.31</time>
   <energy>
    <i name="e_fr_energy">    -10.24300890 </i>
    <i name="e_wo_entrp">    -10.24300890 </i>
    <i name="e_0_energy">    -10.24300890 </i>
   </energy>
  </scstep>
  <scstep>
   <time name="dav">    0.88    1.00</time>
   <time name="total">    1.84    2.04</time>
   <energy>
    <i name="e_fr_energy">    -10.24545012 </i>
    <i name="e_wo_entrp">    -10.24545012 </i>
    <i name="e_0_energy">    -10.24545012 </i>
   </energy>
  </scstep>
  <scstep>
   <time name="dav">    0.52    0.53</time>
   <time name="total">    1.35    1.47</time>
   <energy>
    <i name="e_fr_energy">    -10.24588710 </i>
    <i name="e_wo_entrp">    -10.24588710 </i>
    <i name="e_0_energy">    -10.24588710 </i>
   </energy>
  </scstep>
  <scstep>
   <time name="dav">    0.46    0.47</time>
   <time name="total">    1.06    1.08</time>
   <energy>
    <i name="e_fr_energy">    -10.24593108 </i>
    <i name="e_wo_entrp">    -10.24593108 </i>
    <i name="e_0_energy">    -10.24593108 </i>
   </energy>
  </scstep>
  <scstep>
   <time name="dav">    0.53    0.54</time>
   <time name="total">    1.14    1.16</time>
   <energy>
    <i name="e_fr_energy">    -10.24593252 </i>
    <i name="e_wo_entrp">    -10.24593252 </i>
    <i name="e_0_energy">    -10.24593252 </i>
   </energy>
  </scstep>
  <scstep>
   <time name="dav">    0.48    0.49</time>
   <time name="total">    1.08    1.10</time>
   <energy>
    <i name="e_fr_energy">    -10.24593269 </i>
    <i name="e_wo_entrp">    -10.24593269 </i>
    <i name="e_0_energy">    -10.24593269 </i>
   </energy>
  </scstep>
  <scstep>
   <time name="dav">    0.46    0.47</time>
   <time name="total">    1.09    1.11</time>
   <energy>
    <i name="e_fr_energy">    -10.24593297 </i>
    <i name="e_wo_entrp">    -10.24593297 </i>
    <i name="e_0_energy">    -10.24593297 </i>
   </energy>
  </scstep>
  <scstep>
   <time name="dav">    0.77    0.86</time>
   <time name="total">    1.32    1.41</time>
   <energy>
    <i name="alphaZ">      3.22770013 </i>
    <i name="ewald">   -225.42643357 </i>
    <i name="hartreedc">    -16.21572385 </i>
    <i name="XCdc">    -18.05504102 </i>
    <i name="pawpsdc">    823.36919447 </i>
    <i name="pawaedc">   -788.39039174 </i>
    <i name="eentropy">      0.00000000 </i>
    <i name="bandstr">      5.11151529 </i>
    <i name="atom">    206.13324734 </i>
    <i name="e_fr_energy">    -10.24593296 </i>
    <i name="e_wo_entrp">    -10.24593296 </i>
    <i name="e_0_energy">    -10.24593296 </i>
   </energy>
  </scstep>
  <structure>
   <crystal>
    <varray name="basis" >
     <v>       0.00000000       2.72524900       2.75263900 </v>
     <v>       2.75277700      -0.02752800       2.75263900 </v>
     <v>       2.75277700       2.75277700       0.00000000 </v>
    </varray>
    <i name="volume">     41.71779219 </i>
    <varray name="rec_basis" >
     <v>      -0.18163476       0.18163476       0.18346032 </v>
     <v>       0.18163476      -0.18163476       0.17982742 </v>
     <v>       0.18163476       0.18163476      -0.17982742 </v>
    </varray>
   </crystal>
   <varray name="positions" >
    <v>       0.75000000       0.75000000       0.75000000 </v>
    <v>       0.50000000       0.50000000       0.50000000 </v>
   </varray>
  </structure>
  <varray name="forces" >
   <v>       0.07968737       0.00000000      -0.00000000 </v>
   <v>      -0.07968737      -0.00000000       0.00000000 </v>
  </varray>
  <varray name="stress" >
   <v>       0.15460752       0.00000000       0.00000000 </v>
   <v>       0.00000000       0.09747112       9.46733509 </v>
   <v>       0.00000000       9.46733509       0.28682883 </v>
  </varray>
  <energy>
   <i name="e_fr_energy">    -10.24593296 </i>
   <i name="e_wo_entrp">    -10.24593296 </i>
   <i name="e_0_energy">    -10.24593296 </i>
  </energy>
  <time name="totalsc">   18.27   19.46</time>
  <eigenvalues>
   <array>
    <dimension dim="1">band</dimension>
    <dimension dim="2">kpoint</dimension>
    <dimension dim="3">spin</dimension>
    <field>eigene</field>
    <field>occ</field>
    <set>
     <set comment="spin 1">
      <set comment="kpoint 1">
       <r>   -6.1746    1.0000 </r>
       <r>    5.5143    1.0000 </r>
       <r>    5.5238    1.0000 </r>
       <r>    5.5356    1.0000 </r>
       <r>    7.9567    0.0000 </r>
       <r>    8.0069    0.0000 </r>
       <r>    8.1029    0.0000 </r>
       <r>    8.4637    0.0000 </r>
      </set>
      <set comment="kpoint 2">
       <r>   -4.8328    1.0000 </r>
       <r>    0.3057    1.0000 </r>
       <r>    4.5272    1.0000 </r>
       <r>    4.5274    1.0000 </r>
       <r>    7.0880    0.0000 </r>
       <r>    8.9268    0.0000 </r>
       <r>    9.0111    0.0000 </r>
       <r>   13.1847    0.0000 </r>
      </set>
      <set comment="kpoint 3">
       <r>   -4.8615    1.0000 </r>
       <r>    0.2835    1.0000 </r>
       <r>    4.5681    1.0000 </r>
       <r>    4.5697    1.0000 </r>
       <r>    7.1727    0.0000 </r>
       <r>    8.9456    0.0000 </r>
       <r>    9.0308    0.0000 </r>
       <r>   13.1972    0.0000 </r>
      </set>
      <set comment="kpoint 4">
       <r>   -4.3342    1.0000 </r>
       <r>    0.5453    1.0000 </r>
       <r>    3.1816    1.0000 </r>
       <r>    3.1818    1.0000 </r>
       <r>    6.2751    0.0000 </r>
       <r>    7.5304    0.0000 </r>
       <r>   12.5875    0.0000 </r>
       <r>   12.5886    0.0000 </r>
      </set>
      <set comment="kpoint 5">
       <r>   -3.0341    1.0000 </r>
       <r>   -1.1490    1.0000 </r>
       <r>    1.2752    1.0000 </r>
       <r>    3.4755    1.0000 </r>
       <r>    7.0915    0.0000 </r>
       <r>   11.2588    0.0000 </r>
       <r>   11.8182    0.0000 </r>
       <r>   12.3694    0.0000 </r>
      </set>
      <set comment="kpoint 6">
       <r>   -4.3347    1.0000 </r>
       <r>    0.5445    1.0000 </r>
       <r>    3.1346    1.0000 </r>
       <r>    3.2298    1.0000 </r>
       <r>    6.2741    0.0000 </r>
       <r>    7.5323    0.0000 </r>
       <r>   12.5853    0.0000 </r>
       <r>   12.5966    0.0000 </r>
      </set>
      <set comment="kpoint 7">
       <r>   -2.9872    1.0000 </r>
       <r>   -1.1813    1.0000 </r>
       <r>    1.2764    1.0000 </r>
       <r>    3.4385    1.0000 </r>
       <r>    7.0484    0.0000 </r>
       <r>   11.3537    0.0000 </r>
       <r>   11.7972    0.0000 </r>
       <r>   12.3935    0.0000 </r>
      </set>
      <set comment="kpoint 8">
       <r>   -3.0798    1.0000 </r>
       <r>   -1.1187    1.0000 </r>
       <r>    1.2738    1.0000 </r>
       <r>    3.5132    1.0000 </r>
       <r>    7.1362    0.0000 </r>
       <r>   11.1588    0.0000 </r>
       <r>   11.8562    0.0000 </r>
       <r>   12.3768    0.0000 </r>
      </set>
     </set>
     <set comment="spin 2">
      <set comment="kpoint 1">
       <r>   -6.1746    1.0000 </r>
       <r>    5.5143    1.0000 </r>
       <r>    5.5238    1.0000 </r>
       <r>    5.5356    1.0000 </r>
       <r>    7.9567    0.0000 </r>
       <r>    8.0069    0.0000 </r>
       <r>    8.1029    0.0000 </r>
       <r>    8.4637    0.0000 </r>
      </set>
      <set comment="kpoint 2">
       <r>   -4.8328    1.0000 </r>
       <r>    0.3057    1.0000 </r>
       <r>    4.5272    1.0000 </r>
       <r>    4.5274    1.0000 </r>
       <r>    7.0880    0.0000 </r>
       <r>    8.9268    0.0000 </r>
       <r>    9.0111    0.0000 </r>
       <r>   13.1847    0.0000 </r>
      </set>
      <set comment="kpoint 3">
       <r>   -4.8615    1.0000 </r>
       <r>    0.2835    1.0000 </r>
       <r>    4.5681    1.0000 </r>
       <r>    4.5697    1.0000 </r>
       <r>    7.1727    0.0000 </r>
       <r>    8.9456    0.0000 </r>
       <r>    9.0308    0.0000 </r>
       <r>   13.1972    0.0000 </r>
      </set>
      <set comment="kpoint 4">
       <r>   -4.3342    1.0000 </r>
       <r>    0.5453    1.0000 </r>
       <r>    3.1816    1.0000 </r>
       <r>    3.1818    1.0000 </r>
       <r>    6.2751    0.0000 </r>
       <r>    7.5304    0.0000 </r>
       <r>   12.5875    0.0000 </r>
       <r>   12.5886    0.0000 </r>
      </set>
      <set comment="kpoint 5">
       <r>   -3.0341    1.0000 </r>
       <r>   -1.1490    1.0000 </r>
       <r>    1.2752    1.0000 </r>
       <r>    3.4755    1.0000 </r>
       <r>    7.0915    0.0000 </r>
       <r>   11.2588    0.0000 </r>
       <r>   11.8182    0.0000 </r>
       <r>   12.3694    0.0000 </r>
      </set>
      <set comment="kpoint 6">
       <r>   -4.3347    1.0000 </r>
       <r>    0.5445    1.0000 </r>
       <r>    3.1346    1.0000 </r>
       <r>    3.2298    1.0000 </r>
       <r>    6.2741    0.0000 </r>
       <r>    7.5323    0.0000 </r>
       <r>   12.5853    0.0000 </r>
       <r>   12.5966    0.0000 </r>
      </set>
      <set comment="kpoint 7">
       <r>   -2.9872    1.0000 </r>
       <r>   -1.1813    1.0000 </r>
       <r>    1.2764    1.0000 </r>
       <r>    3.4385    1.0000 </r>
       <r>    7.0484    0.0000 </r>
       <r>   11.3537    0.0000 </r>
       <r>   11.7972    0.0000 </r>
       <r>   12.3935    0.0000 </r>
      </set>
      <set comment="kpoint 8">
       <r>   -3.0798    1.0000 </r>
       <r>   -1.1187    1.0000 </r>
       <r>    1.2738    1.0000 </r>
       <r>    3.5132    1.0000 </r>
       <r>    7.1362    0.0000 </r>
       <r>   11.1588    0.0000 </r>
       <r>   11.8562    0.0000 </r>
       <r>   12.3768    0.0000 </r>
      </set>
     </set>
    </set>
   </array>
  </eigenvalues>
  <separator name="orbital magnetization" >
   <v name="MAGDIPOLOUT">      0.00000000      0.00000000      0.00000000</v>
  </separator>
  <dos>
   <i name="efermi">      5.53577584 </i>
   <total>
    <array>
     <dimension dim="1">gridpoints</dimension>
     <dimension dim="2">spin</dimension>
     <field>energy</field>
     <field>total</field>
     <field>integrated</field>
     <set>
      <set comment="spin 1">
       <r>    -7.1432     0.0000     0.0000 </r>
       <r>    -7.0722     0.0000     0.0000 </r>
       <r>    -7.0012     0.0000     0.0000 </r>
       <r>    -6.9301     0.0000     0.0000 </r>
       <r>    -6.8591     0.0000     0.0000 </r>
       <r>    -6.7881     0.0000     0.0000 </r>
       <r>    -6.7171     0.0000     0.0000 </r>
       <r>    -6.6460     0.0000     0.0000 </r>
       <r>    -6.5750     0.0000     0.0000 </r>
       <r>    -6.5040     0.0000     0.0000 </r>
       <r>    -6.4329     0.0000     0.0000 </r>
       <r>    -6.3619     0.0000     0.0000 </r>
       <r>    -6.2909     0.0000     0.0000 </r>
       <r>    -6.2198     0.0000     0.0000 </r>
       <r>    -6.1488     0.0001     0.0000 </r>
       <r>    -6.0778     0.0013     0.0000 </r>
       <r>    -6.0068     0.0039     0.0002 </r>
       <r>    -5.9357     0.0078     0.0006 </r>
       <r>    -5.8647     0.0132     0.0014 </r>
       <r>    -5.7937     0.0199     0.0025 </r>
       <r>    -5.7226     0.0280     0.0042 </r>
       <r>    -5.6516     0.0375     0.0065 </r>
       <r>    -5.5806     0.0484     0.0096 </r>
       <r>    -5.5095     0.0606     0.0134 </r>
       <r>    -5.4385     0.0743     0.0182 </r>
       <r>    -5.3675     0.0893     0.0240 </r>
       <r>    -5.2965     0.1057     0.0309 </r>
       <r>    -5.2254     0.1235     0.0391 </r>
       <r>    -5.1544     0.1427     0.0485 </r>
       <r>    -5.0834     0.1632     0.0594 </r>
       <r>    -5.0123     0.1852     0.0718 </r>
       <r>    -4.9413     0.2085     0.0857 </r>
       <r>    -4.8703     0.2332     0.1014 </r>
       <r>    -4.7992     0.2555     0.1188 </r>
       <r>    -4.7282     0.2768     0.1377 </r>
       <r>    -4.6572     0.2992     0.1582 </r>
       <r>    -4.5862     0.3226     0.1802 </r>
       <r>    -4.5151     0.3471     0.2040 </r>
       <r>    -4.4441     0.3725     0.2296 </r>
       <r>    -4.3731     0.3990     0.2570 </r>
       <r>    -4.3020     0.4343     0.2864 </r>
       <r>    -4.2310     0.4753     0.3187 </r>
       <r>    -4.1600     0.5108     0.3538 </r>
       <r>    -4.0889     0.5408     0.3912 </r>
       <r>    -4.0179     0.5654     0.4305 </r>
       <r>    -3.9469     0.5844     0.4714 </r>
       <r>    -3.8759     0.5980     0.5134 </r>
       <r>    -3.8048     0.6061     0.5562 </r>
       <r>    -3.7338     0.6087     0.5993 </r>
       <r>    -3.6628     0.6058     0.6425 </r>
       <r>    -3.5917     0.5974     0.6853 </r>
       <r>    -3.5207     0.5836     0.7273 </r>
       <r>    -3.4497     0.5643     0.7681 </r>
       <r>    -3.3786     0.5395     0.8073 </r>
       <r>    -3.3076     0.5092     0.8446 </r>
       <r>    -3.2366     0.4734     0.8795 </r>
       <r>    -3.1656     0.4322     0.9117 </r>
       <r>    -3.0945     0.3854     0.9408 </r>
       <r>    -3.0235     0.7253     0.9933 </r>
       <r>    -2.9525     0.0000     1.0000 </r>
       <r>    -2.8814     0.0000     1.0000 </r>
       <r>    -2.8104     0.0000     1.0000 </r>
       <r>    -2.7394     0.0000     1.0000 </r>
       <r>    -2.6683     0.0000     1.0000 </r>
       <r>    -2.5973     0.0000     1.0000 </r>
       <r>    -2.5263     0.0000     1.0000 </r>
       <r>    -2.4553     0.0000     1.0000 </r>
       <r>    -2.3842     0.0000     1.0000 </r>
       <r>    -2.3132     0.0000     1.0000 </r>
       <r>    -2.2422     0.0000     1.0000 </r>
       <r>    -2.1711     0.0000     1.0000 </r>
       <r>    -2.1001     0.0000     1.0000 </r>
       <r>    -2.0291     0.0000     1.0000 </r>
       <r>    -1.9580     0.0000     1.0000 </r>
       <r>    -1.8870     0.0000     1.0000 </r>
       <r>    -1.8160     0.0000     1.0000 </r>
       <r>    -1.7450     0.0000     1.0000 </r>
       <r>    -1.6739     0.0000     1.0000 </r>
       <r>    -1.6029     0.0000     1.0000 </r>
       <r>    -1.5319     0.0000     1.0000 </r>
       <r>    -1.4608     0.0000     1.0000 </r>
       <r>    -1.3898     0.0000     1.0000 </r>
       <r>    -1.3188     0.0000     1.0000 </r>
       <r>    -1.2477     0.0000     1.0000 </r>
       <r>    -1.1767     0.0258     1.0000 </r>
       <r>    -1.1057     0.4780     1.0495 </r>
       <r>    -1.0347     0.3680     1.0734 </r>
       <r>    -0.9636     0.4254     1.1016 </r>
       <r>    -0.8926     0.4764     1.1337 </r>
       <r>    -0.8216     0.5210     1.1692 </r>
       <r>    -0.7505     0.5592     1.2076 </r>
       <r>    -0.6795     0.5909     1.2484 </r>
       <r>    -0.6085     0.6163     1.2914 </r>
       <r>    -0.5374     0.6352     1.3358 </r>
       <r>    -0.4664     0.6476     1.3814 </r>
       <r>    -0.3954     0.6537     1.4277 </r>
       <r>    -0.3244     0.6533     1.4741 </r>
       <r>    -0.2533     0.6466     1.5203 </r>
       <r>    -0.1823     0.6334     1.5658 </r>
       <r>    -0.1113     0.6137     1.6102 </r>
       <r>    -0.0402     0.5877     1.6529 </r>
       <r>     0.0308     0.5552     1.6935 </r>
       <r>     0.1018     0.5164     1.7316 </r>
       <r>     0.1729     0.4711     1.7667 </r>
       <r>     0.2439     0.4193     1.7984 </r>
       <r>     0.3149     0.3363     1.8258 </r>
       <r>     0.3860     0.2122     1.8451 </r>
       <r>     0.4570     0.1286     1.8570 </r>
       <r>     0.5280     0.0854     1.8643 </r>
       <r>     0.5990     0.0793     1.8701 </r>
       <r>     0.6701     0.0770     1.8756 </r>
       <r>     0.7411     0.0748     1.8810 </r>
       <r>     0.8121     0.0726     1.8862 </r>
       <r>     0.8832     0.0704     1.8913 </r>
       <r>     0.9542     0.0683     1.8962 </r>
       <r>     1.0252     0.0662     1.9010 </r>
       <r>     1.0963     0.0641     1.9056 </r>
       <r>     1.1673     0.0620     1.9101 </r>
       <r>     1.2383     0.0600     1.9144 </r>
       <r>     1.3093     0.8228     1.9639 </r>
       <r>     1.3804     0.3157     1.9858 </r>
       <r>     1.4514     0.3288     2.0087 </r>
       <r>     1.5224     0.3407     2.0325 </r>
       <r>     1.5935     0.3514     2.0570 </r>
       <r>     1.6645     0.3608     2.0823 </r>
       <r>     1.7355     0.3691     2.1083 </r>
       <r>     1.8066     0.3761     2.1347 </r>
       <r>     1.8776     0.3819     2.1617 </r>
       <r>     1.9486     0.3866     2.1890 </r>
       <r>     2.0196     0.3900     2.2166 </r>
       <r>     2.0907     0.3922     2.2443 </r>
       <r>     2.1617     0.3931     2.2722 </r>
       <r>     2.2327     0.3929     2.3002 </r>
       <r>     2.3038     0.3915     2.3280 </r>
       <r>     2.3748     0.3888     2.3558 </r>
       <r>     2.4458     0.3850     2.3832 </r>
       <r>     2.5169     0.3799     2.4104 </r>
       <r>     2.5879     0.3736     2.4372 </r>
       <r>     2.6589     0.3661     2.4635 </r>
       <r>     2.7299     0.3574     2.4892 </r>
       <r>     2.8010     0.3475     2.5142 </r>
       <r>     2.8720     0.3363     2.5385 </r>
       <r>     2.9430     0.3240     2.5620 </r>
       <r>     3.0141     0.3105     2.5845 </r>
       <r>     3.0851     0.2957     2.6060 </r>
       <r>     3.1561     0.2807     2.6265 </r>
       <r>     3.2272     0.4385     2.6497 </r>
       <r>     3.2982     0.9314     2.6976 </r>
       <r>     3.3692     1.5294     2.7844 </r>
       <r>     3.4402     2.2269     2.9172 </r>
       <r>     3.5113     1.1569     3.0724 </r>
       <r>     3.5823     0.9742     3.1418 </r>
       <r>     3.6533     0.9638     3.2107 </r>
       <r>     3.7244     0.9481     3.2786 </r>
       <r>     3.7954     0.9271     3.3452 </r>
       <r>     3.8664     0.9009     3.4102 </r>
       <r>     3.9375     0.8694     3.4731 </r>
       <r>     4.0085     0.8327     3.5336 </r>
       <r>     4.0795     0.7907     3.5913 </r>
       <r>     4.1505     0.7434     3.6458 </r>
       <r>     4.2216     0.6909     3.6967 </r>
       <r>     4.2926     0.6331     3.7438 </r>
       <r>     4.3636     0.5701     3.7866 </r>
       <r>     4.4347     0.5017     3.8247 </r>
       <r>     4.5057     0.4282     3.8577 </r>
       <r>     4.5767     0.3600     3.8856 </r>
       <r>     4.6478     0.3084     3.9094 </r>
       <r>     4.7188     0.2607     3.9295 </r>
       <r>     4.7898     0.2170     3.9465 </r>
       <r>     4.8608     0.1773     3.9605 </r>
       <r>     4.9319     0.1417     3.9718 </r>
       <r>     5.0029     0.1100     3.9807 </r>
       <r>     5.0739     0.0823     3.9875 </r>
       <r>     5.1450     0.0587     3.9925 </r>
       <r>     5.2160     0.0390     3.9959 </r>
       <r>     5.2870     0.0233     3.9981 </r>
       <r>     5.3581     0.0117     3.9993 </r>
       <r>     5.4291     0.0040     3.9999 </r>
       <r>     5.5001     0.0004     4.0000 </r>
       <r>     5.5711     0.0000     4.0000 </r>
       <r>     5.6422     0.0000     4.0000 </r>
       <r>     5.7132     0.0000     4.0000 </r>
       <r>     5.7842     0.0000     4.0000 </r>
       <r>     5.8553     0.0000     4.0000 </r>
       <r>     5.9263     0.0000     4.0000 </r>
       <r>     5.9973     0.0000     4.0000 </r>
       <r>     6.0684     0.0000     4.0000 </r>
       <r>     6.1394     0.0000     4.0000 </r>
       <r>     6.2104     0.0000     4.0000 </r>
       <r>     6.2814     0.0046     4.0000 </r>
       <r>     6.3525     0.0680     4.0024 </r>
       <r>     6.4235     0.1584     4.0103 </r>
       <r>     6.4945     0.2758     4.0256 </r>
       <r>     6.5656     0.4202     4.0501 </r>
       <r>     6.6366     0.5916     4.0859 </r>
       <r>     6.7076     0.7900     4.1348 </r>
       <r>     6.7787     1.0155     4.1988 </r>
       <r>     6.8497     1.2679     4.2797 </r>
       <r>     6.9207     1.5474     4.3795 </r>
       <r>     6.9917     1.8538     4.5002 </r>
       <r>     7.0628     2.6561     4.6458 </r>
       <r>     7.1338     2.4827     4.8740 </r>
       <r>     7.2048     0.2197     4.9449 </r>
       <r>     7.2759     0.1802     4.9591 </r>
       <r>     7.3469     0.1445     4.9706 </r>
       <r>     7.4179     0.1128     4.9797 </r>
       <r>     7.4890     0.0850     4.9867 </r>
       <r>     7.5600     0.0626     4.9919 </r>
       <r>     7.6310     0.0502     4.9959 </r>
       <r>     7.7020     0.0476     4.9993 </r>
       <r>     7.7731     0.0548     5.0029 </r>
       <r>     7.8441     0.0717     5.0073 </r>
       <r>     7.9151     0.0984     5.0133 </r>
       <r>     7.9862     0.1345     5.0215 </r>
       <r>     8.0572     0.1744     5.0325 </r>
       <r>     8.1282     0.2098     5.0462 </r>
       <r>     8.1993     0.2410     5.0622 </r>
       <r>     8.2703     0.2684     5.0803 </r>
       <r>     8.3413     0.2918     5.1002 </r>
       <r>     8.4124     0.3114     5.1217 </r>
       <r>     8.4834     0.3271     5.1444 </r>
       <r>     8.5544     0.3389     5.1681 </r>
       <r>     8.6254     0.3469     5.1924 </r>
       <r>     8.6965     0.3511     5.2172 </r>
       <r>     8.7675     0.3514     5.2422 </r>
       <r>     8.8385     0.3479     5.2671 </r>
       <r>     8.9096     0.3406     5.2916 </r>
       <r>     8.9806     0.3557     5.3160 </r>
       <r>     9.0516     0.3835     5.3423 </r>
       <r>     9.1227     0.4073     5.3704 </r>
       <r>     9.1937     0.4296     5.4001 </r>
       <r>     9.2647     0.4504     5.4314 </r>
       <r>     9.3357     0.4698     5.4641 </r>
       <r>     9.4068     0.4877     5.4981 </r>
       <r>     9.4778     0.5042     5.5333 </r>
       <r>     9.5488     0.5192     5.5697 </r>
       <r>     9.6199     0.5327     5.6070 </r>
       <r>     9.6909     0.5447     5.6453 </r>
       <r>     9.7619     0.5553     5.6844 </r>
       <r>     9.8330     0.5644     5.7241 </r>
       <r>     9.9040     0.5720     5.7645 </r>
       <r>     9.9750     0.5782     5.8054 </r>
       <r>    10.0460     0.5829     5.8466 </r>
       <r>    10.1171     0.5861     5.8881 </r>
       <r>    10.1881     0.5879     5.9298 </r>
       <r>    10.2591     0.5882     5.9716 </r>
       <r>    10.3302     0.5870     6.0134 </r>
       <r>    10.4012     0.5844     6.0550 </r>
       <r>    10.4722     0.5803     6.0964 </r>
       <r>    10.5433     0.5747     6.1374 </r>
       <r>    10.6143     0.5677     6.1780 </r>
       <r>    10.6853     0.5592     6.2180 </r>
       <r>    10.7563     0.5492     6.2574 </r>
       <r>    10.8274     0.5378     6.2960 </r>
       <r>    10.8984     0.5249     6.3337 </r>
       <r>    10.9694     0.5105     6.3705 </r>
       <r>    11.0405     0.4946     6.4062 </r>
       <r>    11.1115     0.4773     6.4408 </r>
       <r>    11.1825     0.4780     6.4742 </r>
       <r>    11.2536     0.7485     6.5157 </r>
       <r>    11.3246     0.5351     6.5661 </r>
       <r>    11.3956     0.3240     6.5894 </r>
       <r>    11.4666     0.3265     6.6125 </r>
       <r>    11.5377     0.3287     6.6358 </r>
       <r>    11.6087     0.3306     6.6592 </r>
       <r>    11.6797     0.3323     6.6827 </r>
       <r>    11.7508     0.3337     6.7064 </r>
       <r>    11.8218     1.9290     6.7578 </r>
       <r>    11.8928     0.8137     6.8288 </r>
       <r>    11.9639     0.7174     6.8831 </r>
       <r>    12.0349     0.6259     6.9308 </r>
       <r>    12.1059     0.5394     6.9722 </r>
       <r>    12.1769     0.4577     7.0075 </r>
       <r>    12.2480     0.3810     7.0373 </r>
       <r>    12.3190     0.3091     7.0618 </r>
       <r>    12.3900     2.5526     7.1500 </r>
       <r>    12.4611     2.1878     7.3116 </r>
       <r>    12.5321     1.7846     7.4543 </r>
       <r>    12.6031     1.2307     7.5594 </r>
       <r>    12.6742     1.1676     7.6447 </r>
       <r>    12.7452     1.0809     7.7247 </r>
       <r>    12.8162     0.9707     7.7977 </r>
       <r>    12.8872     0.8369     7.8620 </r>
       <r>    12.9583     0.6796     7.9160 </r>
       <r>    13.0293     0.4988     7.9580 </r>
       <r>    13.1003     0.2945     7.9863 </r>
       <r>    13.1714     0.0666     7.9993 </r>
       <r>    13.2424     0.0000     8.0000 </r>
       <r>    13.3134     0.0000     8.0000 </r>
       <r>    13.3845     0.0000     8.0000 </r>
       <r>    13.4555     0.0000     8.0000 </r>
       <r>    13.5265     0.0000     8.0000 </r>
       <r>    13.5975     0.0000     8.0000 </r>
       <r>    13.6686     0.0000     8.0000 </r>
       <r>    13.7396     0.0000     8.0000 </r>
       <r>    13.8106     0.0000     8.0000 </r>
       <r>    13.8817     0.0000     8.0000 </r>
       <r>    13.9527     0.0000     8.0000 </r>
       <r>    14.0237     0.0000     8.0000 </r>
       <r>    14.0948     0.0000     8.0000 </r>
       <r>    14.1658     0.0000     8.0000 </r>
      </set>
      <set comment="spin 2">
       <r>    -7.1432     0.0000     0.0000 </r>
       <r>    -7.0722     0.0000     0.0000 </r>
       <r>    -7.0012     0.0000     0.0000 </r>
       <r>    -6.9301     0.0000     0.0000 </r>
       <r>    -6.8591     0.0000     0.0000 </r>
       <r>    -6.7881     0.0000     0.0000 </r>
       <r>    -6.7171     0.0000     0.0000 </r>
       <r>    -6.6460     0.0000     0.0000 </r>
       <r>    -6.5750     0.0000     0.0000 </r>
       <r>    -6.5040     0.0000     0.0000 </r>
       <r>    -6.4329     0.0000     0.0000 </r>
       <r>    -6.3619     0.0000     0.0000 </r>
       <r>    -6.2909     0.0000     0.0000 </r>
       <r>    -6.2198     0.0000     0.0000 </r>
       <r>    -6.1488     0.0001     0.0000 </r>
       <r>    -6.0778     0.0013     0.0000 </r>
       <r>    -6.0068     0.0039     0.0002 </r>
       <r>    -5.9357     0.0078     0.0006 </r>
       <r>    -5.8647     0.0132     0.0014 </r>
       <r>    -5.7937     0.0199     0.0025 </r>
       <r>    -5.7226     0.0280     0.0042 </r>
       <r>    -5.6516     0.0375     0.0065 </r>
       <r>    -5.5806     0.0484     0.0096 </r>
       <r>    -5.5095     0.0606     0.0134 </r>
       <r>    -5.4385     0.0743     0.0182 </r>
       <r>    -5.3675     0.0893     0.0240 </r>
       <r>    -5.2965     0.1057     0.0309 </r>
       <r>    -5.2254     0.1235     0.0391 </r>
       <r>    -5.1544     0.1427     0.0485 </r>
       <r>    -5.0834     0.1632     0.0594 </r>
       <r>    -5.0123     0.1852     0.0718 </r>
       <r>    -4.9413     0.2085     0.0857 </r>
       <r>    -4.8703     0.2332     0.1014 </r>
       <r>    -4.7992     0.2555     0.1188 </r>
       <r>    -4.7282     0.2768     0.1377 </r>
       <r>    -4.6572     0.2992     0.1582 </r>
       <r>    -4.5862     0.3226     0.1802 </r>
       <r>    -4.5151     0.3471     0.2040 </r>
       <r>    -4.4441     0.3725     0.2296 </r>
       <r>    -4.3731     0.3990     0.2570 </r>
       <r>    -4.3020     0.4343     0.2864 </r>
       <r>    -4.2310     0.4753     0.3187 </r>
       <r>    -4.1600     0.5108     0.3538 </r>
       <r>    -4.0889     0.5408     0.3912 </r>
       <r>    -4.0179     0.5654     0.4305 </r>
       <r>    -3.9469     0.5844     0.4714 </r>
       <r>    -3.8759     0.5980     0.5134 </r>
       <r>    -3.8048     0.6061     0.5562 </r>
       <r>    -3.7338     0.6087     0.5993 </r>
       <r>    -3.6628     0.6058     0.6425 </r>
       <r>    -3.5917     0.5974     0.6853 </r>
       <r>    -3.5207     0.5836     0.7273 </r>
       <r>    -3.4497     0.5643     0.7681 </r>
       <r>    -3.3786     0.5395     0.8073 </r>
       <r>    -3.3076     0.5092     0.8446 </r>
       <r>    -3.2366     0.4734     0.8795 </r>
       <r>    -3.1656     0.4322     0.9117 </r>
       <r>    -3.0945     0.3854     0.9408 </r>
       <r>    -3.0235     0.7253     0.9933 </r>
       <r>    -2.9525     0.0000     1.0000 </r>
       <r>    -2.8814     0.0000     1.0000 </r>
       <r>    -2.8104     0.0000     1.0000 </r>
       <r>    -2.7394     0.0000     1.0000 </r>
       <r>    -2.6683     0.0000     1.0000 </r>
       <r>    -2.5973     0.0000     1.0000 </r>
       <r>    -2.5263     0.0000     1.0000 </r>
       <r>    -2.4553     0.0000     1.0000 </r>
       <r>    -2.3842     0.0000     1.0000 </r>
       <r>    -2.3132     0.0000     1.0000 </r>
       <r>    -2.2422     0.0000     1.0000 </r>
       <r>    -2.1711     0.0000     1.0000 </r>
       <r>    -2.1001     0.0000     1.0000 </r>
       <r>    -2.0291     0.0000     1.0000 </r>
       <r>    -1.9580     0.0000     1.0000 </r>
       <r>    -1.8870     0.0000     1.0000 </r>
       <r>    -1.8160     0.0000     1.0000 </r>
       <r>    -1.7450     0.0000     1.0000 </r>
       <r>    -1.6739     0.0000     1.0000 </r>
       <r>    -1.6029     0.0000     1.0000 </r>
       <r>    -1.5319     0.0000     1.0000 </r>
       <r>    -1.4608     0.0000     1.0000 </r>
       <r>    -1.3898     0.0000     1.0000 </r>
       <r>    -1.3188     0.0000     1.0000 </r>
       <r>    -1.2477     0.0000     1.0000 </r>
       <r>    -1.1767     0.0258     1.0000 </r>
       <r>    -1.1057     0.4780     1.0495 </r>
       <r>    -1.0347     0.3680     1.0734 </r>
       <r>    -0.9636     0.4254     1.1016 </r>
       <r>    -0.8926     0.4764     1.1337 </r>
       <r>    -0.8216     0.5210     1.1692 </r>
       <r>    -0.7505     0.5592     1.2076 </r>
       <r>    -0.6795     0.5909     1.2484 </r>
       <r>    -0.6085     0.6163     1.2914 </r>
       <r>    -0.5374     0.6352     1.3358 </r>
       <r>    -0.4664     0.6476     1.3814 </r>
       <r>    -0.3954     0.6537     1.4277 </r>
       <r>    -0.3244     0.6533     1.4741 </r>
       <r>    -0.2533     0.6466     1.5203 </r>
       <r>    -0.1823     0.6334     1.5658 </r>
       <r>    -0.1113     0.6137     1.6102 </r>
       <r>    -0.0402     0.5877     1.6529 </r>
       <r>     0.0308     0.5552     1.6935 </r>
       <r>     0.1018     0.5164     1.7316 </r>
       <r>     0.1729     0.4711     1.7667 </r>
       <r>     0.2439     0.4193     1.7984 </r>
       <r>     0.3149     0.3363     1.8258 </r>
       <r>     0.3860     0.2122     1.8451 </r>
       <r>     0.4570     0.1286     1.8570 </r>
       <r>     0.5280     0.0854     1.8643 </r>
       <r>     0.5990     0.0793     1.8701 </r>
       <r>     0.6701     0.0770     1.8756 </r>
       <r>     0.7411     0.0748     1.8810 </r>
       <r>     0.8121     0.0726     1.8862 </r>
       <r>     0.8832     0.0704     1.8913 </r>
       <r>     0.9542     0.0683     1.8962 </r>
       <r>     1.0252     0.0662     1.9010 </r>
       <r>     1.0963     0.0641     1.9056 </r>
       <r>     1.1673     0.0620     1.9101 </r>
       <r>     1.2383     0.0600     1.9144 </r>
       <r>     1.3093     0.8228     1.9639 </r>
       <r>     1.3804     0.3157     1.9858 </r>
       <r>     1.4514     0.3288     2.0087 </r>
       <r>     1.5224     0.3407     2.0325 </r>
       <r>     1.5935     0.3514     2.0570 </r>
       <r>     1.6645     0.3608     2.0823 </r>
       <r>     1.7355     0.3691     2.1083 </r>
       <r>     1.8066     0.3761     2.1347 </r>
       <r>     1.8776     0.3819     2.1617 </r>
       <r>     1.9486     0.3866     2.1890 </r>
       <r>     2.0196     0.3900     2.2166 </r>
       <r>     2.0907     0.3922     2.2443 </r>
       <r>     2.1617     0.3931     2.2722 </r>
       <r>     2.2327     0.3929     2.3002 </r>
       <r>     2.3038     0.3915     2.3280 </r>
       <r>     2.3748     0.3888     2.3558 </r>
       <r>     2.4458     0.3850     2.3832 </r>
       <r>     2.5169     0.3799     2.4104 </r>
       <r>     2.5879     0.3736     2.4372 </r>
       <r>     2.6589     0.3661     2.4635 </r>
       <r>     2.7299     0.3574     2.4892 </r>
       <r>     2.8010     0.3475     2.5142 </r>
       <r>     2.8720     0.3363     2.5385 </r>
       <r>     2.9430     0.3240     2.5620 </r>
       <r>     3.0141     0.3105     2.5845 </r>
       <r>     3.0851     0.2957     2.6060 </r>
       <r>     3.1561     0.2807     2.6265 </r>
       <r>     3.2272     0.4385     2.6497 </r>
       <r>     3.2982     0.9314     2.6976 </r>
       <r>     3.3692     1.5294     2.7844 </r>
       <r>     3.4402     2.2270     2.9172 </r>
       <r>     3.5113     1.1569     3.0724 </r>
       <r>     3.5823     0.9742     3.1418 </r>
       <r>     3.6533     0.9638     3.2107 </r>
       <r>     3.7244     0.9481     3.2786 </r>
       <r>     3.7954     0.9271     3.3452 </r>
       <r>     3.8664     0.9009     3.4102 </r>
       <r>     3.9375     0.8694     3.4731 </r>
       <r>     4.0085     0.8327     3.5336 </r>
       <r>     4.0795     0.7907     3.5913 </r>
       <r>     4.1505     0.7434     3.6458 </r>
       <r>     4.2216     0.6909     3.6967 </r>
       <r>     4.2926     0.6331     3.7438 </r>
       <r>     4.3636     0.5701     3.7866 </r>
       <r>     4.4347     0.5017     3.8247 </r>
       <r>     4.5057     0.4282     3.8577 </r>
       <r>     4.5767     0.3600     3.8856 </r>
       <r>     4.6478     0.3084     3.9094 </r>
       <r>     4.7188     0.2607     3.9295 </r>
       <r>     4.7898     0.2170     3.9465 </r>
       <r>     4.8608     0.1773     3.9605 </r>
       <r>     4.9319     0.1417     3.9718 </r>
       <r>     5.0029     0.1100     3.9807 </r>
       <r>     5.0739     0.0823     3.9875 </r>
       <r>     5.1450     0.0587     3.9925 </r>
       <r>     5.2160     0.0390     3.9959 </r>
       <r>     5.2870     0.0233     3.9981 </r>
       <r>     5.3581     0.0117     3.9993 </r>
       <r>     5.4291     0.0040     3.9999 </r>
       <r>     5.5001     0.0004     4.0000 </r>
       <r>     5.5711     0.0000     4.0000 </r>
       <r>     5.6422     0.0000     4.0000 </r>
       <r>     5.7132     0.0000     4.0000 </r>
       <r>     5.7842     0.0000     4.0000 </r>
       <r>     5.8553     0.0000     4.0000 </r>
       <r>     5.9263     0.0000     4.0000 </r>
       <r>     5.9973     0.0000     4.0000 </r>
       <r>     6.0684     0.0000     4.0000 </r>
       <r>     6.1394     0.0000     4.0000 </r>
       <r>     6.2104     0.0000     4.0000 </r>
       <r>     6.2814     0.0046     4.0000 </r>
       <r>     6.3525     0.0680     4.0024 </r>
       <r>     6.4235     0.1584     4.0103 </r>
       <r>     6.4945     0.2758     4.0256 </r>
       <r>     6.5656     0.4202     4.0501 </r>
       <r>     6.6366     0.5916     4.0859 </r>
       <r>     6.7076     0.7900     4.1348 </r>
       <r>     6.7787     1.0155     4.1988 </r>
       <r>     6.8497     1.2679     4.2797 </r>
       <r>     6.9207     1.5474     4.3795 </r>
       <r>     6.9917     1.8538     4.5002 </r>
       <r>     7.0628     2.6561     4.6458 </r>
       <r>     7.1338     2.4827     4.8740 </r>
       <r>     7.2048     0.2197     4.9449 </r>
       <r>     7.2759     0.1802     4.9591 </r>
       <r>     7.3469     0.1445     4.9706 </r>
       <r>     7.4179     0.1128     4.9797 </r>
       <r>     7.4890     0.0850     4.9867 </r>
       <r>     7.5600     0.0626     4.9919 </r>
       <r>     7.6310     0.0502     4.9959 </r>
       <r>     7.7020     0.0476     4.9993 </r>
       <r>     7.7731     0.0548     5.0029 </r>
       <r>     7.8441     0.0717     5.0073 </r>
       <r>     7.9151     0.0984     5.0133 </r>
       <r>     7.9862     0.1345     5.0215 </r>
       <r>     8.0572     0.1744     5.0325 </r>
       <r>     8.1282     0.2098     5.0462 </r>
       <r>     8.1993     0.2410     5.0622 </r>
       <r>     8.2703     0.2683     5.0803 </r>
       <r>     8.3413     0.2918     5.1002 </r>
       <r>     8.4124     0.3114     5.1217 </r>
       <r>     8.4834     0.3271     5.1444 </r>
       <r>     8.5544     0.3389     5.1681 </r>
       <r>     8.6254     0.3469     5.1924 </r>
       <r>     8.6965     0.3511     5.2172 </r>
       <r>     8.7675     0.3514     5.2422 </r>
       <r>     8.8385     0.3479     5.2671 </r>
       <r>     8.9096     0.3406     5.2916 </r>
       <r>     8.9806     0.3557     5.3160 </r>
       <r>     9.0516     0.3835     5.3423 </r>
       <r>     9.1227     0.4073     5.3704 </r>
       <r>     9.1937     0.4296     5.4001 </r>
       <r>     9.2647     0.4504     5.4314 </r>
       <r>     9.3357     0.4698     5.4641 </r>
       <r>     9.4068     0.4877     5.4981 </r>
       <r>     9.4778     0.5042     5.5333 </r>
       <r>     9.5488     0.5192     5.5697 </r>
       <r>     9.6199     0.5327     5.6070 </r>
       <r>     9.6909     0.5447     5.6453 </r>
       <r>     9.7619     0.5553     5.6844 </r>
       <r>     9.8330     0.5644     5.7241 </r>
       <r>     9.9040     0.5720     5.7645 </r>
       <r>     9.9750     0.5782     5.8054 </r>
       <r>    10.0460     0.5829     5.8466 </r>
       <r>    10.1171     0.5861     5.8881 </r>
       <r>    10.1881     0.5879     5.9298 </r>
       <r>    10.2591     0.5882     5.9716 </r>
       <r>    10.3302     0.5870     6.0134 </r>
       <r>    10.4012     0.5844     6.0550 </r>
       <r>    10.4722     0.5803     6.0964 </r>
       <r>    10.5433     0.5747     6.1374 </r>
       <r>    10.6143     0.5677     6.1780 </r>
       <r>    10.6853     0.5592     6.2180 </r>
       <r>    10.7563     0.5492     6.2574 </r>
       <r>    10.8274     0.5378     6.2960 </r>
       <r>    10.8984     0.5249     6.3337 </r>
       <r>    10.9694     0.5105     6.3705 </r>
       <r>    11.0405     0.4946     6.4062 </r>
       <r>    11.1115     0.4773     6.4408 </r>
       <r>    11.1825     0.4780     6.4742 </r>
       <r>    11.2536     0.7485     6.5157 </r>
       <r>    11.3246     0.5351     6.5661 </r>
       <r>    11.3956     0.3240     6.5894 </r>
       <r>    11.4666     0.3265     6.6125 </r>
       <r>    11.5377     0.3287     6.6358 </r>
       <r>    11.6087     0.3306     6.6592 </r>
       <r>    11.6797     0.3323     6.6827 </r>
       <r>    11.7508     0.3337     6.7064 </r>
       <r>    11.8218     1.9290     6.7578 </r>
       <r>    11.8928     0.8137     6.8288 </r>
       <r>    11.9639     0.7174     6.8831 </r>
       <r>    12.0349     0.6259     6.9308 </r>
       <r>    12.1059     0.5394     6.9722 </r>
       <r>    12.1769     0.4577     7.0075 </r>
       <r>    12.2480     0.3810     7.0373 </r>
       <r>    12.3190     0.3091     7.0618 </r>
       <r>    12.3900     2.5526     7.1500 </r>
       <r>    12.4611     2.1878     7.3116 </r>
       <r>    12.5321     1.7846     7.4543 </r>
       <r>    12.6031     1.2307     7.5594 </r>
       <r>    12.6742     1.1676     7.6447 </r>
       <r>    12.7452     1.0809     7.7247 </r>
       <r>    12.8162     0.9707     7.7977 </r>
       <r>    12.8872     0.8369     7.8620 </r>
       <r>    12.9583     0.6796     7.9160 </r>
       <r>    13.0293     0.4988     7.9580 </r>
       <r>    13.1003     0.2945     7.9863 </r>
       <r>    13.1714     0.0666     7.9993 </r>
       <r>    13.2424     0.0000     8.0000 </r>
       <r>    13.3134     0.0000     8.0000 </r>
       <r>    13.3845     0.0000     8.0000 </r>
       <r>    13.4555     0.0000     8.0000 </r>
       <r>    13.5265     0.0000     8.0000 </r>
       <r>    13.5975     0.0000     8.0000 </r>
       <r>    13.6686     0.0000     8.0000 </r>
       <r>    13.7396     0.0000     8.0000 </r>
       <r>    13.8106     0.0000     8.0000 </r>
       <r>    13.8817     0.0000     8.0000 </r>
       <r>    13.9527     0.0000     8.0000 </r>
       <r>    14.0237     0.0000     8.0000 </r>
       <r>    14.0948     0.0000     8.0000 </r>
       <r>    14.1658     0.0000     8.0000 </r>
      </set>
     </set>
    </array>
   </total>
   <partial>
    <array>
     <dimension dim="1">gridpoints</dimension>
     <dimension dim="2">spin</dimension>
     <dimension dim="3">ion</dimension>
     <field>energy</field>
     <field>    s</field>
     <field>   py</field>
     <field>   pz</field>
     <field>   px</field>
     <field>  dxy</field>
     <field>  dyz</field>
     <field>  dz2</field>
     <field>  dxz</field>
     <field>x2-y2</field>
     <set>
      <set comment="ion 1">
       <set comment="spin 1">
        <r>    -7.1432     0.0000     0.0000     0.0000     0.0000     0.0000     0.0000     0.0000     0.0000     0.0000 </r>
        <r>    -7.0722     0.0000     0.0000     0.0000     0.0000     0.0000     0.0000     0.0000     0.0000     0.0000 </r>
        <r>    -7.0012     0.0000     0.0000     0.0000     0.0000     0.0000     0.0000     0.0000     0.0000     0.0000 </r>
        <r>    -6.9301     0.0000     0.0000     0.0000     0.0000     0.0000     0.0000     0.0000     0.0000     0.0000 </r>
        <r>    -6.8591     0.0000     0.0000     0.0000     0.0000     0.0000     0.0000     0.0000     0.0000     0.0000 </r>
        <r>    -6.7881     0.0000     0.0000     0.0000     0.0000     0.0000     0.0000     0.0000     0.0000     0.0000 </r>
        <r>    -6.7171     0.0000     0.0000     0.0000     0.0000     0.0000     0.0000     0.0000     0.0000     0.0000 </r>
        <r>    -6.6460     0.0000     0.0000     0.0000     0.0000     0.0000     0.0000     0.0000     0.0000     0.0000 </r>
        <r>    -6.5750     0.0000     0.0000     0.0000     0.0000     0.0000     0.0000     0.0000     0.0000     0.0000 </r>
        <r>    -6.5040     0.0000     0.0000     0.0000     0.0000     0.0000     0.0000     0.0000     0.0000     0.0000 </r>
        <r>    -6.4329     0.0000     0.0000     0.0000     0.0000     0.0000     0.0000     0.0000     0.0000     0.0000 </r>
        <r>    -6.3619     0.0000     0.0000     0.0000     0.0000     0.0000     0.0000     0.0000     0.0000     0.0000 </r>
        <r>    -6.2909     0.0000     0.0000     0.0000     0.0000     0.0000     0.0000     0.0000     0.0000     0.0000 </r>
        <r>    -6.2198     0.0000     0.0000     0.0000     0.0000     0.0000     0.0000     0.0000     0.0000     0.0000 </r>
        <r>    -6.1488     0.0000     0.0000     0.0000     0.0000     0.0000     0.0000     0.0000     0.0000     0.0000 </r>
        <r>    -6.0778     0.0003     0.0000     0.0000     0.0000     0.0000     0.0000     0.0000     0.0000     0.0000 </r>
        <r>    -6.0068     0.0008     0.0000     0.0000     0.0000     0.0000     0.0000     0.0000     0.0000     0.0000 </r>
        <r>    -5.9357     0.0016     0.0000     0.0000     0.0000     0.0000     0.0000     0.0000     0.0000     0.0000 </r>
        <r>    -5.8647     0.0027     0.0000     0.0000     0.0000     0.0000     0.0000     0.0000     0.0000     0.0000 </r>
        <r>    -5.7937     0.0041     0.0001     0.0001     0.0001     0.0000     0.0000     0.0000     0.0000     0.0000 </r>
        <r>    -5.7226     0.0058     0.0001     0.0001     0.0001     0.0000     0.0000     0.0000     0.0000     0.0000 </r>
        <r>    -5.6516     0.0078     0.0001     0.0001     0.0001     0.0000     0.0000     0.0000     0.0000     0.0000 </r>
        <r>    -5.5806     0.0100     0.0002     0.0002     0.0002     0.0000     0.0000     0.0000     0.0000     0.0000 </r>
        <r>    -5.5095     0.0125     0.0002     0.0002     0.0002     0.0000     0.0000     0.0000     0.0000     0.0000 </r>
        <r>    -5.4385     0.0154     0.0003     0.0003     0.0003     0.0000     0.0000     0.0000     0.0000     0.0000 </r>
        <r>    -5.3675     0.0185     0.0003     0.0003     0.0003     0.0000     0.0000     0.0000     0.0000     0.0000 </r>
        <r>    -5.2965     0.0219     0.0004     0.0004     0.0004     0.0000     0.0000     0.0000     0.0000     0.0000 </r>
        <r>    -5.2254     0.0256     0.0004     0.0004     0.0004     0.0000     0.0000     0.0000     0.0000     0.0000 </r>
        <r>    -5.1544     0.0295     0.0005     0.0005     0.0005     0.0000     0.0000     0.0000     0.0000     0.0000 </r>
        <r>    -5.0834     0.0338     0.0006     0.0006     0.0006     0.0000     0.0000     0.0000     0.0000     0.0000 </r>
        <r>    -5.0123     0.0383     0.0007     0.0007     0.0007     0.0000     0.0000     0.0000     0.0000     0.0000 </r>
        <r>    -4.9413     0.0431     0.0007     0.0007     0.0007     0.0000     0.0000     0.0000     0.0000     0.0000 </r>
        <r>    -4.8703     0.0483     0.0008     0.0008     0.0008     0.0000     0.0000     0.0000     0.0000     0.0000 </r>
        <r>    -4.7992     0.0529     0.0010     0.0010     0.0010     0.0000     0.0000     0.0000     0.0000     0.0000 </r>
        <r>    -4.7282     0.0574     0.0013     0.0013     0.0013     0.0000     0.0000     0.0000     0.0000     0.0000 </r>
        <r>    -4.6572     0.0622     0.0016     0.0016     0.0016     0.0000     0.0000     0.0000     0.0000     0.0000 </r>
        <r>    -4.5862     0.0671     0.0018     0.0018     0.0018     0.0000     0.0000     0.0000     0.0000     0.0000 </r>
        <r>    -4.5151     0.0722     0.0020     0.0020     0.0020     0.0000     0.0000     0.0000     0.0000     0.0000 </r>
        <r>    -4.4441     0.0776     0.0023     0.0023     0.0023     0.0000     0.0000     0.0000     0.0000     0.0000 </r>
        <r>    -4.3731     0.0831     0.0025     0.0025     0.0025     0.0000     0.0000     0.0000     0.0000     0.0000 </r>
        <r>    -4.3020     0.0905     0.0028     0.0028     0.0028     0.0000     0.0000     0.0000     0.0000     0.0000 </r>
        <r>    -4.2310     0.0990     0.0031     0.0031     0.0031     0.0000     0.0000     0.0000     0.0000     0.0000 </r>
        <r>    -4.1600     0.1064     0.0034     0.0034     0.0034     0.0000     0.0000     0.0000     0.0000     0.0000 </r>
        <r>    -4.0889     0.1127     0.0036     0.0036     0.0036     0.0000     0.0000     0.0000     0.0000     0.0000 </r>
        <r>    -4.0179     0.1178     0.0038     0.0038     0.0038     0.0000     0.0000     0.0000     0.0000     0.0000 </r>
        <r>    -3.9469     0.1218     0.0040     0.0040     0.0040     0.0000     0.0000     0.0000     0.0000     0.0000 </r>
        <r>    -3.8759     0.1246     0.0041     0.0041     0.0041     0.0000     0.0000     0.0000     0.0000     0.0000 </r>
        <r>    -3.8048     0.1263     0.0042     0.0042     0.0042     0.0000     0.0000     0.0000     0.0000     0.0000 </r>
        <r>    -3.7338     0.1269     0.0042     0.0042     0.0042     0.0000     0.0000     0.0000     0.0000     0.0000 </r>
        <r>    -3.6628     0.1263     0.0043     0.0043     0.0043     0.0000     0.0000     0.0000     0.0000     0.0000 </r>
        <r>    -3.5917     0.1246     0.0042     0.0042     0.0042     0.0000     0.0000     0.0000     0.0000     0.0000 </r>
        <r>    -3.5207     0.1217     0.0042     0.0042     0.0042     0.0000     0.0000     0.0000     0.0000     0.0000 </r>
        <r>    -3.4497     0.1177     0.0041     0.0041     0.0041     0.0000     0.0000     0.0000     0.0000     0.0000 </r>
        <r>    -3.3786     0.1126     0.0040     0.0040     0.0040     0.0000     0.0000     0.0000     0.0000     0.0000 </r>
        <r>    -3.3076     0.1063     0.0038     0.0038     0.0038     0.0000     0.0000     0.0000     0.0000     0.0000 </r>
        <r>    -3.2366     0.0989     0.0036     0.0036     0.0036     0.0000     0.0000     0.0000     0.0000     0.0000 </r>
        <r>    -3.1656     0.0903     0.0033     0.0033     0.0033     0.0000     0.0000     0.0000     0.0000     0.0000 </r>
        <r>    -3.0945     0.0806     0.0031     0.0031     0.0031     0.0000     0.0000     0.0000     0.0000     0.0000 </r>
        <r>    -3.0235     0.1534     0.0062     0.0062     0.0065     0.0000     0.0000     0.0000     0.0000     0.0000 </r>
        <r>    -2.9525     0.0000     0.0000     0.0000     0.0000     0.0000     0.0000     0.0000     0.0000     0.0000 </r>
        <r>    -2.8814     0.0000     0.0000     0.0000     0.0000     0.0000     0.0000     0.0000     0.0000     0.0000 </r>
        <r>    -2.8104     0.0000     0.0000     0.0000     0.0000     0.0000     0.0000     0.0000     0.0000     0.0000 </r>
        <r>    -2.7394     0.0000     0.0000     0.0000     0.0000     0.0000     0.0000     0.0000     0.0000     0.0000 </r>
        <r>    -2.6683     0.0000     0.0000     0.0000     0.0000     0.0000     0.0000     0.0000     0.0000     0.0000 </r>
        <r>    -2.5973     0.0000     0.0000     0.0000     0.0000     0.0000     0.0000     0.0000     0.0000     0.0000 </r>
        <r>    -2.5263     0.0000     0.0000     0.0000     0.0000     0.0000     0.0000     0.0000     0.0000     0.0000 </r>
        <r>    -2.4553     0.0000     0.0000     0.0000     0.0000     0.0000     0.0000     0.0000     0.0000     0.0000 </r>
        <r>    -2.3842     0.0000     0.0000     0.0000     0.0000     0.0000     0.0000     0.0000     0.0000     0.0000 </r>
        <r>    -2.3132     0.0000     0.0000     0.0000     0.0000     0.0000     0.0000     0.0000     0.0000     0.0000 </r>
        <r>    -2.2422     0.0000     0.0000     0.0000     0.0000     0.0000     0.0000     0.0000     0.0000     0.0000 </r>
        <r>    -2.1711     0.0000     0.0000     0.0000     0.0000     0.0000     0.0000     0.0000     0.0000     0.0000 </r>
        <r>    -2.1001     0.0000     0.0000     0.0000     0.0000     0.0000     0.0000     0.0000     0.0000     0.0000 </r>
        <r>    -2.0291     0.0000     0.0000     0.0000     0.0000     0.0000     0.0000     0.0000     0.0000     0.0000 </r>
        <r>    -1.9580     0.0000     0.0000     0.0000     0.0000     0.0000     0.0000     0.0000     0.0000     0.0000 </r>
        <r>    -1.8870     0.0000     0.0000     0.0000     0.0000     0.0000     0.0000     0.0000     0.0000     0.0000 </r>
        <r>    -1.8160     0.0000     0.0000     0.0000     0.0000     0.0000     0.0000     0.0000     0.0000     0.0000 </r>
        <r>    -1.7450     0.0000     0.0000     0.0000     0.0000     0.0000     0.0000     0.0000     0.0000     0.0000 </r>
        <r>    -1.6739     0.0000     0.0000     0.0000     0.0000     0.0000     0.0000     0.0000     0.0000     0.0000 </r>
        <r>    -1.6029     0.0000     0.0000     0.0000     0.0000     0.0000     0.0000     0.0000     0.0000     0.0000 </r>
        <r>    -1.5319     0.0000     0.0000     0.0000     0.0000     0.0000     0.0000     0.0000     0.0000     0.0000 </r>
        <r>    -1.4608     0.0000     0.0000     0.0000     0.0000     0.0000     0.0000     0.0000     0.0000     0.0000 </r>
        <r>    -1.3898     0.0000     0.0000     0.0000     0.0000     0.0000     0.0000     0.0000     0.0000     0.0000 </r>
        <r>    -1.3188     0.0000     0.0000     0.0000     0.0000     0.0000     0.0000     0.0000     0.0000     0.0000 </r>
        <r>    -1.2477     0.0000     0.0000     0.0000     0.0000     0.0000     0.0000     0.0000     0.0000     0.0000 </r>
        <r>    -1.1767     0.0046     0.0004     0.0004     0.0006     0.0000     0.0000     0.0000     0.0000     0.0000 </r>
        <r>    -1.1057     0.0830     0.0109     0.0109     0.0082     0.0000     0.0000     0.0000     0.0000     0.0000 </r>
        <r>    -1.0347     0.0619     0.0082     0.0082     0.0082     0.0000     0.0000     0.0000     0.0000     0.0000 </r>
        <r>    -0.9636     0.0703     0.0097     0.0097     0.0097     0.0000     0.0000     0.0000     0.0000     0.0000 </r>
        <r>    -0.8926     0.0778     0.0111     0.0111     0.0111     0.0000     0.0000     0.0000     0.0000     0.0000 </r>
        <r>    -0.8216     0.0843     0.0122     0.0122     0.0122     0.0000     0.0000     0.0000     0.0000     0.0000 </r>
        <r>    -0.7505     0.0898     0.0133     0.0133     0.0133     0.0000     0.0000     0.0000     0.0000     0.0000 </r>
        <r>    -0.6795     0.0943     0.0141     0.0141     0.0141     0.0000     0.0000     0.0000     0.0000     0.0000 </r>
        <r>    -0.6085     0.0978     0.0148     0.0148     0.0148     0.0000     0.0000     0.0000     0.0000     0.0000 </r>
        <r>    -0.5374     0.1004     0.0154     0.0154     0.0154     0.0000     0.0000     0.0000     0.0000     0.0000 </r>
        <r>    -0.4664     0.1019     0.0158     0.0158     0.0158     0.0000     0.0000     0.0000     0.0000     0.0000 </r>
        <r>    -0.3954     0.1024     0.0160     0.0160     0.0160     0.0000     0.0000     0.0000     0.0000     0.0000 </r>
        <r>    -0.3244     0.1020     0.0161     0.0161     0.0161     0.0000     0.0000     0.0000     0.0000     0.0000 </r>
        <r>    -0.2533     0.1006     0.0160     0.0160     0.0160     0.0000     0.0000     0.0000     0.0000     0.0000 </r>
        <r>    -0.1823     0.0982     0.0157     0.0157     0.0157     0.0000     0.0000     0.0000     0.0000     0.0000 </r>
        <r>    -0.1113     0.0947     0.0153     0.0153     0.0153     0.0000     0.0000     0.0000     0.0000     0.0000 </r>
        <r>    -0.0402     0.0903     0.0147     0.0148     0.0147     0.0000     0.0000     0.0000     0.0000     0.0000 </r>
        <r>     0.0308     0.0849     0.0140     0.0140     0.0140     0.0000     0.0000     0.0000     0.0000     0.0000 </r>
        <r>     0.1018     0.0786     0.0131     0.0131     0.0131     0.0000     0.0000     0.0000     0.0000     0.0000 </r>
        <r>     0.1729     0.0712     0.0121     0.0121     0.0121     0.0000     0.0000     0.0000     0.0000     0.0000 </r>
        <r>     0.2439     0.0628     0.0109     0.0109     0.0109     0.0000     0.0000     0.0000     0.0000     0.0000 </r>
        <r>     0.3149     0.0494     0.0091     0.0091     0.0088     0.0000     0.0000     0.0000     0.0000     0.0000 </r>
        <r>     0.3860     0.0292     0.0067     0.0067     0.0054     0.0000     0.0000     0.0000     0.0000     0.0000 </r>
        <r>     0.4570     0.0156     0.0050     0.0050     0.0031     0.0000     0.0000     0.0000     0.0000     0.0000 </r>
        <r>     0.5280     0.0086     0.0041     0.0041     0.0019     0.0000     0.0000     0.0000     0.0000     0.0000 </r>
        <r>     0.5990     0.0077     0.0039     0.0039     0.0018     0.0000     0.0000     0.0000     0.0000     0.0000 </r>
        <r>     0.6701     0.0075     0.0038     0.0038     0.0017     0.0000     0.0000     0.0000     0.0000     0.0000 </r>
        <r>     0.7411     0.0073     0.0036     0.0036     0.0017     0.0000     0.0000     0.0000     0.0000     0.0000 </r>
        <r>     0.8121     0.0071     0.0035     0.0035     0.0016     0.0000     0.0000     0.0000     0.0000     0.0000 </r>
        <r>     0.8832     0.0069     0.0034     0.0034     0.0016     0.0000     0.0000     0.0000     0.0000     0.0000 </r>
        <r>     0.9542     0.0067     0.0033     0.0033     0.0015     0.0000     0.0000     0.0000     0.0000     0.0000 </r>
        <r>     1.0252     0.0065     0.0032     0.0032     0.0015     0.0000     0.0000     0.0000     0.0000     0.0000 </r>
        <r>     1.0963     0.0062     0.0031     0.0031     0.0014     0.0000     0.0000     0.0000     0.0000     0.0000 </r>
        <r>     1.1673     0.0060     0.0030     0.0030     0.0014     0.0000     0.0000     0.0000     0.0000     0.0000 </r>
        <r>     1.2383     0.0059     0.0029     0.0029     0.0014     0.0000     0.0000     0.0000     0.0000     0.0000 </r>
        <r>     1.3093     0.0080     0.0419     0.0419     0.0397     0.0000     0.0000     0.0000     0.0000     0.0000 </r>
        <r>     1.3804     0.0061     0.0168     0.0168     0.0153     0.0000     0.0000     0.0000     0.0000     0.0000 </r>
        <r>     1.4514     0.0059     0.0174     0.0174     0.0167     0.0000     0.0000     0.0000     0.0000     0.0000 </r>
        <r>     1.5224     0.0057     0.0180     0.0180     0.0180     0.0000     0.0000     0.0000     0.0000     0.0000 </r>
        <r>     1.5935     0.0056     0.0185     0.0185     0.0192     0.0000     0.0000     0.0000     0.0000     0.0000 </r>
        <r>     1.6645     0.0054     0.0189     0.0189     0.0203     0.0000     0.0000     0.0000     0.0000     0.0000 </r>
        <r>     1.7355     0.0052     0.0193     0.0193     0.0213     0.0000     0.0000     0.0000     0.0000     0.0000 </r>
        <r>     1.8066     0.0051     0.0196     0.0196     0.0223     0.0000     0.0000     0.0000     0.0000     0.0000 </r>
        <r>     1.8776     0.0049     0.0198     0.0198     0.0231     0.0000     0.0000     0.0000     0.0000     0.0000 </r>
        <r>     1.9486     0.0047     0.0200     0.0200     0.0238     0.0000     0.0000     0.0000     0.0000     0.0000 </r>
        <r>     2.0196     0.0046     0.0201     0.0201     0.0245     0.0000     0.0000     0.0000     0.0000     0.0000 </r>
        <r>     2.0907     0.0044     0.0202     0.0202     0.0251     0.0000     0.0000     0.0000     0.0000     0.0000 </r>
        <r>     2.1617     0.0042     0.0202     0.0202     0.0255     0.0000     0.0000     0.0000     0.0000     0.0000 </r>
        <r>     2.2327     0.0041     0.0201     0.0201     0.0259     0.0000     0.0000     0.0000     0.0000     0.0000 </r>
        <r>     2.3038     0.0039     0.0200     0.0200     0.0262     0.0000     0.0000     0.0000     0.0000     0.0000 </r>
        <r>     2.3748     0.0038     0.0198     0.0198     0.0264     0.0000     0.0000     0.0000     0.0000     0.0000 </r>
        <r>     2.4458     0.0036     0.0195     0.0195     0.0265     0.0000     0.0000     0.0000     0.0000     0.0000 </r>
        <r>     2.5169     0.0035     0.0192     0.0192     0.0266     0.0000     0.0000     0.0000     0.0000     0.0000 </r>
        <r>     2.5879     0.0033     0.0188     0.0188     0.0265     0.0000     0.0000     0.0000     0.0000     0.0000 </r>
[...]
       </set>
       <set comment="band 5">
        <r>  0.0490  0.0000  0.0000  0.0588  0.0000  0.0000  0.0000  0.0000  0.0000 </r>
        <r>  0.0490  0.0000  0.0000  0.0588  0.0000  0.0000  0.0000  0.0000  0.0000 </r>
       </set>
       <set comment="band 6">
        <r>  0.0450  0.0000  0.0000  0.0339  0.0000  0.0000  0.0000  0.0000  0.0000 </r>
        <r>  0.0450  0.0000  0.0000  0.0339  0.0000  0.0000  0.0000  0.0000  0.0000 </r>
       </set>
       <set comment="band 7">
        <r>  0.0000  0.0840  0.0823  0.0000  0.0000  0.0000  0.0000  0.0000  0.0000 </r>
        <r>  0.0000  0.0840  0.0823  0.0000  0.0000  0.0000  0.0000  0.0000  0.0000 </r>
       </set>
       <set comment="band 8">
        <r>  0.0000  0.0827  0.0844  0.0000  0.0000  0.0000  0.0000  0.0000  0.0000 </r>
        <r>  0.0000  0.0827  0.0844  0.0000  0.0000  0.0000  0.0000  0.0000  0.0000 </r>
       </set>
      </set>
      <set comment="kpoint 7">
       <set comment="band 1">
        <r>  0.2114  0.0074  0.0076  0.0113  0.0000  0.0000  0.0000  0.0000  0.0000 </r>
        <r>  0.2114  0.0074  0.0076  0.0113  0.0000  0.0000  0.0000  0.0000  0.0000 </r>
       </set>
       <set comment="band 2">
        <r>  0.1774  0.0095  0.0097  0.0398  0.0000  0.0000  0.0000  0.0000  0.0000 </r>
        <r>  0.1774  0.0095  0.0097  0.0398  0.0000  0.0000  0.0000  0.0000  0.0000 </r>
       </set>
       <set comment="band 3">
        <r>  0.0033  0.0451  0.0460  0.0578  0.0000  0.0000  0.0000  0.0000  0.0000 </r>
        <r>  0.0033  0.0451  0.0460  0.0578  0.0000  0.0000  0.0000  0.0000  0.0000 </r>
       </set>
       <set comment="band 4">
        <r>  0.0000  0.0991  0.0971  0.0000  0.0000  0.0000  0.0000  0.0000  0.0000 </r>
        <r>  0.0000  0.0991  0.0971  0.0000  0.0000  0.0000  0.0000  0.0000  0.0000 </r>
       </set>
       <set comment="band 5">
        <r>  0.0537  0.0010  0.0010  0.0464  0.0000  0.0000  0.0000  0.0000  0.0000 </r>
        <r>  0.0537  0.0010  0.0010  0.0464  0.0000  0.0000  0.0000  0.0000  0.0000 </r>
       </set>
       <set comment="band 6">
        <r>  0.0062  0.0368  0.0376  0.0009  0.0000  0.0000  0.0000  0.0000  0.0000 </r>
        <r>  0.0062  0.0368  0.0376  0.0009  0.0000  0.0000  0.0000  0.0000  0.0000 </r>
       </set>
       <set comment="band 7">
        <r>  0.0000  0.0768  0.0753  0.0000  0.0000  0.0000  0.0000  0.0000  0.0000 </r>
        <r>  0.0000  0.0768  0.0753  0.0000  0.0000  0.0000  0.0000  0.0000  0.0000 </r>
       </set>
       <set comment="band 8">
        <r>  0.0448  0.0043  0.0044  0.1241  0.0000  0.0000  0.0000  0.0000  0.0000 </r>
        <r>  0.0449  0.0043  0.0044  0.1241  0.0000  0.0000  0.0000  0.0000  0.0000 </r>
       </set>
      </set>
      <set comment="kpoint 8">
       <set comment="band 1">
        <r>  0.2122  0.0072  0.0071  0.0117  0.0000  0.0000  0.0000  0.0000  0.0000 </r>
        <r>  0.2122  0.0072  0.0071  0.0117  0.0000  0.0000  0.0000  0.0000  0.0000 </r>
       </set>
       <set comment="band 2">
        <r>  0.1750  0.0094  0.0092  0.0403  0.0000  0.0000  0.0000  0.0000  0.0000 </r>
        <r>  0.1750  0.0094  0.0092  0.0403  0.0000  0.0000  0.0000  0.0000  0.0000 </r>
       </set>
       <set comment="band 3">
        <r>  0.0033  0.0459  0.0450  0.0573  0.0000  0.0000  0.0000  0.0000  0.0000 </r>
        <r>  0.0033  0.0459  0.0450  0.0573  0.0000  0.0000  0.0000  0.0000  0.0000 </r>
       </set>
       <set comment="band 4">
        <r>  0.0000  0.0986  0.1006  0.0000  0.0000  0.0000  0.0000  0.0000  0.0000 </r>
        <r>  0.0000  0.0986  0.1006  0.0000  0.0000  0.0000  0.0000  0.0000  0.0000 </r>
       </set>
       <set comment="band 5">
        <r>  0.0547  0.0011  0.0011  0.0449  0.0000  0.0000  0.0000  0.0000  0.0000 </r>
        <r>  0.0547  0.0011  0.0011  0.0449  0.0000  0.0000  0.0000  0.0000  0.0000 </r>
       </set>
       <set comment="band 6">
        <r>  0.0105  0.0393  0.0385  0.0047  0.0000  0.0000  0.0000  0.0000  0.0000 </r>
        <r>  0.0105  0.0393  0.0385  0.0047  0.0000  0.0000  0.0000  0.0000  0.0000 </r>
       </set>
       <set comment="band 7">
        <r>  0.0000  0.0759  0.0774  0.0000  0.0000  0.0000  0.0000  0.0000  0.0000 </r>
        <r>  0.0000  0.0759  0.0774  0.0000  0.0000  0.0000  0.0000  0.0000  0.0000 </r>
       </set>
       <set comment="band 8">
        <r>  0.0405  0.0022  0.0021  0.1220  0.0000  0.0000  0.0000  0.0000  0.0000 </r>
        <r>  0.0405  0.0022  0.0021  0.1220  0.0000  0.0000  0.0000  0.0000  0.0000 </r>
       </set>
      </set>
     </set>
     <set comment="spin2">
      <set comment="kpoint 1">
       <set comment="band 1">
        <r>  0.2098  0.0000  0.0000  0.0000  0.0000  0.0000  0.0000  0.0000  0.0000 </r>
        <r>  0.2098  0.0000  0.0000  0.0000  0.0000  0.0000  0.0000  0.0000  0.0000 </r>
       </set>
       <set comment="band 2">
        <r>  0.0000  0.1057  0.1036  0.0000  0.0000  0.0000  0.0000  0.0000  0.0000 </r>
        <r>  0.0000  0.1057  0.1036  0.0000  0.0000  0.0000  0.0000  0.0000  0.0000 </r>
       </set>
       <set comment="band 3">
        <r>  0.0000  0.0000  0.0000  0.2111  0.0000  0.0000  0.0000  0.0000  0.0000 </r>
        <r>  0.0000  0.0000  0.0000  0.2111  0.0000  0.0000  0.0000  0.0000  0.0000 </r>
       </set>
       <set comment="band 4">
        <r>  0.0000  0.1054  0.1076  0.0000  0.0000  0.0000  0.0000  0.0000  0.0000 </r>
        <r>  0.0000  0.1054  0.1076  0.0000  0.0000  0.0000  0.0000  0.0000  0.0000 </r>
       </set>
       <set comment="band 5">
        <r>  0.0000  0.0752  0.0737  0.0000  0.0000  0.0000  0.0000  0.0000  0.0000 </r>
        <r>  0.0000  0.0752  0.0737  0.0000  0.0000  0.0000  0.0000  0.0000  0.0000 </r>
       </set>
       <set comment="band 6">
        <r>  0.0176  0.0000  0.0000  0.1420  0.0000  0.0000  0.0000  0.0000  0.0000 </r>
        <r>  0.0176  0.0000  0.0000  0.1420  0.0000  0.0000  0.0000  0.0000  0.0000 </r>
       </set>
       <set comment="band 7">
        <r>  0.0000  0.0740  0.0755  0.0000  0.0000  0.0000  0.0000  0.0000  0.0000 </r>
        <r>  0.0000  0.0740  0.0755  0.0000  0.0000  0.0000  0.0000  0.0000  0.0000 </r>
       </set>
       <set comment="band 8">
        <r>  0.3401  0.0000  0.0000  0.0072  0.0000  0.0000  0.0000  0.0000  0.0000 </r>
        <r>  0.3401  0.0000  0.0000  0.0072  0.0000  0.0000  0.0000  0.0000  0.0000 </r>
       </set>
      </set>
      <set comment="kpoint 2">
       <set comment="band 1">
        <r>  0.2078  0.0040  0.0041  0.0039  0.0000  0.0000  0.0000  0.0000  0.0000 </r>
        <r>  0.2078  0.0040  0.0041  0.0039  0.0000  0.0000  0.0000  0.0000  0.0000 </r>
       </set>
       <set comment="band 2">
        <r>  0.1082  0.0330  0.0336  0.0327  0.0000  0.0000  0.0000  0.0000  0.0000 </r>
        <r>  0.1082  0.0330  0.0336  0.0327  0.0000  0.0000  0.0000  0.0000  0.0000 </r>
       </set>
       <set comment="band 3">
        <r>  0.0000  0.0351  0.0352  0.1399  0.0000  0.0000  0.0000  0.0000  0.0000 </r>
        <r>  0.0000  0.0351  0.0352  0.1399  0.0000  0.0000  0.0000  0.0000  0.0000 </r>
       </set>
       <set comment="band 4">
        <r>  0.0000  0.1050  0.1035  0.0000  0.0000  0.0000  0.0000  0.0000  0.0000 </r>
        <r>  0.0000  0.1050  0.1035  0.0000  0.0000  0.0000  0.0000  0.0000  0.0000 </r>
       </set>
       <set comment="band 5">
        <r>  0.1719  0.0107  0.0110  0.0122  0.0000  0.0000  0.0000  0.0000  0.0000 </r>
        <r>  0.1719  0.0107  0.0110  0.0122  0.0000  0.0000  0.0000  0.0000  0.0000 </r>
       </set>
       <set comment="band 6">
        <r>  0.0000  0.0580  0.0569  0.0000  0.0000  0.0000  0.0000  0.0000  0.0000 </r>
        <r>  0.0000  0.0580  0.0569  0.0000  0.0000  0.0000  0.0000  0.0000  0.0000 </r>
       </set>
       <set comment="band 7">
        <r>  0.0000  0.0189  0.0192  0.0767  0.0000  0.0000  0.0000  0.0000  0.0000 </r>
        <r>  0.0000  0.0189  0.0192  0.0767  0.0000  0.0000  0.0000  0.0000  0.0000 </r>
       </set>
       <set comment="band 8">
        <r>  0.0225  0.0413  0.0422  0.0496  0.0000  0.0000  0.0000  0.0000  0.0000 </r>
        <r>  0.0225  0.0413  0.0421  0.0496  0.0000  0.0000  0.0000  0.0000  0.0000 </r>
       </set>
      </set>
      <set comment="kpoint 3">
       <set comment="band 1">
        <r>  0.2084  0.0038  0.0038  0.0040  0.0000  0.0000  0.0000  0.0000  0.0000 </r>
        <r>  0.2084  0.0038  0.0038  0.0040  0.0000  0.0000  0.0000  0.0000  0.0000 </r>
       </set>
       <set comment="band 2">
        <r>  0.1065  0.0330  0.0323  0.0332  0.0000  0.0000  0.0000  0.0000  0.0000 </r>
        <r>  0.1065  0.0330  0.0323  0.0332  0.0000  0.0000  0.0000  0.0000  0.0000 </r>
       </set>
       <set comment="band 3">
        <r>  0.0000  0.0352  0.0344  0.1399  0.0000  0.0000  0.0000  0.0000  0.0000 </r>
        <r>  0.0000  0.0352  0.0344  0.1399  0.0000  0.0000  0.0000  0.0000  0.0000 </r>
       </set>
       <set comment="band 4">
        <r>  0.0000  0.1046  0.1068  0.0000  0.0000  0.0000  0.0000  0.0000  0.0000 </r>
        <r>  0.0000  0.1046  0.1068  0.0000  0.0000  0.0000  0.0000  0.0000  0.0000 </r>
       </set>
       <set comment="band 5">
        <r>  0.1723  0.0118  0.0115  0.0103  0.0000  0.0000  0.0000  0.0000  0.0000 </r>
        <r>  0.1723  0.0118  0.0115  0.0103  0.0000  0.0000  0.0000  0.0000  0.0000 </r>
       </set>
       <set comment="band 6">
        <r>  0.0001  0.0195  0.0191  0.0769  0.0000  0.0000  0.0000  0.0000  0.0000 </r>
        <r>  0.0001  0.0195  0.0191  0.0769  0.0000  0.0000  0.0000  0.0000  0.0000 </r>
       </set>
       <set comment="band 7">
        <r>  0.0000  0.0572  0.0583  0.0000  0.0000  0.0000  0.0000  0.0000  0.0000 </r>
        <r>  0.0000  0.0572  0.0583  0.0000  0.0000  0.0000  0.0000  0.0000  0.0000 </r>
       </set>
       <set comment="band 8">
        <r>  0.0245  0.0478  0.0469  0.0393  0.0000  0.0000  0.0000  0.0000  0.0000 </r>
        <r>  0.0245  0.0478  0.0469  0.0393  0.0000  0.0000  0.0000  0.0000  0.0000 </r>
       </set>
      </set>
      <set comment="kpoint 4">
       <set comment="band 1">
        <r>  0.2017  0.0000  0.0195  0.0000  0.0000  0.0000  0.0000  0.0000  0.0000 </r>
        <r>  0.2017  0.0000  0.0195  0.0000  0.0000  0.0000  0.0000  0.0000  0.0000 </r>
       </set>
       <set comment="band 2">
        <r>  0.1755  0.0000  0.0738  0.0000  0.0000  0.0000  0.0000  0.0000  0.0000 </r>
        <r>  0.1755  0.0000  0.0738  0.0000  0.0000  0.0000  0.0000  0.0000  0.0000 </r>
       </set>
       <set comment="band 3">
        <r>  0.0000  0.1136  0.0000  0.0786  0.0000  0.0000  0.0000  0.0000  0.0000 </r>
        <r>  0.0000  0.1136  0.0000  0.0786  0.0000  0.0000  0.0000  0.0000  0.0000 </r>
       </set>
       <set comment="band 4">
        <r>  0.0000  0.0786  0.0000  0.1136  0.0000  0.0000  0.0000  0.0000  0.0000 </r>
        <r>  0.0000  0.0786  0.0000  0.1136  0.0000  0.0000  0.0000  0.0000  0.0000 </r>
       </set>
       <set comment="band 5">
        <r>  0.0490  0.0000  0.0588  0.0000  0.0000  0.0000  0.0000  0.0000  0.0000 </r>
        <r>  0.0490  0.0000  0.0588  0.0000  0.0000  0.0000  0.0000  0.0000  0.0000 </r>
       </set>
       <set comment="band 6">
        <r>  0.0450  0.0000  0.0340  0.0000  0.0000  0.0000  0.0000  0.0000  0.0000 </r>
        <r>  0.0450  0.0000  0.0340  0.0000  0.0000  0.0000  0.0000  0.0000  0.0000 </r>
       </set>
       <set comment="band 7">
        <r>  0.0002  0.1012  0.0001  0.0652  0.0000  0.0000  0.0000  0.0000  0.0000 </r>
        <r>  0.0002  0.1012  0.0001  0.0652  0.0000  0.0000  0.0000  0.0000  0.0000 </r>
       </set>
       <set comment="band 8">
        <r>  0.0000  0.0653  0.0000  0.1013  0.0000  0.0000  0.0000  0.0000  0.0000 </r>
        <r>  0.0000  0.0653  0.0000  0.1013  0.0000  0.0000  0.0000  0.0000  0.0000 </r>
       </set>
      </set>
      <set comment="kpoint 5">
       <set comment="band 1">
        <r>  0.2118  0.0073  0.0115  0.0073  0.0000  0.0000  0.0000  0.0000  0.0000 </r>
        <r>  0.2118  0.0073  0.0115  0.0073  0.0000  0.0000  0.0000  0.0000  0.0000 </r>
       </set>
       <set comment="band 2">
        <r>  0.1762  0.0095  0.0400  0.0095  0.0000  0.0000  0.0000  0.0000  0.0000 </r>
        <r>  0.1762  0.0095  0.0400  0.0095  0.0000  0.0000  0.0000  0.0000  0.0000 </r>
       </set>
       <set comment="band 3">
        <r>  0.0033  0.0455  0.0575  0.0455  0.0000  0.0000  0.0000  0.0000  0.0000 </r>
        <r>  0.0033  0.0455  0.0575  0.0455  0.0000  0.0000  0.0000  0.0000  0.0000 </r>
       </set>
       <set comment="band 4">
        <r>  0.0000  0.0988  0.0000  0.0988  0.0000  0.0000  0.0000  0.0000  0.0000 </r>
        <r>  0.0000  0.0988  0.0000  0.0988  0.0000  0.0000  0.0000  0.0000  0.0000 </r>
       </set>
       <set comment="band 5">
        <r>  0.0542  0.0011  0.0456  0.0010  0.0000  0.0000  0.0000  0.0000  0.0000 </r>
        <r>  0.0542  0.0011  0.0456  0.0010  0.0000  0.0000  0.0000  0.0000  0.0000 </r>
       </set>
       <set comment="band 6">
        <r>  0.0084  0.0383  0.0026  0.0382  0.0000  0.0000  0.0000  0.0000  0.0000 </r>
        <r>  0.0084  0.0383  0.0026  0.0382  0.0000  0.0000  0.0000  0.0000  0.0000 </r>
       </set>
       <set comment="band 7">
        <r>  0.0005  0.0759  0.0003  0.0765  0.0000  0.0000  0.0000  0.0000  0.0000 </r>
        <r>  0.0005  0.0759  0.0003  0.0765  0.0000  0.0000  0.0000  0.0000  0.0000 </r>
       </set>
       <set comment="band 8">
        <r>  0.0433  0.0066  0.1196  0.0041  0.0000  0.0000  0.0000  0.0000  0.0000 </r>
        <r>  0.0433  0.0066  0.1196  0.0041  0.0000  0.0000  0.0000  0.0000  0.0000 </r>
       </set>
      </set>
      <set comment="kpoint 6">
       <set comment="band 1">
        <r>  0.2017  0.0000  0.0000  0.0195  0.0000  0.0000  0.0000  0.0000  0.0000 </r>
        <r>  0.2017  0.0000  0.0000  0.0195  0.0000  0.0000  0.0000  0.0000  0.0000 </r>
       </set>
       <set comment="band 2">
        <r>  0.1754  0.0000  0.0000  0.0738  0.0000  0.0000  0.0000  0.0000  0.0000 </r>
        <r>  0.1754  0.0000  0.0000  0.0738  0.0000  0.0000  0.0000  0.0000  0.0000 </r>
       </set>
       <set comment="band 3">
        <r>  0.0000  0.0963  0.0944  0.0000  0.0000  0.0000  0.0000  0.0000  0.0000 </r>
        <r>  0.0000  0.0963  0.0944  0.0000  0.0000  0.0000  0.0000  0.0000  0.0000 </r>
       </set>
       <set comment="band 4">
        <r>  0.0000  0.0959  0.0978  0.0000  0.0000  0.0000  0.0000  0.0000  0.0000 </r>
        <r>  0.0000  0.0959  0.0978  0.0000  0.0000  0.0000  0.0000  0.0000  0.0000 </r>
       </set>
       <set comment="band 5">
        <r>  0.0490  0.0000  0.0000  0.0588  0.0000  0.0000  0.0000  0.0000  0.0000 </r>
        <r>  0.0490  0.0000  0.0000  0.0588  0.0000  0.0000  0.0000  0.0000  0.0000 </r>
       </set>
       <set comment="band 6">
        <r>  0.0450  0.0000  0.0000  0.0339  0.0000  0.0000  0.0000  0.0000  0.0000 </r>
        <r>  0.0450  0.0000  0.0000  0.0339  0.0000  0.0000  0.0000  0.0000  0.0000 </r>
       </set>
       <set comment="band 7">
        <r>  0.0000  0.0840  0.0823  0.0000  0.0000  0.0000  0.0000  0.0000  0.0000 </r>
        <r>  0.0000  0.0840  0.0823  0.0000  0.0000  0.0000  0.0000  0.0000  0.0000 </r>
       </set>
       <set comment="band 8">
        <r>  0.0000  0.0827  0.0844  0.0000  0.0000  0.0000  0.0000  0.0000  0.0000 </r>
        <r>  0.0000  0.0827  0.0844  0.0000  0.0000  0.0000  0.0000  0.0000  0.0000 </r>
       </set>
      </set>
      <set comment="kpoint 7">
       <set comment="band 1">
        <r>  0.2114  0.0074  0.0076  0.0113  0.0000  0.0000  0.0000  0.0000  0.0000 </r>
        <r>  0.2114  0.0074  0.0076  0.0113  0.0000  0.0000  0.0000  0.0000  0.0000 </r>
       </set>
       <set comment="band 2">
        <r>  0.1774  0.0095  0.0097  0.0398  0.0000  0.0000  0.0000  0.0000  0.0000 </r>
        <r>  0.1774  0.0095  0.0097  0.0398  0.0000  0.0000  0.0000  0.0000  0.0000 </r>
       </set>
       <set comment="band 3">
        <r>  0.0033  0.0451  0.0460  0.0578  0.0000  0.0000  0.0000  0.0000  0.0000 </r>
        <r>  0.0033  0.0451  0.0460  0.0578  0.0000  0.0000  0.0000  0.0000  0.0000 </r>
       </set>
       <set comment="band 4">
        <r>  0.0000  0.0991  0.0971  0.0000  0.0000  0.0000  0.0000  0.0000  0.0000 </r>
        <r>  0.0000  0.0991  0.0971  0.0000  0.0000  0.0000  0.0000  0.0000  0.0000 </r>
       </set>
       <set comment="band 5">
        <r>  0.0537  0.0010  0.0010  0.0464  0.0000  0.0000  0.0000  0.0000  0.0000 </r>
        <r>  0.0537  0.0010  0.0010  0.0464  0.0000  0.0000  0.0000  0.0000  0.0000 </r>
       </set>
       <set comment="band 6">
        <r>  0.0062  0.0368  0.0376  0.0009  0.0000  0.0000  0.0000  0.0000  0.0000 </r>
        <r>  0.0062  0.0368  0.0376  0.0009  0.0000  0.0000  0.0000  0.0000  0.0000 </r>
       </set>
       <set comment="band 7">
        <r>  0.0000  0.0768  0.0753  0.0000  0.0000  0.0000  0.0000  0.0000  0.0000 </r>
        <r>  0.0000  0.0768  0.0753  0.0000  0.0000  0.0000  0.0000  0.0000  0.0000 </r>
       </set>
       <set comment="band 8">
        <r>  0.0448  0.0043  0.0044  0.1242  0.0000  0.0000  0.0000  0.0000  0.0000 </r>
        <r>  0.0449  0.0043  0.0044  0.1240  0.0000  0.0000  0.0000  0.0000  0.0000 </r>
       </set>
      </set>
      <set comment="kpoint 8">
       <set comment="band 1">
        <r>  0.2122  0.0072  0.0071  0.0117  0.0000  0.0000  0.0000  0.0000  0.0000 </r>
        <r>  0.2122  0.0072  0.0071  0.0117  0.0000  0.0000  0.0000  0.0000  0.0000 </r>
       </set>
       <set comment="band 2">
        <r>  0.1750  0.0094  0.0092  0.0403  0.0000  0.0000  0.0000  0.0000  0.0000 </r>
        <r>  0.1750  0.0094  0.0092  0.0403  0.0000  0.0000  0.0000  0.0000  0.0000 </r>
       </set>
       <set comment="band 3">
        <r>  0.0033  0.0459  0.0450  0.0573  0.0000  0.0000  0.0000  0.0000  0.0000 </r>
        <r>  0.0033  0.0459  0.0450  0.0573  0.0000  0.0000  0.0000  0.0000  0.0000 </r>
       </set>
       <set comment="band 4">
        <r>  0.0000  0.0986  0.1006  0.0000  0.0000  0.0000  0.0000  0.0000  0.0000 </r>
        <r>  0.0000  0.0986  0.1006  0.0000  0.0000  0.0000  0.0000  0.0000  0.0000 </r>
       </set>
       <set comment="band 5">
        <r>  0.0547  0.0011  0.0011  0.0449  0.0000  0.0000  0.0000  0.0000  0.0000 </r>
        <r>  0.0547  0.0011  0.0011  0.0449  0.0000  0.0000  0.0000  0.0000  0.0000 </r>
       </set>
       <set comment="band 6">
        <r>  0.0105  0.0393  0.0385  0.0047  0.0000  0.0000  0.0000  0.0000  0.0000 </r>
        <r>  0.0105  0.0393  0.0385  0.0047  0.0000  0.0000  0.0000  0.0000  0.0000 </r>
       </set>
       <set comment="band 7">
        <r>  0.0000  0.0759  0.0774  0.0000  0.0000  0.0000  0.0000  0.0000  0.0000 </r>
        <r>  0.0000  0.0759  0.0774  0.0000  0.0000  0.0000  0.0000  0.0000  0.0000 </r>
       </set>
       <set comment="band 8">
        <r>  0.0405  0.0022  0.0021  0.1220  0.0000  0.0000  0.0000  0.0000  0.0000 </r>
        <r>  0.0405  0.0022  0.0021  0.1220  0.0000  0.0000  0.0000  0.0000  0.0000 </r>
       </set>
      </set>
     </set>
    </set>
   </array>
  </projected>
 </calculation>
 <structure name="finalpos" >
  <crystal>
   <varray name="basis" >
    <v>       0.00000000       2.72524900       2.75263900 </v>
    <v>       2.75277700      -0.02752800       2.75263900 </v>
    <v>       2.75277700       2.75277700       0.00000000 </v>
   </varray>
   <i name="volume">     41.71779219 </i>
   <varray name="rec_basis" >
    <v>      -0.18163476       0.18163476       0.18346032 </v>
    <v>       0.18163476      -0.18163476       0.17982742 </v>
    <v>       0.18163476       0.18163476      -0.17982742 </v>
   </varray>
  </crystal>
  <varray name="positions" >
   <v>       0.75000000       0.75000000       0.75000000 </v>
   <v>       0.50000000       0.50000000       0.50000000 </v>
  </varray>
 </structure>
</modeling>
