phonopy:
  version: "2.30.1"
  frequency_unit_conversion_factor: 15.633302
  symmetry_tolerance: 1.00000e-03

space_group:
  type: "Fd-3m"
  number: 227
  Hall_symbol: "F 4d 2 3 -1d"

primitive_matrix:
- [  0.000000000000000,  0.500000000000000,  0.500000000000000 ]
- [  0.500000000000000,  0.000000000000000,  0.500000000000000 ]
- [  0.500000000000000,  0.500000000000000, -0.000000000000000 ]

supercell_matrix:
- [   1,   0,   0 ]
- [   0,   1,   0 ]
- [   0,   0,   1 ]

primitive_cell:
  lattice:
  - [     0.000000084284431,     2.730544223811944,     2.730544214805406 ] # a
  - [     2.730544330865610,    -0.000000012680353,     2.730544311770200 ] # b
  - [     2.730544386055588,     2.730544375966710,    -0.000000067870334 ] # c
  points:
  - symbol: Si # 1
    coordinates: [  0.749999980842989,  0.750000047218784,  0.749999973551888 ]
    mass: 28.085500
  - symbol: Si # 2
    coordinates: [  0.499999894662664,  0.500000040110017,  0.500000030423089 ]
    mass: 28.085500
  reciprocal_lattice: # without 2pi
  - [    -0.183113679000013,     0.183113684228054,     0.183113681130935 ] # a*
  - [     0.183113677048902,    -0.183113673174007,     0.183113668125778 ] # b*
  - [     0.183113669646686,     0.183113663820680,    -0.183113670076888 ] # c*

unit_cell:
  lattice:
  - [     5.461088632636766,     0.000000139474413,     0.000000029094460 ] # a
  - [     0.000000139474410,     5.461088612459006,    -0.000000164835128 ] # b
  - [     0.000000029094453,    -0.000000164835119,     5.461088594445939 ] # c
  points:
  - symbol: Si # 1
    coordinates: [  0.250000010385336,  0.249999977197439,  0.750000014030887 ]
    mass: 28.085500
    reduced_to: 1
  - symbol: Si # 2
    coordinates: [  0.500000035266553, -0.000000037457123, -0.000000032613660 ]
    mass: 28.085500
    reduced_to: 2
  - symbol: Si # 3
    coordinates: [  0.250000018069986,  0.749999981220490,  0.250000003327534 ]
    mass: 28.085500
    reduced_to: 1
  - symbol: Si # 4
    coordinates: [  0.499999999454743,  0.500000018872152,  0.499999967587946 ]
    mass: 28.085500
    reduced_to: 2
  - symbol: Si # 5
    coordinates: [  0.749999968699873,  0.250000002463100,  0.249999969406240 ]
    mass: 28.085500
    reduced_to: 1
  - symbol: Si # 6
    coordinates: [  0.000000007333230, -0.000000010557114,  0.500000000068597 ]
    mass: 28.085500
    reduced_to: 2
  - symbol: Si # 7
    coordinates: [  0.749999942586287,  0.750000085615441,  0.750000035126380 ]
    mass: 28.085500
    reduced_to: 1
  - symbol: Si # 8
    coordinates: [  0.000000011590280,  0.499999980019810,  0.000000037647752 ]
    mass: 28.085500
    reduced_to: 2

supercell:
  lattice:
  - [     5.461088632636766,     0.000000139474413,     0.000000029094460 ] # a
  - [     0.000000139474410,     5.461088612459006,    -0.000000164835128 ] # b
  - [     0.000000029094453,    -0.000000164835119,     5.461088594445939 ] # c
  points:
  - symbol: Si # 1
    coordinates: [  0.250000010385336,  0.249999977197439,  0.750000014030887 ]
    mass: 28.085500
    reduced_to: 1
  - symbol: Si # 2
    coordinates: [  0.500000035266553,  0.999999962542877,  0.999999967386340 ]
    mass: 28.085500
    reduced_to: 2
  - symbol: Si # 3
    coordinates: [  0.250000018069986,  0.749999981220490,  0.250000003327534 ]
    mass: 28.085500
    reduced_to: 1
  - symbol: Si # 4
    coordinates: [  0.499999999454743,  0.500000018872152,  0.499999967587946 ]
    mass: 28.085500
    reduced_to: 2
  - symbol: Si # 5
    coordinates: [  0.749999968699873,  0.250000002463100,  0.249999969406240 ]
    mass: 28.085500
    reduced_to: 1
  - symbol: Si # 6
    coordinates: [  0.000000007333230,  0.999999989442886,  0.500000000068597 ]
    mass: 28.085500
    reduced_to: 2
  - symbol: Si # 7
    coordinates: [  0.749999942586287,  0.750000085615441,  0.750000035126380 ]
    mass: 28.085500
    reduced_to: 1
  - symbol: Si # 8
    coordinates: [  0.000000011590280,  0.499999980019810,  0.000000037647752 ]
    mass: 28.085500
    reduced_to: 2

displacements:
- atom:    1
  displacement:
    [   0.0100000000000000,  0.0000000002553967,  0.0000000000532759 ]
  forces:
  - [  -0.0991175621747971, -0.0000008335337043, -0.0000037252902985 ]
  - [   0.0290231704711914, -0.0098528563976288,  0.0098595023155212 ]
  - [  -0.0156221091747284, -0.0000018328428268, -0.0000023245811462 ]
  - [   0.0290298759937286,  0.0098565611988306, -0.0098519949242473 ]
  - [   0.0079278647899628, -0.0000003284076229,  0.0000008732313290 ]
  - [   0.0204156339168549,  0.0061188191175461,  0.0061203390359879 ]
  - [   0.0079287737607956, -0.0000064522027969, -0.0000029057264328 ]
  - [   0.0204142183065414, -0.0061131427064538, -0.0061197783797979 ]
