Automatically generated mesh
      29
Reciprocal lattice
    0.00000000000000    0.00000000000000    0.00000000000000             1
    0.12500000000000    0.00000000000000    0.00000000000000             8
    0.25000000000000    0.00000000000000    0.00000000000000             8
    0.37500000000000    0.00000000000000    0.00000000000000             8
    0.50000000000000    0.00000000000000    0.00000000000000             4
    0.12500000000000    0.12500000000000    0.00000000000000             6
    0.25000000000000    0.12500000000000    0.00000000000000            24
    0.37500000000000    0.12500000000000    0.00000000000000            24
    0.50000000000000    0.12500000000000    0.00000000000000            24
   -0.37500000000000    0.12500000000000    0.00000000000000            24
   -0.25000000000000    0.12500000000000    0.00000000000000            24
   -0.12500000000000    0.12500000000000    0.00000000000000            12
    0.25000000000000    0.25000000000000    0.00000000000000             6
    0.37500000000000    0.25000000000000    0.00000000000000            24
    0.50000000000000    0.25000000000000    0.00000000000000            24
   -0.37500000000000    0.25000000000000    0.00000000000000            24
   -0.25000000000000    0.25000000000000    0.00000000000000            12
    0.37500000000000    0.37500000000000    0.00000000000000             6
    0.50000000000000    0.37500000000000    0.00000000000000            24
   -0.37500000000000    0.37500000000000    0.00000000000000            12
    0.50000000000000    0.50000000000000    0.00000000000000             3
    0.37500000000000    0.25000000000000    0.12500000000000            24
    0.50000000000000    0.25000000000000    0.12500000000000            48
   -0.37500000000000    0.25000000000000    0.12500000000000            24
    0.50000000000000    0.37500000000000    0.12500000000000            24
   -0.37500000000000    0.37500000000000    0.12500000000000            48
   -0.25000000000000    0.37500000000000    0.12500000000000            24
   -0.37500000000000    0.50000000000000    0.12500000000000            12
   -0.25000000000000    0.50000000000000    0.25000000000000             6
Tetrahedra
        76    0.00032552083333
        24         1         2         2         6
        48         2         6         7        12
        48         2         3         7        12
        24         2         2         6        12
        48         3         7         8        11
        48         3         4         8        11
        48         3         7        11        12
        48         4         8         9        10
        48         4         5         9        10
        48         4         8        10        11
        48         5         9         9        10
        24         6         7         7        13
        24         6         7         7        12
        48         7        13        14        22
        48         7         8        14        22
        48         7         8        11        22
        24         7         7        13        22
        24         7         7        12        22
        48         7        11        12        22
        48         8        14        15        23
        48         8         9        15        23
        48         8         9        10        23
        48         8        14        22        23
        48         8        11        22        23
        48         8        10        11        23
        48         9        15        16        24
        48         9        10        16        24
        48         9         9        10        24
        48         9        15        23        24
        48         9        10        23        24
        48        10        16        17        23
        48        10        11        17        23
        48        10        16        23        24
        24        11        11        17        22
        24        11        11        12        22
        48        11        17        22        23
        24        13        14        14        18
        24        13        14        14        22
        48        14        18        19        25
        48        14        15        19        25
        48        14        15        23        25
        24        14        14        18        25
        24        14        14        22        25
        48        14        22        23        25
        48        15        19        20        26
        48        15        16        20        26
        48        15        16        24        26
        48        15        19        25        26
        48        15        23        25        26
        48        15        23        24        26
        24        16        16        20        27
        24        16        16        17        27
        48        16        17        23        27
        48        16        20        26        27
        48        16        24        26        27
        48        16        23        24        27
        24        17        23        23        27
        24        17        22        23        23
        24        18        19        19        21
        24        18        19        19        25
        48        19        19        21        28
        24        19        19        20        28
        48        19        20        26        28
        24        19        19        25        28
        48        19        25        26        28
        24        20        26        26        28
        24        20        26        26        27
        24        22        23        23        25
        48        23        25        26        27
        48        23        24        26        27
        24        23        23        25        27
        48        24        26        26        27
        24        25        26        26        28
        24        25        26        26        27
        48        26        26        28        29
        96        26        26        27        29
