 vasp.5.2.2 15Apr09 complex
 executed on             LinuxIFC date 2016.04.11  20:10:44
 running on   16 nodes
 distr:  one band on    4 nodes,    4 groups


--------------------------------------------------------------------------------------------------------


 INCAR:
 POTCAR:   PAW_PBE Si 05Jan2001
 POTCAR:   PAW_PBE Si 05Jan2001
   VRHFIN =Si: s2p2
   LEXCH  = PE
   EATOM  =   103.0669 eV,    7.5752 Ry

   TITEL  = PAW_PBE Si 05Jan2001
   LULTRA =        F    use ultrasoft PP ?
   IUNSCR =        1    unscreen: 0-lin 1-nonlin 2-no
   RPACOR =    1.500    partial core radius
   POMASS =   28.085; ZVAL   =    4.000    mass and valenz
   RCORE  =    1.900    outmost cutoff radius
   RWIGS  =    2.480; RWIGS  =    1.312    wigner-seitz radius (au A)
   ENMAX  =  245.345; ENMIN  =  184.009 eV
   ICORE  =        2    local potential
   LCOR   =        T    correct aug charges
   LPAW   =        T    paw PP
   EAUG   =  322.069
   DEXC   =    -.007
   RMAX   =    2.944    core radius for proj-oper
   RAUG   =    1.300    factor for augmentation sphere
   RDEP   =    1.993    radius for radial grids
   QCUT   =   -4.246; QGAM   =    8.493    optimization parameters

   Description
     l     E      TYP  RCUT    TYP  RCUT
     0   .000     23  1.900
     0   .000     23  1.900
     1   .000     23  1.900
     1   .000     23  1.900
     2   .000      7  1.900
  local pseudopotential read in
  partial core-charges read in
  atomic valenz-charges read in
  non local Contribution for L=           0  read in
    real space projection operators read in
  non local Contribution for L=           0  read in
    real space projection operators read in
  non local Contribution for L=           1  read in
    real space projection operators read in
  non local Contribution for L=           1  read in
    real space projection operators read in
    PAW grid and wavefunctions read in

   number of l-projection  operators is LMAX  =           4
   number of lm-projection operators is LMMAX =           8


 -----------------------------------------------------------------------------
|                                                                             |
|  ADVICE TO THIS USER RUNNING 'VASP/VAMP'   (HEAR YOUR MASTER'S VOICE ...):  |
|                                                                             |
|      You have a (more or less) 'small supercell' and for smaller cells      |
|      it is recommended  to use the reciprocal-space projection scheme!      |
|      The real space optimization is not  efficient for small cells and it   |
|      is also less accurate ...                                              |
|      Therefore set LREAL=.FALSE. in the  INCAR file                         |
|                                                                             |
 -----------------------------------------------------------------------------

 Optimization of the real space projectors (new method)

 maximal supplied QI-value         = 19.84
 optimisation between [QCUT,QGAM] = [ 11.51, 23.22] = [ 37.09,150.92] Ry
 Optimized for a Real-space Cutoff    1.21 Angstroem

   l    n(q)    QCUT    max X(q) W(low)/X(q) W(high)/X(q)  e(spline)
   0      8    11.508     8.708    0.18E-04    0.44E-05    0.47E-08
   0      8    11.508   106.241    0.70E-04    0.15E-03    0.51E-07
   1      8    11.508     5.901    0.63E-05    0.23E-04    0.21E-07
   1      8    11.508    73.241    0.15E-03    0.36E-04    0.79E-07
 PAW_PBE Si 05Jan2001                   :
 energy of atom  1       EATOM= -103.0669
 kinetic energy error for atom=    0.0005 (will be added to EATOM!!)


 POSCAR: Si2
  positions in direct lattice
  No initial velocities read in
 exchange correlation table for  LEXCH =        8
   RHO(1)=    0.500       N(1)  =     2000
   RHO(2)=  100.500       N(2)  =     4000

 VTST: version 2.03d, (02/18/09)

 CHAIN: initializing optimizer

 OPT: Using VASP Conjugate-Gradient optimizer
 CHAIN: Read ICHAIN            0



--------------------------------------------------------------------------------------------------------


 ion  position               nearest neighbor table
   1  0.875  0.875  0.875-   2 2.35   2 2.35   2 2.35   2 2.35
   2  0.125  0.125  0.125-   1 2.35   1 2.35   1 2.35   1 2.35

  LATTYP: Found a face centered cubic cell.
 ALAT       =     5.4304994693

  Lattice vectors:

 A1 = (   3.3254890000,   0.0000000000,   1.9199720000)
 A2 = (   1.1084960000,   3.1353010000,   1.9199720000)
 A3 = (   0.0000000000,   0.0000000000,   3.8399430000)
 Subroutine PRICEL returns:
 Original cell was already a primitive cell.


Analysis of symmetry for initial positions (statically):

 Routine SETGRP: Setting up the symmetry group for a
 face centered cubic supercell.


 Subroutine GETGRP returns: Found 48 space group operations
 (whereof 12 operations were pure point group operations)
 out of a pool of 48 trial point group operations.


The static configuration has the point symmetry D_3d.
 The point group associated with its full space group is O_h .

Analysis of symmetry for dynamics (positions and initial velocities):

 Subroutine DYNSYM returns: Found 48 space group operations
 (whereof 12 operations were pure point group operations)
 out of a pool of 48 trial space group operations
 (whereof 12 operations were pure point group operations)
 and found also     1 'primitive' translations


The dynamic configuration has the point symmetry D_3d.
 The point group associated with its full space group is O_h .

Analysis of magnetic symmetry:

 Subroutine MAGSYM returns: Found 48 space group operations
 (whereof 12 operations were pure point group operations)
 out of a pool of 48 trial space group operations
 (whereof 12 operations were pure point group operations)
 and found also     1 'primitive' translations


The magnetic configuration has the point symmetry D_3d.
 The point group associated with its full space group is O_h .


 KPOINTS: pymatgen generated KPOINTS with grid den

Automatic generation of k-mesh.

 Subroutine IBZKPT returns following result:
 ===========================================

 Found     29 irreducible k-points:

 Following reciprocal coordinates:
            Coordinates               Weight
  0.000000  0.000000  0.000000      1.000000
  0.125000  0.000000  0.000000      8.000000
  0.250000  0.000000  0.000000      8.000000
  0.375000  0.000000  0.000000      8.000000
  0.500000  0.000000  0.000000      4.000000
  0.125000  0.125000  0.000000      6.000000
  0.250000  0.125000  0.000000     24.000000
  0.375000  0.125000  0.000000     24.000000
  0.500000  0.125000  0.000000     24.000000
 -0.375000  0.125000  0.000000     24.000000
 -0.250000  0.125000  0.000000     24.000000
 -0.125000  0.125000  0.000000     12.000000
  0.250000  0.250000  0.000000      6.000000
  0.375000  0.250000  0.000000     24.000000
  0.500000  0.250000  0.000000     24.000000
 -0.375000  0.250000  0.000000     24.000000
 -0.250000  0.250000  0.000000     12.000000
  0.375000  0.375000  0.000000      6.000000
  0.500000  0.375000  0.000000     24.000000
 -0.375000  0.375000  0.000000     12.000000
  0.500000  0.500000  0.000000      3.000000
  0.375000  0.250000  0.125000     24.000000
  0.500000  0.250000  0.125000     48.000000
 -0.375000  0.250000  0.125000     24.000000
  0.500000  0.375000  0.125000     24.000000
 -0.375000  0.375000  0.125000     48.000000
 -0.250000  0.375000  0.125000     24.000000
 -0.375000  0.500000  0.125000     12.000000
 -0.250000  0.500000  0.250000      6.000000

 Following cartesian coordinates:
            Coordinates               Weight
  0.000000  0.000000  0.000000      1.000000
  0.037588 -0.013290  0.000000      8.000000
  0.075177 -0.026579  0.000000      8.000000
  0.112765 -0.039869  0.000000      8.000000
  0.150354 -0.053158  0.000000      4.000000
  0.037588  0.026579  0.000000      6.000000
  0.075177  0.013290  0.000000     24.000000
  0.112765  0.000000  0.000000     24.000000
  0.150354 -0.013290  0.000000     24.000000
 -0.112765  0.079737  0.000000     24.000000
 -0.075177  0.066448  0.000000     24.000000
 -0.037588  0.053158  0.000000     12.000000
  0.075177  0.053158  0.000000      6.000000
  0.112765  0.039869  0.000000     24.000000
  0.150354  0.026579  0.000000     24.000000
 -0.112765  0.119606  0.000000     24.000000
 -0.075177  0.106316  0.000000     12.000000
  0.112765  0.079737  0.000000      6.000000
  0.150354  0.066448  0.000000     24.000000
 -0.112765  0.159474  0.000000     12.000000
  0.150354  0.106316  0.000000      3.000000
  0.093971  0.026579  0.032553     24.000000
  0.131560  0.013290  0.032553     48.000000
 -0.131560  0.106316  0.032553     24.000000
  0.131560  0.053158  0.032553     24.000000
 -0.131560  0.146185  0.032553     48.000000
 -0.093971  0.132895  0.032553     24.000000
 -0.131560  0.186053  0.032553     12.000000
 -0.112765  0.159474  0.065105      6.000000

 TETIRR: Found     76 inequivalent tetrahedra from     3072


--------------------------------------------------------------------------------------------------------




 Dimension of arrays:
   k-points           NKPTS =     29   k-points in BZ     NKDIM =     29   number of bands    NBANDS=     12
   number of dos      NEDOS =    301   number of ions     NIONS =      2
   non local maximal  LDIM  =      4   non local SUM 2l+1 LMDIM =      8
   total plane-waves  NPLWV =  27000
   max r-space proj   IRMAX =   5064   max aug-charges    IRDMAX=  22745
   dimension x,y,z NGX =    30 NGY =   30 NGZ =   30
   dimension x,y,z NGXF=    60 NGYF=   60 NGZF=   60
   support grid    NGXF=    60 NGYF=   60 NGZF=   60
   ions per type =               2
 NGX,Y,Z   is equivalent  to a cutoff of  12.99, 12.99, 12.99 a.u.
 NGXF,Y,Z  is equivalent  to a cutoff of  25.98, 25.98, 25.98 a.u.


 I would recommend the setting:
   dimension x,y,z NGX =    29 NGY =   29 NGZ =   29
 SYSTEM =  unknown system
 POSCAR =  Si2

 Startparameter for this run:
   NWRITE =      2    write-flag & timer
   PREC   = accura    medium, high low
   ISTART =      0    job   : 0-new  1-cont  2-samecut
   ICHARG =      1    charge: 1-file 2-atom 10-const
   ISPIN  =      2    spin polarized calculation?
   LNONCOLLINEAR =      F non collinear calculations
   LSORBIT =      F    spin-orbit coupling
   INIWAV =      1    electr: 0-lowe 1-rand  2-diag
   LASPH  =      F    aspherical Exc in radial PAW
   METAGGA=      F    non-selfconsistent MetaGGA calc.

 Electronic Relaxation 1
   ENCUT  =  520.0 eV  38.22 Ry    6.18 a.u.   7.14  7.14  7.14*2*pi/ulx,y,z
   ENINI  =  520.0     initial cutoff
   ENAUG  =  322.1 eV  augmentation charge cutoff
   NELM   =    100;   NELMIN=  2; NELMDL= -5     # of ELM steps
   EDIFF  = 0.1E-03   stopping-criterion for ELM
   LREAL  =      T    real-space projection
   LCOMPAT=      F    compatible to vasp.4.4
   LREAL_COMPAT= F    compatible to vasp.4.5.1-3
   GGA_COMPAT  = T    GGA compatible to vasp.4.4-vasp.4.6
   LMAXPAW     = -100 max onsite density
   LMAXMIX     =    2 max onsite mixed and CHGCAR
   VOSKOWN=      0    Vosko Wilk Nusair interpolation
   ROPT   =   -0.00025
 Ionic relaxation
   EDIFFG = 0.1E-02   stopping-criterion for IOM
   NSW    =     99    number of steps for IOM
   NBLOCK =      1;   KBLOCK =     99    inner block; outer block
   IBRION =      2    ionic relax: 0-MD 1-quasi-New 2-CG
   NFREE  =      1    steps in history (QN), initial steepest desc. (CG)
   ISIF   =      3    stress and relaxation
   IWAVPR =     11    prediction:  0-non 1-charg 2-wave 3-comb
   ISYM   =      2    0-nonsym 1-usesym 2-fastsym
   LCORR  =      T    Harris-Foulkes like correction to forces

   POTIM  = 0.5000    time-step for ionic-motion
   TEIN   =    0.0    initial temperature
   TEBEG  =    0.0;   TEEND  =   0.0 temperature during run
   SMASS  =  -3.00    Nose mass-parameter (am)
   estimated Nose-frequenzy (Omega)   =  0.10E-29 period in steps =****** mass=  -0.337E-27a.u.
   NPACO  =    256;   APACO  = 16.0  distance and # of slots for P.C.
   PSTRESS=    0.0 pullay stress

  Mass of Ions in am
   POMASS =  28.09
  Ionic Valenz
   ZVAL   =   4.00
  Atomic Wigner-Seitz radii
   RWIGS  =  -1.00
   NELECT =       8.0000    total number of electrons
   NUPDOWN=      -1.0000    fix difference up-down

 DOS related values:
   EMIN   =  10.00;   EMAX   =-10.00  energy-range for DOS
   EFERMI =   0.00
   ISMEAR =    -5;   SIGMA  =   0.05  broadening in eV -4-tet -1-fermi 0-gaus

 Electronic relaxation 2 (details)
   IALGO  =     68    algorithm
   LDIAG  =      T    sub-space diagonalisation
   IMIX   =      4    mixing-type and parameters
     AMIX     =   0.40;   BMIX     =  1.00
     AMIX_MAG =   1.60;   BMIX_MAG =  1.00
     AMIN     =   0.10
     WC   =   100.;   INIMIX=   1;  MIXPRE=   1

 Intra band minimization:
   WEIMIN = 0.0010     energy-eigenvalue tresh-hold
   EBREAK =  0.28E-05  absolut break condition
   DEPER  =   0.30     relativ break condition

   TIME   =   0.40     timestep for ELM

  volume/ion in A,a.u.               =      20.02       135.09
  Fermi-wavevector in a.u.,A,eV,Ry     =   0.957088  1.808633 12.463161  0.916017
  Thomas-Fermi vector in A             =   2.086074

 Write flags
   LWAVE  =      F    write WAVECAR
   LCHARG =      T    write CHGCAR
   LVTOT  =      F    write LOCPOT, local potential
   LELF   =      F    write electronic localiz. function (ELF)
   LORBIT =     11    0 simple, 1 ext, 2 COOP (PROOUT)


 Dipole corrections
   LMONO  =      F    monopole corrections only (constant potential shift)
   LDIPOL =      F    correct potential (dipole corrections)
   IDIPOL =      0    1-x, 2-y, 3-z, 4-all directions
   EPSILON=  1.0000000 bulk dielectric constant

 Exchange correlation treatment:
   GGA     =    --    GGA type
   LEXCH   =     8    internal setting for exchange type
   VOSKOWN=      0    Vosko Wilk Nusair interpolation
   LHFCALC =     F    Hartree Fock is set to
   LHFONE  =     F    Hartree Fock one center treatment
   AEXX    =    0.0000 exact exchange contribution

 Linear response parameters
   LEPSILON=     F    determine dielectric tensor
   LRPA    =     F    only Hartree local field effects (RPA)
   LNABLA  =     F    use nabla operator in PAW spheres
   LVEL    =     F    velocity operator in full k-point grid
   LINTERFAST=   F  fast interpolation
   KINTER  =     0    interpolate to denser k-point grid
   CSHIFT  =0.1000    complex shift for real part using Kramers Kronig
   OMEGAMAX=  -1.0    maximum frequency

 Orbital magnetization related:
   ORBITALMAG=     F  switch on orbital magnetization
   LCHIMAG   =     F  perturbation theory with respect to B field



--------------------------------------------------------------------------------------------------------


 conjugate gradient relaxation of ions
 charge density and potential will be updated during run
 spin polarized calculation
 RMM-DIIS sequential band-by-band and
  variant of blocked Davidson during initial phase
 perform sub-space diagonalisation
    before iterative eigenvector-optimisation
 modified Broyden-mixing scheme, WC =      100.0
 initial mixing is a Kerker type mixing with AMIX =  0.4000 and BMIX =      1.0000
 Hartree-type preconditioning will be used
 using additional bands            8
 real space projection scheme for non local part
 use partial core corrections
 calculate Harris-corrections to forces
   (improved forces if not selfconsistent)
 use gradient corrections
 use of overlap-Matrix (Vanderbilt PP)
 Fermi weights with tetrahedron method with Bloechl corrections


--------------------------------------------------------------------------------------------------------


  energy-cutoff  :      520.00
  volume of cell :       40.04
      direct lattice vectors                 reciprocal lattice vectors
     3.325489000  0.000000000  1.919972000     0.300707655 -0.106316182  0.000000000
     1.108496000  3.135301000  1.919972000     0.000000000  0.318948643  0.000000000
     0.000000000  0.000000000  3.839943000    -0.150353867 -0.106316258  0.260420532

  length of vectors
     3.839943954  3.839943779  3.839943000     0.318948624  0.318948643  0.318948719



 k-points in units of 2pi/SCALE and weight: pymatgen generated KPOINTS with grid den
   0.00000000  0.00000000  0.00000000       0.002
   0.03758846 -0.01328952  0.00000000       0.016
   0.07517691 -0.02657905  0.00000000       0.016
   0.11276537 -0.03986857  0.00000000       0.016
   0.15035383 -0.05315809  0.00000000       0.008
   0.03758846  0.02657906  0.00000000       0.012
   0.07517691  0.01328953  0.00000000       0.047
   0.11276537  0.00000001  0.00000000       0.047
   0.15035383 -0.01328951  0.00000000       0.047
  -0.11276537  0.07973715  0.00000000       0.047
  -0.07517691  0.06644763  0.00000000       0.047
  -0.03758846  0.05315810  0.00000000       0.023
   0.07517691  0.05315812  0.00000000       0.012
   0.11276537  0.03986859  0.00000000       0.047
   0.15035383  0.02657907  0.00000000       0.047
  -0.11276537  0.11960573  0.00000000       0.047
  -0.07517691  0.10631621  0.00000000       0.023
   0.11276537  0.07973717  0.00000000       0.012
   0.15035383  0.06644765  0.00000000       0.047
  -0.11276537  0.15947431  0.00000000       0.023
   0.15035383  0.10631623  0.00000000       0.006
   0.09397114  0.02657906  0.03255257       0.047
   0.13155959  0.01328954  0.03255257       0.094
  -0.13155960  0.10631620  0.03255257       0.047
   0.13155959  0.05315812  0.03255257       0.047
  -0.13155960  0.14618478  0.03255257       0.094
  -0.09397115  0.13289525  0.03255257       0.047
  -0.13155960  0.18605336  0.03255257       0.023
  -0.11276538  0.15947430  0.06510513       0.012

 k-points in reciprocal lattice and weights: pymatgen generated KPOINTS with grid den
   0.00000000  0.00000000  0.00000000       0.002
   0.12500000  0.00000000  0.00000000       0.016
   0.25000000  0.00000000  0.00000000       0.016
   0.37500000  0.00000000  0.00000000       0.016
   0.50000000  0.00000000  0.00000000       0.008
   0.12500000  0.12500000  0.00000000       0.012
   0.25000000  0.12500000  0.00000000       0.047
   0.37500000  0.12500000  0.00000000       0.047
   0.50000000  0.12500000  0.00000000       0.047
  -0.37500000  0.12500000  0.00000000       0.047
  -0.25000000  0.12500000  0.00000000       0.047
  -0.12500000  0.12500000  0.00000000       0.023
   0.25000000  0.25000000  0.00000000       0.012
   0.37500000  0.25000000  0.00000000       0.047
   0.50000000  0.25000000  0.00000000       0.047
  -0.37500000  0.25000000  0.00000000       0.047
  -0.25000000  0.25000000  0.00000000       0.023
   0.37500000  0.37500000  0.00000000       0.012
   0.50000000  0.37500000  0.00000000       0.047
  -0.37500000  0.37500000  0.00000000       0.023
   0.50000000  0.50000000  0.00000000       0.006
   0.37500000  0.25000000  0.12500000       0.047
   0.50000000  0.25000000  0.12500000       0.094
  -0.37500000  0.25000000  0.12500000       0.047
   0.50000000  0.37500000  0.12500000       0.047
  -0.37500000  0.37500000  0.12500000       0.094
  -0.25000000  0.37500000  0.12500000       0.047
  -0.37500000  0.50000000  0.12500000       0.023
  -0.25000000  0.50000000  0.25000000       0.012

 position of ions in fractional coordinates (direct lattice)
   0.87500000  0.87500000  0.87500000
   0.12500000  0.12500000  0.12500000

 position of ions in cartesian coordinates  (Angst):
   3.87973687  2.74338838  6.71990112
   0.55424812  0.39191263  0.95998587



--------------------------------------------------------------------------------------------------------


 k-point  1 :  0.00000.00000.0000  plane waves:    1067
 k-point  2 :  0.12500.00000.0000  plane waves:    1064
 k-point  3 :  0.25000.00000.0000  plane waves:    1077
 k-point  4 :  0.37500.00000.0000  plane waves:    1083
 k-point  5 :  0.50000.00000.0000  plane waves:    1068
 k-point  6 :  0.12500.12500.0000  plane waves:    1062
 k-point  7 :  0.25000.12500.0000  plane waves:    1069
 k-point  8 :  0.37500.12500.0000  plane waves:    1076
 k-point  9 :  0.50000.12500.0000  plane waves:    1086
 k-point 10 :  -.37500.12500.0000  plane waves:    1080
 k-point 11 :  -.25000.12500.0000  plane waves:    1076
 k-point 12 :  -.12500.12500.0000  plane waves:    1055
 k-point 13 :  0.25000.25000.0000  plane waves:    1062
 k-point 14 :  0.37500.25000.0000  plane waves:    1067
 k-point 15 :  0.50000.25000.0000  plane waves:    1082
 k-point 16 :  -.37500.25000.0000  plane waves:    1081
 k-point 17 :  -.25000.25000.0000  plane waves:    1081
 k-point 18 :  0.37500.37500.0000  plane waves:    1074
 k-point 19 :  0.50000.37500.0000  plane waves:    1080
 k-point 20 :  -.37500.37500.0000  plane waves:    1069
 k-point 21 :  0.50000.50000.0000  plane waves:    1090
 k-point 22 :  0.37500.25000.1250  plane waves:    1075
 k-point 23 :  0.50000.25000.1250  plane waves:    1075
 k-point 24 :  -.37500.25000.1250  plane waves:    1086
 k-point 25 :  0.50000.37500.1250  plane waves:    1077
 k-point 26 :  -.37500.37500.1250  plane waves:    1085
 k-point 27 :  -.25000.37500.1250  plane waves:    1088
 k-point 28 :  -.37500.50000.1250  plane waves:    1082
 k-point 29 :  -.25000.50000.2500  plane waves:    1084

 maximum and minimum number of plane-waves per node :     280    257

 maximum number of plane-waves:    1090
 maximal index in each direction:
   IXMAX=  7   IYMAX=  7   IZMAX=  7
   IXMIN= -7   IYMIN= -7   IZMIN= -7

 NGX is ok and might be reduce to  30
 NGY is ok and might be reduce to  30
 NGZ is ok and might be reduce to  30

 real space projection operators:
  total allocation   :    613.00 KBytes
  max/ min on nodes  :    174.88    132.38


 parallel 3D FFT for wavefunctions:
    minimum data exchange during FFTs selected (reduces bandwidth)
 parallel 3D FFT for charge:
    minimum data exchange during FFTs selected (reduces bandwidth)


 total amount of memory used by VASP on root node  36760. kBytes
========================================================================

   base      :    30000. kBytes
   nonlr-proj:      381. kBytes
   fftplans  :      700. kBytes
   grid      :     4872. kBytes
   one-center:        6. kBytes
   wavefun   :      801. kBytes

 Broyden mixing: mesh for mixing (old mesh)
   NGX = 15   NGY = 15   NGZ = 15
  (NGX  = 60   NGY  = 60   NGZ  = 60)
  gives a total of   3375 points

 initial charge density was supplied:
 charge density of overlapping atoms calculated
 number of electron    8.0000000 magnetization    1.2000000
 keeping initial charge density in first step


--------------------------------------------------------------------------------------------------------


 Maximum index for non-local projection operator         1373
 Maximum index for augmentation-charges         1568 (set IRDMAX)


--------------------------------------------------------------------------------------------------------


 First call to EWALD:  gamma=   0.518
 Maximum number of real-space cells 3x 3x 3
 Maximum number of reciprocal cells 3x 3x 3

    FEWALD:  cpu time    0.00: real time    0.00
   RESPFUN:  cpu time    0.00: real time    0.00


----------------------------------------- Iteration    1(   1)  ---------------------------------------


    POTLOK:  cpu time    0.03: real time    0.05
    SETDIJ:  cpu time    0.01: real time    0.01
     EDDAV:  cpu time    0.49: real time    0.58
 BZINTS: Fermi energy:  9.105437;  8.000000 electrons
         Band energy:  18.788251;  BLOECHL correction: -0.064312
       DOS:  cpu time    0.00: real time    0.01
    --------------------------------------------
      LOOP:  cpu time    0.53: real time    0.65

 eigenvalue-minimisations  :  1392
 total energy-change (2. order) : 0.5404512E+01  (-0.2968420E+03)
 number of electron    8.0000000 magnetization    1.2000000
 augmentation part     8.0000000 magnetization    1.2000000

 Free energy of the ion-electron system (eV)
  ---------------------------------------------------
  alpha Z        PSCENC =         3.36321232
  Ewald energy   TEWEN  =      -228.54246794
  -1/2 Hartree   DENC   =       -11.00523080
  -exchange  EXHF       =         0.00000000
  -V(xc)+E(xc)   XCENC  =       -18.52318381
  PAW double counting   =        65.91709927      -30.72587073
  entropy T*S    EENTRO =         0.00000000
  eigenvalues    EBANDS =        18.78825103
  atomic energy  EATOM  =       206.13270273
  ---------------------------------------------------
  free energy    TOTEN  =         5.40451207 eV

  energy without entropy =        5.40451207  energy(sigma->0) =        5.40451207


--------------------------------------------------------------------------------------------------------




----------------------------------------- Iteration    1(   2)  ---------------------------------------


     EDDAV:  cpu time    0.56: real time    0.58
 BZINTS: Fermi energy:  6.015913;  8.000000 electrons
         Band energy:   3.041406;  BLOECHL correction: -0.000000
       DOS:  cpu time    0.00: real time    0.00
    --------------------------------------------
      LOOP:  cpu time    0.57: real time    0.58

 eigenvalue-minimisations  :  1816
 total energy-change (2. order) :-0.1574685E+02  (-0.1525612E+02)
 number of electron    8.0000000 magnetization    1.2000000
 augmentation part     8.0000000 magnetization    1.2000000

 Free energy of the ion-electron system (eV)
  ---------------------------------------------------
  alpha Z        PSCENC =         3.36321232
  Ewald energy   TEWEN  =      -228.54246794
  -1/2 Hartree   DENC   =       -11.00523080
  -exchange  EXHF       =         0.00000000
  -V(xc)+E(xc)   XCENC  =       -18.52318381
  PAW double counting   =        65.91709927      -30.72587073
  entropy T*S    EENTRO =         0.00000000
  eigenvalues    EBANDS =         3.04140554
  atomic energy  EATOM  =       206.13270273
  ---------------------------------------------------
  free energy    TOTEN  =       -10.34233341 eV

  energy without entropy =      -10.34233341  energy(sigma->0) =      -10.34233341


--------------------------------------------------------------------------------------------------------




----------------------------------------- Iteration    1(   3)  ---------------------------------------


     EDDAV:  cpu time    0.56: real time    0.56
 BZINTS: Fermi energy:  5.638446;  8.000000 electrons
         Band energy:   2.551864;  BLOECHL correction:  0.000000
       DOS:  cpu time    0.00: real time    0.00
    --------------------------------------------
      LOOP:  cpu time    0.56: real time    0.56

 eigenvalue-minimisations  :  1808
 total energy-change (2. order) :-0.4895418E+00  (-0.4884495E+00)
 number of electron    8.0000000 magnetization    1.2000000
 augmentation part     8.0000000 magnetization    1.2000000

 Free energy of the ion-electron system (eV)
  ---------------------------------------------------
  alpha Z        PSCENC =         3.36321232
  Ewald energy   TEWEN  =      -228.54246794
  -1/2 Hartree   DENC   =       -11.00523080
  -exchange  EXHF       =         0.00000000
  -V(xc)+E(xc)   XCENC  =       -18.52318381
  PAW double counting   =        65.91709927      -30.72587073
  entropy T*S    EENTRO =         0.00000000
  eigenvalues    EBANDS =         2.55186370
  atomic energy  EATOM  =       206.13270273
  ---------------------------------------------------
  free energy    TOTEN  =       -10.83187526 eV

  energy without entropy =      -10.83187526  energy(sigma->0) =      -10.83187526


--------------------------------------------------------------------------------------------------------




----------------------------------------- Iteration    1(   4)  ---------------------------------------


     EDDAV:  cpu time    0.52: real time    0.52
 BZINTS: Fermi energy:  5.664074;  8.000000 electrons
         Band energy:   2.548208;  BLOECHL correction:  0.000000
       DOS:  cpu time    0.00: real time    0.00
    --------------------------------------------
      LOOP:  cpu time    0.52: real time    0.52

 eigenvalue-minimisations  :  1656
 total energy-change (2. order) :-0.3655573E-02  (-0.3655077E-02)
 number of electron    8.0000000 magnetization    1.2000000
 augmentation part     8.0000000 magnetization    1.2000000

 Free energy of the ion-electron system (eV)
  ---------------------------------------------------
  alpha Z        PSCENC =         3.36321232
  Ewald energy   TEWEN  =      -228.54246794
  -1/2 Hartree   DENC   =       -11.00523080
  -exchange  EXHF       =         0.00000000
  -V(xc)+E(xc)   XCENC  =       -18.52318381
  PAW double counting   =        65.91709927      -30.72587073
  entropy T*S    EENTRO =         0.00000000
  eigenvalues    EBANDS =         2.54820812
  atomic energy  EATOM  =       206.13270273
  ---------------------------------------------------
  free energy    TOTEN  =       -10.83553083 eV

  energy without entropy =      -10.83553083  energy(sigma->0) =      -10.83553083


--------------------------------------------------------------------------------------------------------




----------------------------------------- Iteration    1(   5)  ---------------------------------------


     EDDAV:  cpu time    0.57: real time    0.58
 BZINTS: Fermi energy:  5.700081;  8.000000 electrons
         Band energy:   2.548171;  BLOECHL correction:  0.000000
       DOS:  cpu time    0.00: real time    0.00
    CHARGE:  cpu time    0.03: real time    0.04
    MIXING:  cpu time    0.00: real time    0.01
    --------------------------------------------
      LOOP:  cpu time    0.60: real time    0.67

 eigenvalue-minimisations  :  1792
 total energy-change (2. order) :-0.3751598E-04  (-0.3751543E-04)
 number of electron    8.0000000 magnetization   -0.3372302
 augmentation part    -0.4710716 magnetization   -0.3338098

 Broyden mixing:
  rms(total) = 0.37343E+00    rms(broyden)= 0.37343E+00
  rms(prec ) = 0.90220E+00
  weight for this iteration     100.00

 Free energy of the ion-electron system (eV)
  ---------------------------------------------------
  alpha Z        PSCENC =         3.36321232
  Ewald energy   TEWEN  =      -228.54246794
  -1/2 Hartree   DENC   =       -11.00523080
  -exchange  EXHF       =         0.00000000
  -V(xc)+E(xc)   XCENC  =       -18.52318381
  PAW double counting   =        65.91709927      -30.72587073
  entropy T*S    EENTRO =         0.00000000
  eigenvalues    EBANDS =         2.54817061
  atomic energy  EATOM  =       206.13270273
  ---------------------------------------------------
  free energy    TOTEN  =       -10.83556835 eV

  energy without entropy =      -10.83556835  energy(sigma->0) =      -10.83556835


--------------------------------------------------------------------------------------------------------




----------------------------------------- Iteration    1(   6)  ---------------------------------------


    POTLOK:  cpu time    0.02: real time    0.03
    SETDIJ:  cpu time    0.00: real time    0.00
    EDDIAG:  cpu time    0.10: real time    0.10
  RMM-DIIS:  cpu time    0.26: real time    0.27
    ORTHCH:  cpu time    0.00: real time    0.00
 BZINTS: Fermi energy:  5.666575;  8.000000 electrons
         Band energy:   3.951889;  BLOECHL correction:  0.000000
       DOS:  cpu time    0.00: real time    0.00
    CHARGE:  cpu time    0.02: real time    0.02
    MIXING:  cpu time    0.00: real time    0.00
    --------------------------------------------
      LOOP:  cpu time    0.42: real time    0.43

 eigenvalue-minimisations  :  1392
 total energy-change (2. order) :-0.4964068E-01  (-0.5691464E-02)
 number of electron    8.0000000 magnetization    0.4335061
 augmentation part    -0.4645699 magnetization    0.4333608

 Broyden mixing:
  rms(total) = 0.19004E+00    rms(broyden)= 0.19004E+00
  rms(prec ) = 0.51881E+00
  weight for this iteration     100.00

 eigenvalues of (default mixing * dielectric matrix)
  average eigenvalue GAMMA=   0.8555
  0.8555

 Free energy of the ion-electron system (eV)
  ---------------------------------------------------
  alpha Z        PSCENC =         3.36321232
  Ewald energy   TEWEN  =      -228.54246794
  -1/2 Hartree   DENC   =       -12.50854489
  -exchange  EXHF       =         0.00000000
  -V(xc)+E(xc)   XCENC  =       -18.35929270
  PAW double counting   =        69.94587174      -34.86857962
  entropy T*S    EENTRO =         0.00000000
  eigenvalues    EBANDS =         3.95188933
  atomic energy  EATOM  =       206.13270273
  ---------------------------------------------------
  free energy    TOTEN  =       -10.88520902 eV

  energy without entropy =      -10.88520902  energy(sigma->0) =      -10.88520902


--------------------------------------------------------------------------------------------------------




----------------------------------------- Iteration    1(   7)  ---------------------------------------


    POTLOK:  cpu time    0.02: real time    0.03
    SETDIJ:  cpu time    0.00: real time    0.00
    EDDIAG:  cpu time    0.09: real time    0.09
  RMM-DIIS:  cpu time    0.26: real time    0.27
    ORTHCH:  cpu time    0.00: real time    0.00
 BZINTS: Fermi energy:  5.862535;  8.000000 electrons
         Band energy:   5.569921;  BLOECHL correction:  0.000000
       DOS:  cpu time    0.00: real time    0.00
    CHARGE:  cpu time    0.02: real time    0.02
    MIXING:  cpu time    0.00: real time    0.00
    --------------------------------------------
      LOOP:  cpu time    0.42: real time    0.42

 eigenvalue-minimisations  :  1392
 total energy-change (2. order) : 0.6103799E-01  (-0.5487196E-02)
 number of electron    8.0000000 magnetization    0.0097021
 augmentation part    -0.4594561 magnetization    0.0103893

 Broyden mixing:
  rms(total) = 0.10270E+00    rms(broyden)= 0.10270E+00
  rms(prec ) = 0.16718E+00
  weight for this iteration     100.00

 eigenvalues of (default mixing * dielectric matrix)
  average eigenvalue GAMMA=   1.5046
  0.7636  2.2457

 Free energy of the ion-electron system (eV)
  ---------------------------------------------------
  alpha Z        PSCENC =         3.36321232
  Ewald energy   TEWEN  =      -228.54246794
  -1/2 Hartree   DENC   =       -14.25604303
  -exchange  EXHF       =         0.00000000
  -V(xc)+E(xc)   XCENC  =       -18.06988041
  PAW double counting   =        73.81596126      -38.83757654
  entropy T*S    EENTRO =         0.00000000
  eigenvalues    EBANDS =         5.56992058
  atomic energy  EATOM  =       206.13270273
  ---------------------------------------------------
  free energy    TOTEN  =       -10.82417103 eV

  energy without entropy =      -10.82417103  energy(sigma->0) =      -10.82417103


--------------------------------------------------------------------------------------------------------




----------------------------------------- Iteration    1(   8)  ---------------------------------------


    POTLOK:  cpu time    0.02: real time    0.03
    SETDIJ:  cpu time    0.00: real time    0.00
    EDDIAG:  cpu time    0.09: real time    0.09
  RMM-DIIS:  cpu time    0.26: real time    0.26
    ORTHCH:  cpu time    0.00: real time    0.00
 BZINTS: Fermi energy:  5.928114;  8.000000 electrons
         Band energy:   6.145746;  BLOECHL correction:  0.000000
       DOS:  cpu time    0.00: real time    0.00
    CHARGE:  cpu time    0.02: real time    0.02
    MIXING:  cpu time    0.00: real time    0.00
    --------------------------------------------
      LOOP:  cpu time    0.41: real time    0.42

 eigenvalue-minimisations  :  1392
 total energy-change (2. order) :-0.1799816E-01  (-0.1150099E-02)
 number of electron    8.0000000 magnetization   -0.0093872
 augmentation part    -0.4579343 magnetization   -0.0093016

 Broyden mixing:
  rms(total) = 0.17538E-01    rms(broyden)= 0.17538E-01
  rms(prec ) = 0.31668E-01
  weight for this iteration     100.00

 eigenvalues of (default mixing * dielectric matrix)
  average eigenvalue GAMMA=   1.2909
  2.4320  0.7863  0.6544

 Free energy of the ion-electron system (eV)
  ---------------------------------------------------
  alpha Z        PSCENC =         3.36321232
  Ewald energy   TEWEN  =      -228.54246794
  -1/2 Hartree   DENC   =       -14.91209745
  -exchange  EXHF       =         0.00000000
  -V(xc)+E(xc)   XCENC  =       -17.97375351
  PAW double counting   =        74.93718685      -39.99269821
  entropy T*S    EENTRO =         0.00000000
  eigenvalues    EBANDS =         6.14574602
  atomic energy  EATOM  =       206.13270273
  ---------------------------------------------------
  free energy    TOTEN  =       -10.84216919 eV

  energy without entropy =      -10.84216919  energy(sigma->0) =      -10.84216919


--------------------------------------------------------------------------------------------------------




----------------------------------------- Iteration    1(   9)  ---------------------------------------


    POTLOK:  cpu time    0.02: real time    0.02
    SETDIJ:  cpu time    0.00: real time    0.00
    EDDIAG:  cpu time    0.09: real time    0.09
  RMM-DIIS:  cpu time    0.25: real time    0.25
    ORTHCH:  cpu time    0.00: real time    0.00
 BZINTS: Fermi energy:  5.921226;  8.000000 electrons
         Band energy:   6.135813;  BLOECHL correction:  0.000000
       DOS:  cpu time    0.00: real time    0.00
    CHARGE:  cpu time    0.02: real time    0.02
    MIXING:  cpu time    0.00: real time    0.00
    --------------------------------------------
      LOOP:  cpu time    0.40: real time    0.40

 eigenvalue-minimisations  :  1281
 total energy-change (2. order) : 0.4164684E-03  (-0.4319007E-04)
 number of electron    8.0000000 magnetization   -0.0002149
 augmentation part    -0.4582302 magnetization   -0.0001055

 Broyden mixing:
  rms(total) = 0.97297E-02    rms(broyden)= 0.97297E-02
  rms(prec ) = 0.19019E-01
  weight for this iteration     100.00

 eigenvalues of (default mixing * dielectric matrix)
  average eigenvalue GAMMA=   1.4850
  2.4629  2.0562  0.7789  0.6418

 Free energy of the ion-electron system (eV)
  ---------------------------------------------------
  alpha Z        PSCENC =         3.36321232
  Ewald energy   TEWEN  =      -228.54246794
  -1/2 Hartree   DENC   =       -14.91294378
  -exchange  EXHF       =         0.00000000
  -V(xc)+E(xc)   XCENC  =       -17.96987829
  PAW double counting   =        74.68333846      -39.73152886
  entropy T*S    EENTRO =         0.00000000
  eigenvalues    EBANDS =         6.13581263
  atomic energy  EATOM  =       206.13270273
  ---------------------------------------------------
  free energy    TOTEN  =       -10.84175273 eV

  energy without entropy =      -10.84175273  energy(sigma->0) =      -10.84175273


--------------------------------------------------------------------------------------------------------




----------------------------------------- Iteration    1(  10)  ---------------------------------------


    POTLOK:  cpu time    0.02: real time    0.02
    SETDIJ:  cpu time    0.00: real time    0.00
    EDDIAG:  cpu time    0.09: real time    0.09
  RMM-DIIS:  cpu time    0.26: real time    0.26
    ORTHCH:  cpu time    0.00: real time    0.00
 BZINTS: Fermi energy:  5.921632;  8.000000 electrons
         Band energy:   6.119617;  BLOECHL correction:  0.000000
       DOS:  cpu time    0.00: real time    0.00
    --------------------------------------------
      LOOP:  cpu time    0.39: real time    0.39

 eigenvalue-minimisations  :  1297
 total energy-change (2. order) : 0.5529872E-04  (-0.4064852E-04)
 number of electron    8.0000000 magnetization   -0.0002149
 augmentation part    -0.4582302 magnetization   -0.0001055

 Free energy of the ion-electron system (eV)
  ---------------------------------------------------
  alpha Z        PSCENC =         3.36321232
  Ewald energy   TEWEN  =      -228.54246794
  -1/2 Hartree   DENC   =       -14.91397317
  -exchange  EXHF       =         0.00000000
  -V(xc)+E(xc)   XCENC  =       -17.96426733
  PAW double counting   =        74.29195795      -39.32847901
  entropy T*S    EENTRO =         0.00000000
  eigenvalues    EBANDS =         6.11961702
  atomic energy  EATOM  =       206.13270273
  ---------------------------------------------------
  free energy    TOTEN  =       -10.84169743 eV

  energy without entropy =      -10.84169743  energy(sigma->0) =      -10.84169743


--------------------------------------------------------------------------------------------------------




 average (electrostatic) potential at core
  the test charge radii are     0.9892
  (the norm of the test charge is              1.0000)
       1 -83.2514       2 -83.2514



 E-fermi :   5.9216     XC(G=0):  -9.4119     alpha+bet :-11.9812
   add alpha+bet to get absolut eigen values

 spin component 1

 k-point   1 :       0.0000    0.0000    0.0000
  band No.  band energies     occupation
      1      -6.1335      1.00000
      2       5.8230      1.00000
      3       5.8230      1.00000
      4       5.8230      1.00000
      5       8.3936      0.00000
      6       8.3936      0.00000
      7       8.3936      0.00000
      8       9.1990      0.00000
      9      13.5481      0.00000
     10      13.5481      0.00000
     11      13.7784      0.00000
     12      17.0815      0.00000

 k-point   2 :       0.1250    0.0000    0.0000
  band No.  band energies     occupation
      1      -5.9293      1.00000
      2       4.2273      1.00000
      3       5.5350      1.00000
      4       5.5350      1.00000
      5       8.3316      0.00000
      6       8.8172      0.00000
      7       8.8172      0.00000
      8      10.5419      0.00000
      9      13.0667      0.00000
     10      13.0667      0.00000
     11      14.5661      0.00000
     12      16.5198      0.00000

 k-point   3 :       0.2500    0.0000    0.0000
  band No.  band energies     occupation
      1      -5.3337      1.00000
      2       1.9004      1.00000
      3       5.0654      1.00000
      4       5.0654      1.00000
      5       7.8575      0.00000
      6       9.3348      0.00000
      7       9.3348      0.00000
      8      12.7478      0.00000
      9      13.0233      0.00000
     10      13.0233      0.00000
     11      14.8192      0.00000
     12      17.6668      0.00000

 k-point   4 :       0.3750    0.0000    0.0000
  band No.  band energies     occupation
      1      -4.4400      1.00000
      2      -0.1190      1.00000
      3       4.7389      1.00000
      4       4.7390      1.00000
      5       7.4936      0.00000
      6       9.2797      0.00000
      7       9.2797      0.00000
      8      13.7077      0.00000
      9      14.4095      0.00000
     10      14.4095      0.00000
     11      15.5151      0.00000
     12      19.5863      0.00000

 k-point   5 :       0.5000    0.0000    0.0000
  band No.  band energies     occupation
      1      -3.8023      1.00000
      2      -1.1412      1.00000
      3       4.6273      1.00000
      4       4.6273      1.00000
      5       7.3656      0.00000
      6       9.1685      0.00000
      7       9.1685      0.00000
      8      13.5521      0.00000
      9      16.3763      0.00000
     10      16.3764      0.00000
     11      17.1715      0.00000
     12      17.1770      0.00000

 k-point   6 :       0.1250    0.1250    0.0000
  band No.  band energies     occupation
      1      -5.8605      1.00000
      2       4.4917      1.00000
      3       5.0186      1.00000
      4       5.0186      1.00000
      5       7.8407      0.00000
      6       9.5319      0.00000
      7       9.5319      0.00000
      8      10.2291      0.00000
      9      12.3352      0.00000
     10      13.8507      0.00000
     11      14.8666      0.00000
     12      17.5542      0.00000

 k-point   7 :       0.2500    0.1250    0.0000
  band No.  band energies     occupation
      1      -5.3918      1.00000
      2       2.6029      1.00000
      3       4.5077      1.00000
      4       4.5835      1.00000
      5       7.9756      0.00000
      6       9.5384      0.00000
      7      10.2958      0.00000
      8      10.5770      0.00000
      9      13.3346      0.00000
     10      14.0172      0.00000
     11      15.8525      0.00000
     12      17.4177      0.00000

 k-point   8 :       0.3750    0.1250    0.0000
  band No.  band energies     occupation
      1      -4.5769      1.00000
      2       0.5431      1.00000
      3       3.9926      1.00000
      4       4.2400      1.00000
      5       8.0746      0.00000
      6       9.4705      0.00000
      7      10.2922      0.00000
      8      11.2938      0.00000
      9      15.1481      0.00000
     10      15.1801      0.00000
     11      15.7818      0.00000
     12      19.2333      0.00000

 k-point   9 :       0.5000    0.1250    0.0000
  band No.  band energies     occupation
      1      -3.7156      1.00000
      2      -0.9199      1.00000
      3       3.5473      1.00000
      4       4.2644      1.00000
      5       8.0217      0.00000
      6       9.3421      0.00000
      7       9.9286      0.00000
      8      13.1968      0.00000
      9      14.8213      0.00000
     10      16.3097      0.00000
     11      17.3690      0.00000
     12      17.4817      0.00000

 k-point  10 :      -0.3750    0.1250    0.0000
  band No.  band energies     occupation
      1      -3.9601      1.00000
      2      -0.5494      1.00000
      3       3.3657      1.00000
      4       4.5605      1.00000
      5       8.1888      0.00000
      6       9.4498      0.00000
      7       9.6972      0.00000
      8      13.7434      0.00000
      9      13.9233      0.00000
     10      15.0374      0.00000
     11      17.0163      0.00000
     12      18.2768      0.00000

 k-point  11 :      -0.2500    0.1250    0.0000
  band No.  band energies     occupation
      1      -4.8832      1.00000
      2       1.2021      1.00000
      3       3.5165      1.00000
      4       5.0512      1.00000
      5       8.5482      0.00000
      6       9.5069      0.00000
      7       9.6822      0.00000
      8      12.1264      0.00000
      9      12.3003      0.00000
     10      15.6712      0.00000
     11      15.9047      0.00000
     12      18.2604      0.00000

 k-point  12 :      -0.1250    0.1250    0.0000
  band No.  band energies     occupation
      1      -5.5931      1.00000
      2       3.1428      1.00000
      3       4.1982      1.00000
      4       5.5312      1.00000
      5       8.8735      0.00000
      6       8.9543      0.00000
      7       9.1847      0.00000
      8      11.3789      0.00000
      9      12.1701      0.00000
     10      13.8607      0.00000
     11      15.5848      0.00000
     12      17.0091      0.00000

 k-point  13 :       0.2500    0.2500    0.0000
  band No.  band energies     occupation
      1      -5.0514      1.00000
      2       2.3098      1.00000
      3       3.9372      1.00000
      4       3.9372      1.00000
      5       6.9578      0.00000
      6       8.9604      0.00000
      7      11.5841      0.00000
      8      11.5841      0.00000
      9      13.8946      0.00000
     10      14.7569      0.00000
     11      17.2592      0.00000
     12      18.8439      0.00000

 k-point  14 :       0.3750    0.2500    0.0000
  band No.  band energies     occupation
      1      -4.3414      1.00000
      2       0.8867      1.00000
      3       3.1571      1.00000
      4       3.6194      1.00000
      5       7.1778      0.00000
      6       8.7213      0.00000
      7      11.8251      0.00000
      8      12.0960      0.00000
      9      15.8069      0.00000
     10      16.0141      0.00000
     11      17.4908      0.00000
     12      19.0417      0.00000

 k-point  15 :       0.5000    0.2500    0.0000
  band No.  band energies     occupation
      1      -3.4155      1.00000
      2      -0.5548      1.00000
      3       2.2939      1.00000
      4       3.6226      1.00000
      5       7.3470      0.00000
      6      10.2732      0.00000
      7      11.5735      0.00000
      8      11.7467      0.00000
      9      16.0396      0.00000
     10      16.3649      0.00000
     11      17.9868      0.00000
     12      18.5562      0.00000

 k-point  16 :      -0.3750    0.2500    0.0000
  band No.  band energies     occupation
      1      -3.2112      1.00000
      2      -0.8131      1.00000
      3       1.8356      1.00000
      4       3.9406      1.00000
      5       7.6718      0.00000
      6      11.2887      0.00000
      7      11.3087      0.00000
      8      12.7875      0.00000
      9      13.8083      0.00000
     10      13.8470      0.00000
     11      18.4031      0.00000
     12      20.6894      0.00000

 k-point  17 :      -0.2500    0.2500    0.0000
  band No.  band energies     occupation
      1      -4.0897      1.00000
      2       0.3474      1.00000
      3       2.0757      1.00000
      4       4.4984      1.00000
      5       8.2782      0.00000
      6      10.6196      0.00000
      7      10.9552      0.00000
      8      11.9770      0.00000
      9      12.2723      0.00000
     10      15.4655      0.00000
     11      18.4459      0.00000
     12      19.0257      0.00000

 k-point  18 :       0.3750    0.3750    0.0000
  band No.  band energies     occupation
      1      -3.7389      1.00000
      2       0.0823      1.00000
      3       3.2214      1.00000
      4       3.2215      1.00000
      5       6.4419      0.00000
      6       7.3663      0.00000
      7      13.8680      0.00000
      8      13.8680      0.00000
      9      16.2610      0.00000
     10      16.5569      0.00000
     11      18.8431      0.00000
     12      18.8603      0.00000

 k-point  19 :       0.5000    0.3750    0.0000
  band No.  band energies     occupation
      1      -2.8416      1.00000
      2      -1.0026      1.00000
      3       2.3927      1.00000
      4       3.1454      1.00000
      5       6.7211      0.00000
      6       7.7935      0.00000
      7      14.0939      0.00000
      8      14.1821      0.00000
      9      16.5910      0.00000
     10      16.6340      0.00000
     11      18.1404      0.00000
     12      18.7114      0.00000

 k-point  20 :      -0.3750    0.3750    0.0000
  band No.  band energies     occupation
      1      -2.4030      1.00000
      2      -1.3991      1.00000
      3       1.5270      1.00000
      4       3.4027      1.00000
      5       7.0307      0.00000
      6       9.9539      0.00000
      7      13.2995      0.00000
      8      13.8372      0.00000
      9      14.0671      0.00000
     10      14.3333      0.00000
     11      20.5807      0.00000
     12      20.7193      0.00000

 k-point  21 :       0.5000    0.5000    0.0000
  band No.  band energies     occupation
      1      -1.9891      1.00000
      2      -1.9891      1.00000
      3       2.9761      1.00000
      4       2.9761      1.00000
      5       6.5362      0.00000
      6       6.5362      0.00000
      7      15.9434      0.00000
      8      15.9434      0.00000
      9      16.7983      0.00000
     10      16.7983      0.00000
     11      18.3516      0.00000
     12      18.3516      0.00000

 k-point  22 :       0.3750    0.2500    0.1250
  band No.  band energies     occupation
      1      -4.8040      1.00000
      2       1.5379      1.00000
      3       3.1147      1.00000
      4       4.3988      1.00000
      5       8.2748      0.00000
      6       9.7326      0.00000
      7      10.0193      0.00000
      8      11.3283      0.00000
      9      13.6177      0.00000
     10      16.0825      0.00000
     11      16.9147      0.00000
     12      17.9368      0.00000

 k-point  23 :       0.5000    0.2500    0.1250
  band No.  band energies     occupation
      1      -3.9157      1.00000
      2      -0.0136      1.00000
      3       2.5070      1.00000
      4       3.8978      1.00000
      5       8.7045      0.00000
      6       9.3814      0.00000
      7      10.8466      0.00000
      8      11.7626      0.00000
      9      14.8486      0.00000
     10      15.5604      0.00000
     11      17.8263      0.00000
     12      18.7670      0.00000

 k-point  24 :      -0.3750    0.2500    0.1250
  band No.  band energies     occupation
      1      -3.2635      1.00000
      2      -0.9584      1.00000
      3       2.3781      1.00000
      4       3.6684      1.00000
      5       8.8954      0.00000
      6       8.9580      0.00000
      7      11.7385      0.00000
      8      12.9422      0.00000
      9      13.2252      0.00000
     10      16.4087      0.00000
     11      17.5269      0.00000
     12      18.2314      0.00000

 k-point  25 :       0.5000    0.3750    0.1250
  band No.  band energies     occupation
      1      -3.5403      1.00000
      2      -0.1366      1.00000
      3       2.4661      1.00000
      4       3.0688      1.00000
      5       7.7737      0.00000
      6       8.4727      0.00000
      7      11.5816      0.00000
      8      13.8169      0.00000
      9      16.0055      0.00000
     10      16.0496      0.00000
     11      18.7145      0.00000
     12      19.1498      0.00000

 k-point  26 :      -0.3750    0.3750    0.1250
  band No.  band energies     occupation
      1      -2.6656      1.00000
      2      -1.1044      1.00000
      3       1.7682      1.00000
      4       2.8682      1.00000
      5       8.2148      0.00000
      6      10.1056      0.00000
      7      11.1055      0.00000
      8      13.2673      0.00000
      9      14.2299      0.00000
     10      16.9119      0.00000
     11      18.0562      0.00000
     12      20.1559      0.00000

 k-point  27 :      -0.2500    0.3750    0.1250
  band No.  band energies     occupation
      1      -3.0162      1.00000
      2      -0.7412      1.00000
      3       1.6014      1.00000
      4       3.2438      1.00000
      5       8.6948      0.00000
      6      10.3702      0.00000
      7      11.0422      0.00000
      8      12.8557      0.00000
      9      13.6990      0.00000
     10      15.0755      0.00000
     11      19.9244      0.00000
     12      20.1447      0.00000

 k-point  28 :      -0.3750    0.5000    0.1250
  band No.  band energies     occupation
      1      -1.9111      1.00000
      2      -1.9111      1.00000
      3       2.4118      1.00000
      4       2.4118      1.00000
      5       7.7968      0.00000
      6       7.7968      0.00000
      7      13.6742      0.00000
      8      13.6742      0.00000
      9      16.4028      0.00000
     10      16.4028      0.00000
     11      18.7091      0.00000
     12      18.7092      0.00000

 k-point  29 :      -0.2500    0.5000    0.2500
  band No.  band energies     occupation
      1      -1.8253      1.00000
      2      -1.8253      1.00000
      3       1.9759      1.00000
      4       1.9759      1.00000
      5      10.0923      0.00000
      6      10.0923      0.00000
      7      10.8334      0.00000
      8      10.8334      0.00000
      9      16.4067      0.00000
     10      16.4067      0.00000
     11      18.8692      0.00000
     12      18.8692      0.00000

 spin component 2

 k-point   1 :       0.0000    0.0000    0.0000
  band No.  band energies     occupation
      1      -6.1317      1.00000
      2       5.8286      1.00000
      3       5.8286      1.00000
      4       5.8286      1.00000
      5       8.3914      0.00000
      6       8.3914      0.00000
      7       8.3914      0.00000
      8       9.2013      0.00000
      9      13.5462      0.00000
     10      13.5462      0.00000
     11      13.7808      0.00000
     12      17.0761      0.00000

 k-point   2 :       0.1250    0.0000    0.0000
  band No.  band energies     occupation
      1      -5.9275      1.00000
      2       4.2309      1.00000
      3       5.5399      1.00000
      4       5.5399      1.00000
      5       8.3312      0.00000
      6       8.8158      0.00000
      7       8.8158      0.00000
      8      10.5447      0.00000
      9      13.0642      0.00000
     10      13.0642      0.00000
     11      14.5681      0.00000
     12      16.5161      0.00000

 k-point   3 :       0.2500    0.0000    0.0000
  band No.  band energies     occupation
      1      -5.3317      1.00000
      2       1.9029      1.00000
      3       5.0696      1.00000
      4       5.0696      1.00000
      5       7.8578      0.00000
      6       9.3333      0.00000
      7       9.3333      0.00000
      8      12.7505      0.00000
      9      13.0210      0.00000
     10      13.0210      0.00000
     11      14.8183      0.00000
     12      17.6679      0.00000

 k-point   4 :       0.3750    0.0000    0.0000
  band No.  band energies     occupation
      1      -4.4377      1.00000
      2      -0.1172      1.00000
      3       4.7429      1.00000
      4       4.7429      1.00000
      5       7.4942      0.00000
      6       9.2773      0.00000
      7       9.2773      0.00000
      8      13.7061      0.00000
      9      14.4081      0.00000
     10      14.4081      0.00000
     11      15.5186      0.00000
     12      19.6889      0.00000

 k-point   5 :       0.5000    0.0000    0.0000
  band No.  band energies     occupation
      1      -3.7995      1.00000
      2      -1.1399      1.00000
      3       4.6312      1.00000
      4       4.6312      1.00000
      5       7.3662      0.00000
      6       9.1658      0.00000
      7       9.1658      0.00000
      8      13.5501      0.00000
      9      16.3753      0.00000
     10      16.3756      0.00000
     11      17.1708      0.00000
     12      17.1821      0.00000

 k-point   6 :       0.1250    0.1250    0.0000
  band No.  band energies     occupation
      1      -5.8587      1.00000
      2       4.4965      1.00000
      3       5.0223      1.00000
      4       5.0223      1.00000
      5       7.8389      0.00000
      6       9.5317      0.00000
      7       9.5317      0.00000
      8      10.2310      0.00000
      9      12.3334      0.00000
     10      13.8489      0.00000
     11      14.8688      0.00000
     12      17.5488      0.00000

 k-point   7 :       0.2500    0.1250    0.0000
  band No.  band energies     occupation
      1      -5.3899      1.00000
      2       2.6062      1.00000
      3       4.5108      1.00000
      4       4.5870      1.00000
      5       7.9748      0.00000
      6       9.5384      0.00000
      7      10.2957      0.00000
      8      10.5757      0.00000
      9      13.3363      0.00000
     10      14.0152      0.00000
     11      15.8526      0.00000
     12      17.4169      0.00000

 k-point   8 :       0.3750    0.1250    0.0000
  band No.  band energies     occupation
      1      -4.5747      1.00000
      2       0.5455      1.00000
      3       3.9956      1.00000
      4       4.2431      1.00000
      5       8.0741      0.00000
      6       9.4701      0.00000
      7      10.2910      0.00000
      8      11.2929      0.00000
      9      15.1468      0.00000
     10      15.1786      0.00000
     11      15.7843      0.00000
     12      19.2420      0.00000

 k-point   9 :       0.5000    0.1250    0.0000
  band No.  band energies     occupation
      1      -3.7128      1.00000
      2      -0.9183      1.00000
      3       3.5500      1.00000
      4       4.2677      1.00000
      5       8.0212      0.00000
      6       9.3416      0.00000
      7       9.9267      0.00000
      8      13.1963      0.00000
      9      14.8202      0.00000
     10      16.3087      0.00000
     11      17.3730      0.00000
     12      17.4820      0.00000

 k-point  10 :      -0.3750    0.1250    0.0000
  band No.  band energies     occupation
      1      -3.9575      1.00000
      2      -0.5475      1.00000
      3       3.3681      1.00000
      4       4.5642      1.00000
      5       8.1886      0.00000
      6       9.4494      0.00000
      7       9.6948      0.00000
      8      13.7432      0.00000
      9      13.9221      0.00000
     10      15.0374      0.00000
     11      17.0156      0.00000
     12      18.2785      0.00000

 k-point  11 :      -0.2500    0.1250    0.0000
  band No.  band energies     occupation
      1      -4.8811      1.00000
      2       1.2048      1.00000
      3       3.5187      1.00000
      4       5.0556      1.00000
      5       8.5481      0.00000
      6       9.5047      0.00000
      7       9.6826      0.00000
      8      12.1266      0.00000
      9      12.2982      0.00000
     10      15.6708      0.00000
     11      15.9053      0.00000
     12      18.2610      0.00000

 k-point  12 :      -0.1250    0.1250    0.0000
  band No.  band energies     occupation
      1      -5.5912      1.00000
      2       3.1464      1.00000
      3       4.2005      1.00000
      4       5.5364      1.00000
      5       8.8727      0.00000
      6       8.9522      0.00000
      7       9.1862      0.00000
      8      11.3799      0.00000
      9      12.1673      0.00000
     10      13.8601      0.00000
     11      15.5864      0.00000
     12      17.0069      0.00000

 k-point  13 :       0.2500    0.2500    0.0000
  band No.  band energies     occupation
      1      -5.0494      1.00000
      2       2.3140      1.00000
      3       3.9398      1.00000
      4       3.9398      1.00000
      5       6.9561      0.00000
      6       8.9581      0.00000
      7      11.5849      0.00000
      8      11.5849      0.00000
      9      13.8972      0.00000
     10      14.7551      0.00000
     11      17.2618      0.00000
     12      18.8390      0.00000

 k-point  14 :       0.3750    0.2500    0.0000
  band No.  band energies     occupation
      1      -4.3392      1.00000
      2       0.8902      1.00000
      3       3.1589      1.00000
      4       3.6219      1.00000
      5       7.1764      0.00000
      6       8.7195      0.00000
      7      11.8263      0.00000
      8      12.0960      0.00000
      9      15.8057      0.00000
     10      16.0168      0.00000
     11      17.4910      0.00000
     12      19.0381      0.00000

 k-point  15 :       0.5000    0.2500    0.0000
  band No.  band energies     occupation
      1      -3.4128      1.00000
      2      -0.5521      1.00000
      3       2.2952      1.00000
      4       3.6251      1.00000
      5       7.3452      0.00000
      6      10.2730      0.00000
      7      11.5745      0.00000
      8      11.7456      0.00000
      9      16.0400      0.00000
     10      16.3642      0.00000
     11      17.9916      0.00000
     12      18.5429      0.00000

 k-point  16 :      -0.3750    0.2500    0.0000
  band No.  band energies     occupation
      1      -3.2084      1.00000
      2      -0.8107      1.00000
      3       1.8365      1.00000
      4       3.9436      1.00000
      5       7.6699      0.00000
      6      11.2910      0.00000
      7      11.3070      0.00000
      8      12.7872      0.00000
      9      13.8074      0.00000
     10      13.8475      0.00000
     11      18.4021      0.00000
     12      20.7285      0.00000

 k-point  17 :      -0.2500    0.2500    0.0000
  band No.  band energies     occupation
      1      -4.0873      1.00000
      2       0.3505      1.00000
      3       2.0765      1.00000
      4       4.5020      1.00000
      5       8.2765      0.00000
      6      10.6177      0.00000
      7      10.9582      0.00000
      8      11.9766      0.00000
      9      12.2707      0.00000
     10      15.4651      0.00000
     11      18.4537      0.00000
     12      19.1098      0.00000

 k-point  18 :       0.3750    0.3750    0.0000
  band No.  band energies     occupation
      1      -3.7365      1.00000
      2       0.0858      1.00000
      3       3.2236      1.00000
      4       3.2236      1.00000
      5       6.4402      0.00000
      6       7.3639      0.00000
      7      13.8689      0.00000
      8      13.8689      0.00000
      9      16.2593      0.00000
     10      16.5604      0.00000
     11      18.8425      0.00000
     12      18.8514      0.00000

 k-point  19 :       0.5000    0.3750    0.0000
  band No.  band energies     occupation
      1      -2.8390      1.00000
      2      -0.9993      1.00000
      3       2.3938      1.00000
      4       3.1475      1.00000
      5       6.7191      0.00000
      6       7.7923      0.00000
      7      14.0934      0.00000
      8      14.1833      0.00000
      9      16.5922      0.00000
     10      16.6339      0.00000
     11      18.1397      0.00000
     12      18.7149      0.00000

 k-point  20 :      -0.3750    0.3750    0.0000
  band No.  band energies     occupation
      1      -2.3999      1.00000
      2      -1.3961      1.00000
      3       1.5272      1.00000
      4       3.4051      1.00000
      5       7.0287      0.00000
      6       9.9538      0.00000
      7      13.2979      0.00000
      8      13.8398      0.00000
      9      14.0671      0.00000
     10      14.3331      0.00000
     11      20.6144      0.00000
     12      20.7216      0.00000

 k-point  21 :       0.5000    0.5000    0.0000
  band No.  band energies     occupation
      1      -1.9862      1.00000
      2      -1.9862      1.00000
      3       2.9781      1.00000
      4       2.9781      1.00000
      5       6.5341      0.00000
      6       6.5341      0.00000
      7      15.9429      0.00000
      8      15.9429      0.00000
      9      16.8003      0.00000
     10      16.8003      0.00000
     11      18.3523      0.00000
     12      18.4656      0.00000

 k-point  22 :       0.3750    0.2500    0.1250
  band No.  band energies     occupation
      1      -4.8019      1.00000
      2       1.5413      1.00000
      3       3.1163      1.00000
      4       4.4020      1.00000
      5       8.2742      0.00000
      6       9.7316      0.00000
      7      10.0183      0.00000
      8      11.3292      0.00000
      9      13.6170      0.00000
     10      16.0838      0.00000
     11      16.9150      0.00000
     12      17.9352      0.00000

 k-point  23 :       0.5000    0.2500    0.1250
  band No.  band energies     occupation
      1      -3.9133      1.00000
      2      -0.0109      1.00000
      3       2.5085      1.00000
      4       3.9004      1.00000
      5       8.7038      0.00000
      6       9.3808      0.00000
      7      10.8456      0.00000
      8      11.7631      0.00000
      9      14.8483      0.00000
     10      15.5602      0.00000
     11      17.8253      0.00000
     12      18.7688      0.00000

 k-point  24 :      -0.3750    0.2500    0.1250
  band No.  band energies     occupation
      1      -3.2606      1.00000
      2      -0.9563      1.00000
      3       2.3797      1.00000
      4       3.6707      1.00000
      5       8.8950      0.00000
      6       8.9568      0.00000
      7      11.7386      0.00000
      8      12.9427      0.00000
      9      13.2242      0.00000
     10      16.4075      0.00000
     11      17.5279      0.00000
     12      18.2314      0.00000

 k-point  25 :       0.5000    0.3750    0.1250
  band No.  band energies     occupation
      1      -3.5378      1.00000
      2      -0.1331      1.00000
      3       2.4673      1.00000
      4       3.0704      1.00000
      5       7.7729      0.00000
      6       8.4711      0.00000
      7      11.5817      0.00000
      8      13.8179      0.00000
      9      16.0056      0.00000
     10      16.0499      0.00000
     11      18.7153      0.00000
     12      19.1492      0.00000

 k-point  26 :      -0.3750    0.3750    0.1250
  band No.  band energies     occupation
      1      -2.6627      1.00000
      2      -1.1013      1.00000
      3       1.7687      1.00000
      4       2.8696      1.00000
      5       8.2138      0.00000
      6      10.1057      0.00000
      7      11.1049      0.00000
      8      13.2669      0.00000
      9      14.2310      0.00000
     10      16.9121      0.00000
     11      18.0570      0.00000
     12      20.1534      0.00000

 k-point  27 :      -0.2500    0.3750    0.1250
  band No.  band energies     occupation
      1      -3.0134      1.00000
      2      -0.7381      1.00000
      3       1.6018      1.00000
      4       3.2456      1.00000
      5       8.6939      0.00000
      6      10.3704      0.00000
      7      11.0414      0.00000
      8      12.8557      0.00000
      9      13.6998      0.00000
     10      15.0754      0.00000
     11      19.9275      0.00000
     12      20.2374      0.00000

 k-point  28 :      -0.3750    0.5000    0.1250
  band No.  band energies     occupation
      1      -1.9081      1.00000
      2      -1.9081      1.00000
      3       2.4129      1.00000
      4       2.4129      1.00000
      5       7.7957      0.00000
      6       7.7957      0.00000
      7      13.6741      0.00000
      8      13.6741      0.00000
      9      16.4039      0.00000
     10      16.4039      0.00000
     11      18.7100      0.00000
     12      18.7100      0.00000

 k-point  29 :      -0.2500    0.5000    0.2500
  band No.  band energies     occupation
      1      -1.8221      1.00000
      2      -1.8221      1.00000
      3       1.9765      1.00000
      4       1.9765      1.00000
      5      10.0929      0.00000
      6      10.0929      0.00000
      7      10.8320      0.00000
      8      10.8320      0.00000
      9      16.4078      0.00000
     10      16.4079      0.00000
     11      18.8698      0.00000
     12      18.8698      0.00000


--------------------------------------------------------------------------------------------------------


 soft charge-density along one line, spin component           1
         0         1         2         3         4         5         6         7         8         9
 total charge-density along one line

 soft charge-density along one line, spin component           2
         0         1         2         3         4         5         6         7         8         9
 total charge-density along one line

 pseudopotential strength for first ion, spin component:           1
 18.413  -0.001   0.000  -0.000   0.000  -0.000   0.000  -0.000
 -0.001   0.006  -0.000   0.000  -0.000   0.000  -0.000   0.000
  0.000  -0.000   4.178  -0.000   0.000  -0.005   0.000  -0.000
 -0.000   0.000  -0.000   4.178  -0.000   0.000  -0.005   0.000
  0.000  -0.000   0.000  -0.000   4.178  -0.000   0.000  -0.005
 -0.000   0.000  -0.005   0.000  -0.000   0.005  -0.000   0.000
  0.000  -0.000   0.000  -0.005   0.000  -0.000   0.005  -0.000
 -0.000   0.000  -0.000   0.000  -0.005   0.000  -0.000   0.005
 pseudopotential strength for first ion, spin component:           2
 18.415  -0.001   0.000  -0.000   0.000  -0.000   0.000  -0.000
 -0.001   0.006  -0.000   0.000  -0.000   0.000  -0.000   0.000
  0.000  -0.000   4.179  -0.000   0.000  -0.005   0.000  -0.000
 -0.000   0.000  -0.000   4.179  -0.000   0.000  -0.005   0.000
  0.000  -0.000   0.000  -0.000   4.179  -0.000   0.000  -0.005
 -0.000   0.000  -0.005   0.000  -0.000   0.005  -0.000   0.000
  0.000  -0.000   0.000  -0.005   0.000  -0.000   0.005  -0.000
 -0.000   0.000  -0.000   0.000  -0.005   0.000  -0.000   0.005
 total augmentation occupancy for first ion, spin component:           1
  1.490  -0.800   0.000   0.000   0.000   0.000   0.000   0.000
 -0.800   0.797   0.000   0.000   0.000   0.000  -0.000   0.000
 -0.000  -0.000   1.031   0.000  -0.000  -0.566  -0.000   0.000
 -0.000   0.000   0.000   1.031   0.000  -0.000  -0.566  -0.000
 -0.000   0.000  -0.000   0.000   1.031   0.000  -0.000  -0.566
  0.000   0.000  -0.566  -0.000   0.000   0.367   0.000  -0.000
  0.000   0.000  -0.000  -0.566  -0.000   0.000   0.367   0.000
  0.000  -0.000   0.000  -0.000  -0.566  -0.000   0.000   0.367
 total augmentation occupancy for first ion, spin component:           2
 -0.000  -0.004  -0.000  -0.000   0.000   0.000   0.000   0.000
 -0.004   0.005  -0.000   0.000   0.000   0.000  -0.000  -0.000
  0.000  -0.000  -0.000  -0.000   0.000  -0.001  -0.000   0.000
  0.000   0.000  -0.000  -0.000  -0.000  -0.000  -0.001  -0.000
  0.000   0.000   0.000  -0.000  -0.000   0.000  -0.000  -0.001
  0.000  -0.000  -0.001  -0.000   0.000   0.001   0.000  -0.000
 -0.000  -0.000  -0.000  -0.001  -0.000   0.000   0.001   0.000
 -0.000   0.000   0.000  -0.000  -0.001  -0.000   0.000   0.001


------------------------ aborting loop because EDIFF is reached ----------------------------------------





 total charge

# of ion     s       p       d       tot
----------------------------------------
  1        0.751   0.943   0.000   1.694
  2        0.751   0.943   0.000   1.694
------------------------------------------------
tot        1.501   1.886   0.000   3.388



 magnetization (x)

# of ion     s       p       d       tot
----------------------------------------
  1        0.000   0.000   0.000   0.000
  2        0.000   0.000   0.000   0.000
------------------------------------------------
tot        0.000   0.001   0.000   0.001



--------------------------------------------------------------------------------------------------------



  FREE ENERGIE OF THE ION-ELECTRON SYSTEM (eV)
  ---------------------------------------------------
  free  energy   TOTEN  =       -10.841697 eV

  energy  without entropy=      -10.841697  energy(sigma->0) =      -10.841697

    CHARGE:  cpu time    0.02: real time    0.02
    FORLOC:  cpu time    0.00: real time    0.00
    FORNL :  cpu time    0.16: real time    0.16
    STRESS:  cpu time    0.47: real time    0.47
    FORCOR:  cpu time    0.03: real time    0.03
    FORHAR:  cpu time    0.00: real time    0.00
    MIXING:  cpu time    0.00: real time    0.00

  FORCE on cell =-STRESS in cart. coord.  units (eV):
  Direction    XX          YY          ZZ          XY          YZ          ZX
  --------------------------------------------------------------------------------------
  Alpha Z     3.36321     3.36321     3.36321
  Ewald     -76.18087   -76.18087   -76.18084     0.00002    -0.00001    -0.00001
  Hartree     4.97864     4.97864     4.97864     0.00000    -0.00000    -0.00000
  E(xc)     -25.36686   -25.36686   -25.36686     0.00000     0.00000     0.00000
  Local     -29.22711   -29.22711   -29.22711    -0.00000     0.00001     0.00001
  n-local    74.13562    77.53565    81.80518    -0.92099    -0.71630    -0.01570
  augment   -11.64830   -11.64830   -11.64830    -0.00000    -0.00000    -0.00000
  Kinetic    53.61266    55.55161    61.08170     0.93189     1.11015    -0.56412
  Fock        0.00000     0.00000     0.00000     0.00000     0.00000     0.00000
  -------------------------------------------------------------------------------------
  Total       0.49287     0.49287     0.49287    -0.00000     0.00000     0.00000
  in kB      19.72342    19.72342    19.72341    -0.00000     0.00000     0.00000
  external pressure =       19.72 kB  Pullay stress =        0.00 kB


 VOLUME and BASIS-vectors are now :
 -----------------------------------------------------------------------------
  energy-cutoff  :      520.00
  volume of cell :       40.04
      direct lattice vectors                 reciprocal lattice vectors
     3.325489000  0.000000000  1.919972000     0.300707655 -0.106316182  0.000000000
     1.108496000  3.135301000  1.919972000     0.000000000  0.318948643  0.000000000
     0.000000000  0.000000000  3.839943000    -0.150353867 -0.106316258  0.260420532

  length of vectors
     3.839943954  3.839943779  3.839943000     0.318948624  0.318948643  0.318948719


 FORCES acting on ions
    electron-ion (+dipol)            ewald-force                    non-local-force                 convergence-correction
 -----------------------------------------------------------------------------------------------
   0.119E-04 0.480E-05 -.843E-05   -.205E-04 -.829E-05 0.145E-04   0.156E-16 0.763E-16 -.111E-15   0.453E-06 0.313E-06 -.159E-07
   -.119E-04 -.480E-05 0.843E-05   0.205E-04 0.829E-05 -.145E-04   -.520E-17 -.486E-16 -.694E-16   -.453E-06 -.313E-06 0.159E-07
 -----------------------------------------------------------------------------------------------
   0.181E-12 -.764E-13 -.281E-13   0.184E-15 0.687E-16 0.125E-15   0.104E-16 0.278E-16 -.180E-15   -.413E-14 -.246E-14 -.620E-14


 POSITION                                       TOTAL-FORCE (eV/Angst)
 -----------------------------------------------------------------------------------
      3.87974      2.74339      6.71990        -0.000000     -0.000000      0.000000
      0.55425      0.39191      0.95999         0.000000      0.000000     -0.000000
 -----------------------------------------------------------------------------------
    total drift:                                0.000000     -0.000000     -0.000000


--------------------------------------------------------------------------------------------------------


    POTLOK:  cpu time    0.03: real time    0.03


--------------------------------------------------------------------------------------------------------


  FORCES: max atom, RMS     0.000000    0.000000
  FORCE total and by dimension    0.000000    0.000000


--------------------------------------------------------------------------------------------------------


    WAVPRE:  cpu time    0.00: real time    0.00
    FEWALD:  cpu time    0.00: real time    0.00
    GENKIN:  cpu time    0.01: real time    0.01

 real space projection operators:
  total allocation   :    590.50 KBytes
  max/ min on nodes  :    167.00    127.12

    ORTHCH:  cpu time    0.05: real time    0.05
     LOOP+:  cpu time    6.06: real time    6.37
   RESPFUN:  cpu time    0.00: real time    0.00


----------------------------------------- Iteration    2(   1)  ---------------------------------------


    POTLOK:  cpu time    0.02: real time    0.02
    SETDIJ:  cpu time    0.00: real time    0.00
     EDDAV:  cpu time    0.49: real time    0.49
 BZINTS: Fermi energy:  5.439798;  8.000000 electrons
         Band energy:   3.551926;  BLOECHL correction:  0.000000
       DOS:  cpu time    0.00: real time    0.00
    CHARGE:  cpu time    0.02: real time    0.02
    MIXING:  cpu time    0.00: real time    0.00
    --------------------------------------------
      LOOP:  cpu time    0.54: real time    0.55

 eigenvalue-minimisations  :  1536
 total energy-change (2. order) :-0.9554887E-02  (-0.2378542E-01)
 number of electron    7.9999999 magnetization   -0.0001803
 augmentation part    -0.4606491 magnetization   -0.0001838

 Broyden mixing:
  rms(total) = 0.32761E-01    rms(broyden)= 0.32761E-01
  rms(prec ) = 0.11996E+00
  weight for this iteration     100.00

 Free energy of the ion-electron system (eV)
  ---------------------------------------------------
  alpha Z        PSCENC =         3.24605685
  Ewald energy   TEWEN  =      -225.85733089
  -1/2 Hartree   DENC   =       -14.75087895
  -exchange  EXHF       =         0.00000000
  -V(xc)+E(xc)   XCENC  =       -18.13657589
  PAW double counting   =        74.30414000      -39.34134747
  entropy T*S    EENTRO =         0.00000000
  eigenvalues    EBANDS =         3.55192599
  atomic energy  EATOM  =       206.13270273
  ---------------------------------------------------
  free energy    TOTEN  =       -10.85130761 eV

  energy without entropy =      -10.85130761  energy(sigma->0) =      -10.85130761


--------------------------------------------------------------------------------------------------------




----------------------------------------- Iteration    2(   2)  ---------------------------------------


    POTLOK:  cpu time    0.02: real time    0.02
    SETDIJ:  cpu time    0.00: real time    0.00
    EDDIAG:  cpu time    0.09: real time    0.09
  RMM-DIIS:  cpu time    0.26: real time    0.26
[...]
      4       4.0834      1.00000
      5       7.7774      0.00000
      6       9.1030      0.00000
      7       9.7077      0.00000
      8      12.9185      0.00000
      9      14.5576      0.00000
     10      16.0300      0.00000
     11      17.0150      0.00000
     12      17.1513      0.00000

 k-point  10 :      -0.3750    0.1250    0.0000
  band No.  band energies     occupation
      1      -4.0704      1.00000
      2      -0.6810      1.00000
      3       3.1946      1.00000
      4       4.3726      1.00000
      5       7.9267      0.00000
      6       9.2222      0.00000
      7       9.4782      0.00000
      8      13.4415      0.00000
      9      13.6725      0.00000
     10      14.7487      0.00000
     11      16.6904      0.00000
     12      17.8946      0.00000

 k-point  11 :      -0.2500    0.1250    0.0000
  band No.  band energies     occupation
      1      -4.9718      1.00000
      2       1.0340      1.00000
      3       3.3489      1.00000
      4       4.8536      1.00000
      5       8.2697      0.00000
      6       9.2756      0.00000
      7       9.4499      0.00000
      8      11.8251      0.00000
      9      12.0902      0.00000
     10      15.3591      0.00000
     11      15.5717      0.00000
     12      17.9161      0.00000

 k-point  12 :      -0.1250    0.1250    0.0000
  band No.  band energies     occupation
      1      -5.6678      1.00000
      2       2.9405      1.00000
      3       4.0262      1.00000
      4       5.3252      1.00000
      5       8.5823      0.00000
      6       8.7233      0.00000
      7       8.9452      0.00000
      8      11.0436      0.00000
      9      11.9701      0.00000
     10      13.5792      0.00000
     11      15.2700      0.00000
     12      16.7282      0.00000

 k-point  13 :       0.2500    0.2500    0.0000
  band No.  band energies     occupation
      1      -5.1359      1.00000
      2       2.0965      1.00000
      3       3.7667      1.00000
      4       3.7667      1.00000
      5       6.7664      0.00000
      6       8.7504      0.00000
      7      11.3033      0.00000
      8      11.3033      0.00000
      9      13.4810      0.00000
     10      14.5140      0.00000
     11      16.9154      0.00000
     12      18.5305      0.00000

 k-point  14 :       0.3750    0.2500    0.0000
  band No.  band energies     occupation
      1      -4.4395      1.00000
      2       0.6999      1.00000
      3       3.0009      1.00000
      4       3.4537      1.00000
      5       6.9859      0.00000
      6       8.5178      0.00000
      7      11.5222      0.00000
      8      11.8207      0.00000
      9      15.5370      0.00000
     10      15.5830      0.00000
     11      17.1610      0.00000
     12      18.6989      0.00000

 k-point  15 :       0.5000    0.2500    0.0000
  band No.  band energies     occupation
      1      -3.5349      1.00000
      2      -0.7080      1.00000
      3       2.1532      1.00000
      4       3.4556      1.00000
      5       7.1568      0.00000
      6      10.0464      0.00000
      7      11.2599      0.00000
      8      11.4908      0.00000
      9      15.6998      0.00000
     10      16.0738      0.00000
     11      17.6621      0.00000
     12      18.1341      0.00000

 k-point  16 :      -0.3750    0.2500    0.0000
  band No.  band energies     occupation
      1      -3.3378      1.00000
      2      -0.9578      1.00000
      3       1.7059      1.00000
      4       3.7668      1.00000
      5       7.4707      0.00000
      6      11.0156      0.00000
      7      11.0565      0.00000
      8      12.4973      0.00000
      9      13.5063      0.00000
     10      13.5615      0.00000
     11      18.0924      0.00000
     12      20.3005      0.00000

 k-point  17 :      -0.2500    0.2500    0.0000
  band No.  band energies     occupation
      1      -4.1946      1.00000
      2       0.1760      1.00000
      3       1.9467      1.00000
      4       4.3129      1.00000
      5       8.0522      0.00000
      6      10.3625      0.00000
      7      10.6977      0.00000
      8      11.6549      0.00000
      9      12.0681      0.00000
     10      15.1351      0.00000
     11      18.1078      0.00000
     12      18.6429      0.00000

 k-point  18 :       0.3750    0.3750    0.0000
  band No.  band energies     occupation
      1      -3.8477      1.00000
      2      -0.0969      1.00000
      3       3.0628      1.00000
      4       3.0628      1.00000
      5       6.2656      0.00000
      6       7.1910      0.00000
      7      13.5505      0.00000
      8      13.5505      0.00000
      9      15.9961      0.00000
     10      16.0946      0.00000
     11      18.4970      0.00000
     12      18.4973      0.00000

 k-point  19 :       0.5000    0.3750    0.0000
  band No.  band energies     occupation
      1      -2.9686      1.00000
      2      -1.1632      1.00000
      3       2.2575      1.00000
      4       2.9876      1.00000
      5       6.5461      0.00000
      6       7.6000      0.00000
      7      13.7876      0.00000
      8      13.8433      0.00000
      9      16.2314      0.00000
     10      16.3327      0.00000
     11      17.8291      0.00000
     12      18.2500      0.00000

 k-point  20 :      -0.3750    0.3750    0.0000
  band No.  band energies     occupation
      1      -2.5455      1.00000
      2      -1.5484      1.00000
      3       1.4155      1.00000
      4       3.2397      1.00000
      5       6.8492      0.00000
      6       9.7267      0.00000
      7      12.9940      0.00000
      8      13.5300      0.00000
      9      13.6957      0.00000
     10      14.0943      0.00000
     11      20.1141      0.00000
     12      20.3784      0.00000

 k-point  21 :       0.5000    0.5000    0.0000
  band No.  band energies     occupation
      1      -2.1306      1.00000
      2      -2.1306      1.00000
      3       2.8213      1.00000
      4       2.8213      1.00000
      5       6.3668      0.00000
      6       6.3668      0.00000
      7      15.5488      0.00000
      8      15.5488      0.00000
      9      16.5206      0.00000
     10      16.5206      0.00000
     11      18.0559      0.00000
     12      18.0561      0.00000

 k-point  22 :       0.3750    0.2500    0.1250
  band No.  band energies     occupation
      1      -4.8936      1.00000
      2       1.3469      1.00000
      3       2.9634      1.00000
      4       4.2150      1.00000
      5       8.0578      0.00000
      6       9.4409      0.00000
      7       9.8178      0.00000
      8      11.0549      0.00000
      9      13.3267      0.00000
     10      15.7185      0.00000
     11      16.5787      0.00000
     12      17.6469      0.00000

 k-point  23 :       0.5000    0.2500    0.1250
  band No.  band energies     occupation
      1      -4.0244      1.00000
      2      -0.1723      1.00000
      3       2.3595      1.00000
      4       3.7277      1.00000
      5       8.4790      0.00000
      6       9.1443      0.00000
      7      10.5921      0.00000
      8      11.4924      0.00000
      9      14.5445      0.00000
     10      15.2406      0.00000
     11      17.5166      0.00000
     12      18.3619      0.00000

 k-point  24 :      -0.3750    0.2500    0.1250
  band No.  band energies     occupation
      1      -3.3904      1.00000
      2      -1.0915      1.00000
      3       2.2281      1.00000
      4       3.5048      1.00000
      5       8.6380      0.00000
      6       8.7612      0.00000
      7      11.4608      0.00000
      8      12.6805      0.00000
      9      12.9210      0.00000
     10      16.1218      0.00000
     11      17.1666      0.00000
     12      17.8882      0.00000

 k-point  25 :       0.5000    0.3750    0.1250
  band No.  band energies     occupation
      1      -3.6544      1.00000
      2      -0.3121      1.00000
      3       2.3278      1.00000
      4       2.9196      1.00000
      5       7.5707      0.00000
      6       8.2737      0.00000
      7      11.2991      0.00000
      8      13.5019      0.00000
      9      15.6690      0.00000
     10      15.7236      0.00000
     11      18.2974      0.00000
     12      18.8013      0.00000

 k-point  26 :      -0.3750    0.3750    0.1250
  band No.  band energies     occupation
      1      -2.8011      1.00000
      2      -1.2604      1.00000
      3       1.6478      1.00000
      4       2.7237      1.00000
      5       8.0100      0.00000
      6       9.8837      0.00000
      7      10.8267      0.00000
      8      12.9657      0.00000
      9      13.9217      0.00000
     10      16.5737      0.00000
     11      17.6853      0.00000
     12      19.7999      0.00000

 k-point  27 :      -0.2500    0.3750    0.1250
  band No.  band energies     occupation
      1      -3.1447      1.00000
      2      -0.9027      1.00000
      3       1.4855      1.00000
      4       3.0902      1.00000
      5       8.4793      0.00000
      6      10.1290      0.00000
      7      10.7803      0.00000
      8      12.5772      0.00000
      9      13.3798      0.00000
     10      14.7603      0.00000
     11      19.5497      0.00000
     12      19.7539      0.00000

 k-point  28 :      -0.3750    0.5000    0.1250
  band No.  band energies     occupation
      1      -2.0569      1.00000
      2      -2.0569      1.00000
      3       2.2765      1.00000
      4       2.2765      1.00000
      5       7.6010      0.00000
      6       7.6010      0.00000
      7      13.3655      0.00000
      8      13.3655      0.00000
      9      16.0670      0.00000
     10      16.0670      0.00000
     11      18.3339      0.00000
     12      18.3339      0.00000

 k-point  29 :      -0.2500    0.5000    0.2500
  band No.  band energies     occupation
      1      -1.9761      1.00000
      2      -1.9761      1.00000
      3       1.8548      1.00000
      4       1.8548      1.00000
      5       9.8851      0.00000
      6       9.8851      0.00000
      7      10.5453      0.00000
      8      10.5453      0.00000
      9      16.0647      0.00000
     10      16.0647      0.00000
     11      18.4832      0.00000
     12      18.4832      0.00000


--------------------------------------------------------------------------------------------------------


 soft charge-density along one line, spin component           1
         0         1         2         3         4         5         6         7         8         9
 total charge-density along one line

 soft charge-density along one line, spin component           2
         0         1         2         3         4         5         6         7         8         9
 total charge-density along one line

 pseudopotential strength for first ion, spin component:           1
 18.436  -0.001   0.000  -0.000   0.000  -0.000   0.000  -0.000
 -0.001   0.006  -0.000   0.000  -0.000   0.000  -0.000   0.000
  0.000  -0.000   4.180  -0.000  -0.000  -0.004   0.000   0.000
 -0.000   0.000  -0.000   4.180  -0.000   0.000  -0.004   0.000
  0.000  -0.000  -0.000  -0.000   4.180   0.000   0.000  -0.004
 -0.000   0.000  -0.004   0.000   0.000   0.005  -0.000  -0.000
  0.000  -0.000   0.000  -0.004   0.000  -0.000   0.005  -0.000
 -0.000   0.000   0.000   0.000  -0.004  -0.000  -0.000   0.005
 pseudopotential strength for first ion, spin component:           2
 18.438  -0.001   0.000  -0.000   0.000  -0.000   0.000  -0.000
 -0.001   0.006  -0.000   0.000  -0.000   0.000  -0.000   0.000
  0.000  -0.000   4.181  -0.000   0.000  -0.004   0.000  -0.000
 -0.000   0.000  -0.000   4.181  -0.000   0.000  -0.004   0.000
  0.000  -0.000   0.000  -0.000   4.181  -0.000   0.000  -0.004
 -0.000   0.000  -0.004   0.000  -0.000   0.005  -0.000  -0.000
  0.000  -0.000   0.000  -0.004   0.000  -0.000   0.005  -0.000
 -0.000   0.000  -0.000   0.000  -0.004  -0.000  -0.000   0.005
 total augmentation occupancy for first ion, spin component:           1
  1.494  -0.762   0.000   0.000  -0.000  -0.000   0.000   0.000
 -0.762   0.748  -0.000  -0.000   0.000  -0.000   0.000   0.000
  0.000  -0.000   1.017   0.000  -0.000  -0.548  -0.000   0.000
  0.000   0.000   0.000   1.017   0.000  -0.000  -0.548  -0.000
 -0.000  -0.000  -0.000   0.000   1.017   0.000  -0.000  -0.548
  0.000   0.000  -0.548  -0.000   0.000   0.349   0.000  -0.000
 -0.000   0.000  -0.000  -0.548  -0.000   0.000   0.349   0.000
  0.000   0.000   0.000  -0.000  -0.548  -0.000   0.000   0.349
 total augmentation occupancy for first ion, spin component:           2
 -0.000  -0.000   0.000  -0.000   0.000  -0.000  -0.000   0.000
 -0.000   0.000  -0.000  -0.000   0.000  -0.000   0.000   0.000
  0.000  -0.000  -0.000  -0.000   0.000  -0.000  -0.000   0.000
 -0.000  -0.000  -0.000  -0.000  -0.000  -0.000  -0.000  -0.000
  0.000   0.000   0.000  -0.000  -0.000   0.000  -0.000  -0.000
  0.000   0.000  -0.000  -0.000   0.000   0.000   0.000  -0.000
 -0.000   0.000  -0.000  -0.000  -0.000   0.000   0.000   0.000
 -0.000   0.000   0.000  -0.000  -0.000  -0.000   0.000   0.000


------------------------ aborting loop because EDIFF is reached ----------------------------------------





 total charge

# of ion     s       p       d       tot
----------------------------------------
  1        0.750   0.928   0.000   1.679
  2        0.750   0.928   0.000   1.679
------------------------------------------------
tot        1.501   1.857   0.000   3.358



 magnetization (x)

# of ion     s       p       d       tot
----------------------------------------
  1        0.000   0.000   0.000   0.000
  2        0.000   0.000   0.000   0.000
------------------------------------------------
tot        0.000   0.000   0.000   0.000



--------------------------------------------------------------------------------------------------------



  FREE ENERGIE OF THE ION-ELECTRON SYSTEM (eV)
  ---------------------------------------------------
  free  energy   TOTEN  =       -10.846811 eV

  energy  without entropy=      -10.846811  energy(sigma->0) =      -10.846811

    CHARGE:  cpu time    0.02: real time    0.02
    FORLOC:  cpu time    0.00: real time    0.00
    FORNL :  cpu time    0.16: real time    0.16
    STRESS:  cpu time    0.46: real time    0.47
    FORCOR:  cpu time    0.02: real time    0.02
    FORHAR:  cpu time    0.00: real time    0.00
    MIXING:  cpu time    0.00: real time    0.00

  FORCE on cell =-STRESS in cart. coord.  units (eV):
  Direction    XX          YY          ZZ          XY          YZ          ZX
  --------------------------------------------------------------------------------------
  Alpha Z     3.29218     3.29218     3.29218
  Ewald     -75.64074   -75.64074   -75.64070     0.00002    -0.00001    -0.00001
  Hartree     5.06300     5.06300     5.06300     0.00000    -0.00000    -0.00000
  E(xc)     -25.24670   -25.24670   -25.24670    -0.00000     0.00000     0.00000
  Local     -29.52087   -29.52087   -29.52087    -0.00000     0.00001     0.00001
  n-local    73.79648    77.13576    81.35321    -0.94239    -0.70953    -0.01032
  augment   -11.64180   -11.64179   -11.64180    -0.00000    -0.00000    -0.00001
  Kinetic    53.01920    55.08287    60.66936     0.82681     1.03575    -0.53828
  Fock        0.00000     0.00000     0.00000     0.00000     0.00000     0.00000
  -------------------------------------------------------------------------------------
  Total      -0.00928    -0.00928    -0.00928     0.00000    -0.00000    -0.00000
  in kB      -0.36344    -0.36344    -0.36344     0.00000    -0.00000    -0.00000
  external pressure =       -0.36 kB  Pullay stress =        0.00 kB


 VOLUME and BASIS-vectors are now :
 -----------------------------------------------------------------------------
  energy-cutoff  :      520.00
  volume of cell :       40.90
      direct lattice vectors                 reciprocal lattice vectors
     3.349235533 -0.000000001  1.933682063     0.298575598 -0.105562386 -0.000000000
     1.116411507  3.157689442  1.933682063     0.000000000  0.316687255 -0.000000000
     0.000000004  0.000000003  3.867363111    -0.149287838 -0.105562462  0.258574117

  length of vectors
     3.867364086  3.867363907  3.867363111     0.316687235  0.316687255  0.316687331


 FORCES acting on ions
    electron-ion (+dipol)            ewald-force                    non-local-force                 convergence-correction
 -----------------------------------------------------------------------------------------------
   0.120E-04 0.484E-05 -.850E-05   -.205E-04 -.828E-05 0.145E-04   -.110E-15 0.668E-16 -.354E-15   0.451E-06 0.318E-06 0.350E-10
   -.120E-04 -.484E-05 0.850E-05   0.205E-04 0.828E-05 -.145E-04   0.152E-15 -.498E-16 0.118E-15   -.451E-06 -.318E-06 -.350E-10
 -----------------------------------------------------------------------------------------------
   0.174E-12 -.648E-13 -.336E-13   0.245E-16 -.776E-16 0.616E-16   0.419E-16 0.169E-16 -.236E-15   -.263E-14 -.307E-14 -.629E-14


 POSITION                                       TOTAL-FORCE (eV/Angst)
 -----------------------------------------------------------------------------------
      3.90744      2.76298      6.76789        -0.000000      0.000000      0.000000
      0.55821      0.39471      0.96684         0.000000     -0.000000     -0.000000
 -----------------------------------------------------------------------------------
    total drift:                                0.000000     -0.000000     -0.000000
 d Force = 0.0000000E+00[ 0.000E+00, 0.000E+00]  d Energy = 0.2321275E-02-0.232E-02
 d Force = 0.0000000E+00[ 0.000E+00, 0.000E+00]  d Ewald  = 0.1064741E+01-0.106E+01


--------------------------------------------------------------------------------------------------------


    POTLOK:  cpu time    0.03: real time    0.03


--------------------------------------------------------------------------------------------------------


  FORCES: max atom, RMS     0.000000    0.000000
  FORCE total and by dimension    0.000000    0.000000


--------------------------------------------------------------------------------------------------------



 reached required accuracy - stopping structural energy minimisation
     LOOP+:  cpu time    2.40: real time    2.44
    4ORBIT:  cpu time    0.00: real time    0.00



 total charge

# of ion     s       p       d       tot
----------------------------------------
  1        0.750   0.928   0.000   1.679
  2        0.750   0.928   0.000   1.679
------------------------------------------------
tot        1.501   1.857   0.000   3.358



 magnetization (x)

# of ion     s       p       d       tot
----------------------------------------
  1        0.000   0.000   0.000   0.000
  2        0.000   0.000   0.000   0.000
------------------------------------------------
tot        0.000   0.000   0.000   0.000

 BZINTS: Fermi energy:  5.633840;  8.000000 electrons
         Band energy:   4.915614;  BLOECHL correction:  0.000000

 total amount of memory used by VASP on root node  36760. kBytes
========================================================================

   base      :    30000. kBytes
   nonlr-proj:      381. kBytes
   fftplans  :      700. kBytes
   grid      :     4872. kBytes
   one-center:        6. kBytes
   wavefun   :      801. kBytes



 General timing and accounting informations for this job:
 ========================================================

                  Total CPU time used (sec):       11.845
                            User time (sec):       11.142
                          System time (sec):        0.703
                         Elapsed time (sec):       13.679

                   Maximum memory used (kb):       28640.
                   Average memory used (kb):           0.

                          Minor page faults:        69557
                          Major page faults:            7
                 Voluntary context switches:        19079
