 vasp.5.2.2 15Apr09 complex 
 executed on             LinuxIFC date 2016.04.11  20:11:04
 running on   16 nodes
 distr:  one band on    4 nodes,    4 groups


--------------------------------------------------------------------------------------------------------


 INCAR:
 POTCAR:   PAW_PBE Si 05Jan2001                   
 POTCAR:   PAW_PBE Si 05Jan2001                   
   VRHFIN =Si: s2p2                                                             
   LEXCH  = PE                                                                  
   EATOM  =   103.0669 eV,    7.5752 Ry                                         
                                                                                
   TITEL  = PAW_PBE Si 05Jan2001                                                
   LULTRA =        F    use ultrasoft PP ?                                      
   IUNSCR =        1    unscreen: 0-lin 1-nonlin 2-no                           
   RPACOR =    1.500    partial core radius                                     
   POMASS =   28.085; ZVAL   =    4.000    mass and valenz                      
   RCORE  =    1.900    outmost cutoff radius                                   
   RWIGS  =    2.480; RWIGS  =    1.312    wigner-seitz radius (au A)           
   ENMAX  =  245.345; ENMIN  =  184.009 eV                                      
   ICORE  =        2    local potential                                         
   LCOR   =        T    correct aug charges                                     
   LPAW   =        T    paw PP                                                  
   EAUG   =  322.069                                                            
   DEXC   =    -.007                                                            
   RMAX   =    2.944    core radius for proj-oper                               
   RAUG   =    1.300    factor for augmentation sphere                          
   RDEP   =    1.993    radius for radial grids                                 
   QCUT   =   -4.246; QGAM   =    8.493    optimization parameters              
                                                                                
   Description                                                                  
     l     E      TYP  RCUT    TYP  RCUT                                        
     0   .000     23  1.900                                                     
     0   .000     23  1.900                                                     
     1   .000     23  1.900                                                     
     1   .000     23  1.900                                                     
     2   .000      7  1.900                                                     
  local pseudopotential read in
  partial core-charges read in
  atomic valenz-charges read in
  non local Contribution for L=           0  read in
    real space projection operators read in
  non local Contribution for L=           0  read in
    real space projection operators read in
  non local Contribution for L=           1  read in
    real space projection operators read in
  non local Contribution for L=           1  read in
    real space projection operators read in
    PAW grid and wavefunctions read in
 
   number of l-projection  operators is LMAX  =           4
   number of lm-projection operators is LMMAX =           8
 

 ----------------------------------------------------------------------------- 
|                                                                             |
|  ADVICE TO THIS USER RUNNING 'VASP/VAMP'   (HEAR YOUR MASTER'S VOICE ...):  |
|                                                                             |
|      You have a (more or less) 'small supercell' and for smaller cells      |
|      it is recommended  to use the reciprocal-space projection scheme!      |
|      The real space optimization is not  efficient for small cells and it   |
|      is also less accurate ...                                              |
|      Therefore set LREAL=.FALSE. in the  INCAR file                         |
|                                                                             |
 ----------------------------------------------------------------------------- 

 Optimization of the real space projectors (new method)

 maximal supplied QI-value         = 19.84
 optimisation between [QCUT,QGAM] = [ 11.51, 23.22] = [ 37.09,150.92] Ry 
 Optimized for a Real-space Cutoff    1.21 Angstroem

   l    n(q)    QCUT    max X(q) W(low)/X(q) W(high)/X(q)  e(spline) 
   0      8    11.508     8.708    0.18E-04    0.44E-05    0.47E-08
   0      8    11.508   106.241    0.70E-04    0.15E-03    0.51E-07
   1      8    11.508     5.901    0.63E-05    0.23E-04    0.21E-07
   1      8    11.508    73.241    0.15E-03    0.36E-04    0.79E-07
 PAW_PBE Si 05Jan2001                   :
 energy of atom  1       EATOM= -103.0669
 kinetic energy error for atom=    0.0005 (will be added to EATOM!!)
 
 
 POSCAR: Si2                                     
  positions in direct lattice
  velocities in cartesian coordinates
 exchange correlation table for  LEXCH =        8
   RHO(1)=    0.500       N(1)  =     2000
   RHO(2)=  100.500       N(2)  =     4000

 VTST: version 2.03d, (02/18/09)

 CHAIN: initializing optimizer
 
 OPT: Using VASP Conjugate-Gradient optimizer
 CHAIN: Read ICHAIN            0
 


--------------------------------------------------------------------------------------------------------


 ion  position               nearest neighbor table
   1  0.875  0.875  0.875-   2 2.37   2 2.37   2 2.37   2 2.37
   2  0.125  0.125  0.125-   1 2.37   1 2.37   1 2.37   1 2.37
 
  LATTYP: Found a face centered cubic cell.
 ALAT       =     5.4692773628
  
  Lattice vectors:
  
 A1 = (   3.3492355326,  -0.0000000011,   1.9336820629)
 A2 = (   1.1164115075,   3.1576894422,   1.9336820629)
 A3 = (   0.0000000041,   0.0000000029,   3.8673631115)
 Subroutine PRICEL returns:
 Original cell was already a primitive cell.
 

Analysis of symmetry for initial positions (statically):

 Routine SETGRP: Setting up the symmetry group for a 
 face centered cubic supercell.


 Subroutine GETGRP returns: Found 48 space group operations
 (whereof 12 operations were pure point group operations)
 out of a pool of 48 trial point group operations.


The static configuration has the point symmetry D_3d.
 The point group associated with its full space group is O_h .

Analysis of symmetry for dynamics (positions and initial velocities):

 Subroutine DYNSYM returns: Found 48 space group operations
 (whereof 12 operations were pure point group operations)
 out of a pool of 48 trial space group operations
 (whereof 12 operations were pure point group operations)
 and found also     1 'primitive' translations


The dynamic configuration has the point symmetry D_3d.
 The point group associated with its full space group is O_h .

Analysis of magnetic symmetry:

 Subroutine MAGSYM returns: Found 48 space group operations
 (whereof 12 operations were pure point group operations)
 out of a pool of 48 trial space group operations
 (whereof 12 operations were pure point group operations)
 and found also     1 'primitive' translations


The magnetic configuration has the point symmetry D_3d.
 The point group associated with its full space group is O_h .
 
 
 KPOINTS: pymatgen generated KPOINTS with grid den

Automatic generation of k-mesh.
 
 Subroutine IBZKPT returns following result:
 ===========================================
 
 Found     29 irreducible k-points:
 
 Following reciprocal coordinates:
            Coordinates               Weight
  0.000000  0.000000  0.000000      1.000000
  0.125000 -0.000000 -0.000000      8.000000
  0.250000 -0.000000 -0.000000      8.000000
  0.375000 -0.000000 -0.000000      8.000000
  0.500000 -0.000000 -0.000000      4.000000
  0.125000  0.125000 -0.000000      6.000000
  0.250000  0.125000 -0.000000     24.000000
  0.375000  0.125000 -0.000000     24.000000
  0.500000  0.125000 -0.000000     24.000000
 -0.375000  0.125000  0.000000     24.000000
 -0.250000  0.125000  0.000000     24.000000
 -0.125000  0.125000  0.000000     12.000000
  0.250000  0.250000 -0.000000      6.000000
  0.375000  0.250000 -0.000000     24.000000
  0.500000  0.250000 -0.000000     24.000000
 -0.375000  0.250000  0.000000     24.000000
 -0.250000  0.250000  0.000000     12.000000
  0.375000  0.375000 -0.000000      6.000000
  0.500000  0.375000 -0.000000     24.000000
 -0.375000  0.375000  0.000000     12.000000
  0.500000  0.500000 -0.000000      3.000000
  0.375000  0.250000  0.125000     24.000000
  0.500000  0.250000  0.125000     48.000000
 -0.375000  0.250000  0.125000     24.000000
  0.500000  0.375000  0.125000     24.000000
 -0.375000  0.375000  0.125000     48.000000
 -0.250000  0.375000  0.125000     24.000000
 -0.375000  0.500000  0.125000     12.000000
 -0.250000  0.500000  0.250000      6.000000
 
 Following cartesian coordinates:
            Coordinates               Weight
  0.000000  0.000000  0.000000      1.000000
  0.037322 -0.013195 -0.000000      8.000000
  0.074644 -0.026391 -0.000000      8.000000
  0.111966 -0.039586 -0.000000      8.000000
  0.149288 -0.052781 -0.000000      4.000000
  0.037322  0.026391 -0.000000      6.000000
  0.074644  0.013195 -0.000000     24.000000
  0.111966  0.000000 -0.000000     24.000000
  0.149288 -0.013195 -0.000000     24.000000
 -0.111966  0.079172  0.000000     24.000000
 -0.074644  0.065977  0.000000     24.000000
 -0.037322  0.052781 -0.000000     12.000000
  0.074644  0.052781 -0.000000      6.000000
  0.111966  0.039586 -0.000000     24.000000
  0.149288  0.026391 -0.000000     24.000000
 -0.111966  0.118758  0.000000     24.000000
 -0.074644  0.105562 -0.000000     12.000000
  0.111966  0.079172 -0.000000      6.000000
  0.149288  0.065977 -0.000000     24.000000
 -0.111966  0.158344 -0.000000     12.000000
  0.149288  0.105562 -0.000000      3.000000
  0.093305  0.026391  0.032322     24.000000
  0.130627  0.013195  0.032322     48.000000
 -0.130627  0.105562  0.032322     24.000000
  0.130627  0.052781  0.032322     24.000000
 -0.130627  0.145148  0.032322     48.000000
 -0.093305  0.131953  0.032322     24.000000
 -0.130627  0.184734  0.032322     12.000000
 -0.111966  0.158344  0.064644      6.000000
 
 TETIRR: Found     76 inequivalent tetrahedra from     3072


--------------------------------------------------------------------------------------------------------




 Dimension of arrays:
   k-points           NKPTS =     29   k-points in BZ     NKDIM =     29   number of bands    NBANDS=     12
   number of dos      NEDOS =    301   number of ions     NIONS =      2
   non local maximal  LDIM  =      4   non local SUM 2l+1 LMDIM =      8
   total plane-waves  NPLWV =  27000
   max r-space proj   IRMAX =   4958   max aug-charges    IRDMAX=  22269
   dimension x,y,z NGX =    30 NGY =   30 NGZ =   30
   dimension x,y,z NGXF=    60 NGYF=   60 NGZF=   60
   support grid    NGXF=    60 NGYF=   60 NGZF=   60
   ions per type =               2
 NGX,Y,Z   is equivalent  to a cutoff of  12.90, 12.90, 12.90 a.u.
 NGXF,Y,Z  is equivalent  to a cutoff of  25.79, 25.79, 25.79 a.u.


 I would recommend the setting:
   dimension x,y,z NGX =    29 NGY =   29 NGZ =   29
 SYSTEM =  unknown system                          
 POSCAR =  Si2                                     

 Startparameter for this run:
   NWRITE =      2    write-flag & timer
   PREC   = accura    medium, high low
   ISTART =      0    job   : 0-new  1-cont  2-samecut
   ICHARG =      1    charge: 1-file 2-atom 10-const
   ISPIN  =      2    spin polarized calculation?
   LNONCOLLINEAR =      F non collinear calculations
   LSORBIT =      F    spin-orbit coupling
   INIWAV =      1    electr: 0-lowe 1-rand  2-diag
   LASPH  =      F    aspherical Exc in radial PAW
   METAGGA=      F    non-selfconsistent MetaGGA calc.

 Electronic Relaxation 1
   ENCUT  =  520.0 eV  38.22 Ry    6.18 a.u.   7.19  7.19  7.19*2*pi/ulx,y,z
   ENINI  =  520.0     initial cutoff
   ENAUG  =  322.1 eV  augmentation charge cutoff
   NELM   =    100;   NELMIN=  2; NELMDL=  0     # of ELM steps 
   EDIFF  = 0.1E-03   stopping-criterion for ELM
   LREAL  =      T    real-space projection
   LCOMPAT=      F    compatible to vasp.4.4
   LREAL_COMPAT= F    compatible to vasp.4.5.1-3
   GGA_COMPAT  = T    GGA compatible to vasp.4.4-vasp.4.6
   LMAXPAW     = -100 max onsite density
   LMAXMIX     =    2 max onsite mixed and CHGCAR
   VOSKOWN=      0    Vosko Wilk Nusair interpolation
   ROPT   =   -0.00025
 Ionic relaxation
   EDIFFG = 0.1E-02   stopping-criterion for IOM
   NSW    =     99    number of steps for IOM
   NBLOCK =      1;   KBLOCK =     99    inner block; outer block 
   IBRION =      2    ionic relax: 0-MD 1-quasi-New 2-CG
   NFREE  =      1    steps in history (QN), initial steepest desc. (CG)
   ISIF   =      3    stress and relaxation
   IWAVPR =     11    prediction:  0-non 1-charg 2-wave 3-comb
   ISYM   =      2    0-nonsym 1-usesym 2-fastsym
   LCORR  =      T    Harris-Foulkes like correction to forces

   POTIM  = 0.5000    time-step for ionic-motion
   TEIN   =    0.0    initial temperature
   TEBEG  =    0.0;   TEEND  =   0.0 temperature during run
   SMASS  =  -3.00    Nose mass-parameter (am)
   estimated Nose-frequenzy (Omega)   =  0.10E-29 period in steps =****** mass=  -0.342E-27a.u.
   NPACO  =    256;   APACO  = 16.0  distance and # of slots for P.C.
   PSTRESS=    0.0 pullay stress

  Mass of Ions in am
   POMASS =  28.09
  Ionic Valenz
   ZVAL   =   4.00
  Atomic Wigner-Seitz radii
   RWIGS  =  -1.00
   NELECT =       8.0000    total number of electrons
   NUPDOWN=      -1.0000    fix difference up-down

 DOS related values:
   EMIN   =  10.00;   EMAX   =-10.00  energy-range for DOS
   EFERMI =   0.00
   ISMEAR =    -5;   SIGMA  =   0.05  broadening in eV -4-tet -1-fermi 0-gaus

 Electronic relaxation 2 (details)
   IALGO  =     68    algorithm
   LDIAG  =      T    sub-space diagonalisation
   IMIX   =      4    mixing-type and parameters
     AMIX     =   0.40;   BMIX     =  1.00
     AMIX_MAG =   1.60;   BMIX_MAG =  1.00
     AMIN     =   0.10
     WC   =   100.;   INIMIX=   1;  MIXPRE=   1

 Intra band minimization:
   WEIMIN = 0.0010     energy-eigenvalue tresh-hold
   EBREAK =  0.28E-05  absolut break condition
   DEPER  =   0.30     relativ break condition  

   TIME   =   0.40     timestep for ELM

  volume/ion in A,a.u.               =      20.45       138.01
  Fermi-wavevector in a.u.,A,eV,Ry     =   0.950302  1.795810 12.287057  0.903073
  Thomas-Fermi vector in A             =   2.078666
 
 Write flags
   LWAVE  =      F    write WAVECAR
   LCHARG =      T    write CHGCAR
   LVTOT  =      F    write LOCPOT, local potential
   LELF   =      F    write electronic localiz. function (ELF)
   LORBIT =     11    0 simple, 1 ext, 2 COOP (PROOUT)


 Dipole corrections
   LMONO  =      F    monopole corrections only (constant potential shift)
   LDIPOL =      F    correct potential (dipole corrections)
   IDIPOL =      0    1-x, 2-y, 3-z, 4-all directions 
   EPSILON=  1.0000000 bulk dielectric constant

 Exchange correlation treatment:
   GGA     =    --    GGA type
   LEXCH   =     8    internal setting for exchange type
   VOSKOWN=      0    Vosko Wilk Nusair interpolation
   LHFCALC =     F    Hartree Fock is set to
   LHFONE  =     F    Hartree Fock one center treatment
   AEXX    =    0.0000 exact exchange contribution

 Linear response parameters
   LEPSILON=     F    determine dielectric tensor
   LRPA    =     F    only Hartree local field effects (RPA)
   LNABLA  =     F    use nabla operator in PAW spheres
   LVEL    =     F    velocity operator in full k-point grid
   LINTERFAST=   F  fast interpolation
   KINTER  =     0    interpolate to denser k-point grid
   CSHIFT  =0.1000    complex shift for real part using Kramers Kronig
   OMEGAMAX=  -1.0    maximum frequency

 Orbital magnetization related:
   ORBITALMAG=     F  switch on orbital magnetization
   LCHIMAG   =     F  perturbation theory with respect to B field



--------------------------------------------------------------------------------------------------------


 conjugate gradient relaxation of ions
 charge density and potential will be updated during run
 spin polarized calculation
 RMM-DIIS sequential band-by-band and
  variant of blocked Davidson during initial phase
 perform sub-space diagonalisation
    before iterative eigenvector-optimisation
 modified Broyden-mixing scheme, WC =      100.0
 initial mixing is a Kerker type mixing with AMIX =  0.4000 and BMIX =      1.0000
 Hartree-type preconditioning will be used
 using additional bands            8
 real space projection scheme for non local part
 use partial core corrections
 calculate Harris-corrections to forces 
   (improved forces if not selfconsistent)
 use gradient corrections 
 use of overlap-Matrix (Vanderbilt PP)
 Fermi weights with tetrahedron method with Bloechl corrections


--------------------------------------------------------------------------------------------------------


  energy-cutoff  :      520.00
  volume of cell :       40.90
      direct lattice vectors                 reciprocal lattice vectors
     3.349235533 -0.000000001  1.933682063     0.298575598 -0.105562386 -0.000000000
     1.116411507  3.157689442  1.933682063     0.000000000  0.316687255 -0.000000000
     0.000000004  0.000000003  3.867363111    -0.149287838 -0.105562462  0.258574117

  length of vectors
     3.867364086  3.867363907  3.867363111     0.316687235  0.316687255  0.316687331


 
 k-points in units of 2pi/SCALE and weight: pymatgen generated KPOINTS with grid den
   0.00000000  0.00000000  0.00000000       0.002
   0.03732195 -0.01319530 -0.00000000       0.016
   0.07464390 -0.02639060 -0.00000000       0.016
   0.11196585 -0.03958589 -0.00000000       0.016
   0.14928780 -0.05278119 -0.00000000       0.008
   0.03732195  0.02639061 -0.00000000       0.012
   0.07464390  0.01319531 -0.00000000       0.047
   0.11196585  0.00000001 -0.00000000       0.047
   0.14928780 -0.01319529 -0.00000000       0.047
  -0.11196585  0.07917180  0.00000000       0.047
  -0.07464390  0.06597650  0.00000000       0.047
  -0.03732195  0.05278121 -0.00000000       0.023
   0.07464390  0.05278122 -0.00000000       0.012
   0.11196585  0.03958592 -0.00000000       0.047
   0.14928780  0.02639062 -0.00000000       0.047
  -0.11196585  0.11875771  0.00000000       0.047
  -0.07464390  0.10556241 -0.00000000       0.023
   0.11196585  0.07917183 -0.00000000       0.012
   0.14928780  0.06597653 -0.00000000       0.047
  -0.11196585  0.15834362 -0.00000000       0.023
   0.14928780  0.10556243 -0.00000000       0.006
   0.09330487  0.02639061  0.03232176       0.047
   0.13062682  0.01319531  0.03232176       0.094
  -0.13062683  0.10556240  0.03232176       0.047
   0.13062682  0.05278122  0.03232176       0.047
  -0.13062683  0.14514831  0.03232176       0.094
  -0.09330488  0.13195301  0.03232176       0.047
  -0.13062683  0.18473421  0.03232176       0.023
  -0.11196586  0.15834361  0.06464353       0.012
 
 k-points in reciprocal lattice and weights: pymatgen generated KPOINTS with grid den
   0.00000000  0.00000000  0.00000000       0.002
   0.12500000 -0.00000000 -0.00000000       0.016
   0.25000000 -0.00000000 -0.00000000       0.016
   0.37500000 -0.00000000 -0.00000000       0.016
   0.50000000 -0.00000000 -0.00000000       0.008
   0.12500000  0.12500000 -0.00000000       0.012
   0.25000000  0.12500000 -0.00000000       0.047
   0.37500000  0.12500000 -0.00000000       0.047
   0.50000000  0.12500000 -0.00000000       0.047
  -0.37500000  0.12500000  0.00000000       0.047
  -0.25000000  0.12500000  0.00000000       0.047
  -0.12500000  0.12500000  0.00000000       0.023
   0.25000000  0.25000000 -0.00000000       0.012
   0.37500000  0.25000000 -0.00000000       0.047
   0.50000000  0.25000000 -0.00000000       0.047
  -0.37500000  0.25000000  0.00000000       0.047
  -0.25000000  0.25000000  0.00000000       0.023
   0.37500000  0.37500000 -0.00000000       0.012
   0.50000000  0.37500000 -0.00000000       0.047
  -0.37500000  0.37500000  0.00000000       0.023
   0.50000000  0.50000000 -0.00000000       0.006
   0.37500000  0.25000000  0.12500000       0.047
   0.50000000  0.25000000  0.12500000       0.094
  -0.37500000  0.25000000  0.12500000       0.047
   0.50000000  0.37500000  0.12500000       0.047
  -0.37500000  0.37500000  0.12500000       0.094
  -0.25000000  0.37500000  0.12500000       0.047
  -0.37500000  0.50000000  0.12500000       0.023
  -0.25000000  0.50000000  0.25000000       0.012
 
 position of ions in fractional coordinates (direct lattice) 
   0.87500000  0.87500000  0.87500000
   0.12500000  0.12500000  0.12500000
 
 position of ions in cartesian coordinates  (Angst):
   3.90744116  2.76297826  6.76788633
   0.55820588  0.39471118  0.96684090
 


--------------------------------------------------------------------------------------------------------


 k-point  1 :  0.00000.00000.0000  plane waves:    1067
 k-point  2 :  0.1250-.0000-.0000  plane waves:    1100
 k-point  3 :  0.2500-.0000-.0000  plane waves:    1095
 k-point  4 :  0.3750-.0000-.0000  plane waves:    1101
 k-point  5 :  0.5000-.0000-.0000  plane waves:    1104
 k-point  6 :  0.12500.1250-.0000  plane waves:    1102
 k-point  7 :  0.25000.1250-.0000  plane waves:    1101
 k-point  8 :  0.37500.1250-.0000  plane waves:    1105
 k-point  9 :  0.50000.1250-.0000  plane waves:    1101
 k-point 10 :  -.37500.12500.0000  plane waves:    1107
 k-point 11 :  -.25000.12500.0000  plane waves:    1102
 k-point 12 :  -.12500.12500.0000  plane waves:    1107
 k-point 13 :  0.25000.2500-.0000  plane waves:    1094
 k-point 14 :  0.37500.2500-.0000  plane waves:    1091
 k-point 15 :  0.50000.2500-.0000  plane waves:    1102
 k-point 16 :  -.37500.25000.0000  plane waves:    1111
 k-point 17 :  -.25000.25000.0000  plane waves:    1097
 k-point 18 :  0.37500.3750-.0000  plane waves:    1094
 k-point 19 :  0.50000.3750-.0000  plane waves:    1106
 k-point 20 :  -.37500.37500.0000  plane waves:    1121
 k-point 21 :  0.50000.5000-.0000  plane waves:    1106
 k-point 22 :  0.37500.25000.1250  plane waves:    1096
 k-point 23 :  0.50000.25000.1250  plane waves:    1104
 k-point 24 :  -.37500.25000.1250  plane waves:    1108
 k-point 25 :  0.50000.37500.1250  plane waves:    1084
 k-point 26 :  -.37500.37500.1250  plane waves:    1099
 k-point 27 :  -.25000.37500.1250  plane waves:    1102
 k-point 28 :  -.37500.50000.1250  plane waves:    1106
 k-point 29 :  -.25000.50000.2500  plane waves:    1124

 maximum and minimum number of plane-waves per node :     286    261

 maximum number of plane-waves:    1124
 maximal index in each direction: 
   IXMAX=  7   IYMAX=  7   IZMAX=  7
   IXMIN= -7   IYMIN= -7   IZMIN= -7

 NGX is ok and might be reduce to  30
 NGY is ok and might be reduce to  30
 NGZ is ok and might be reduce to  30

 real space projection operators:
  total allocation   :    598.00 KBytes
  max/ min on nodes  :    168.69    127.88


 parallel 3D FFT for wavefunctions:
    minimum data exchange during FFTs selected (reduces bandwidth)
 parallel 3D FFT for charge:
    minimum data exchange during FFTs selected (reduces bandwidth)


 total amount of memory used by VASP on root node  36765. kBytes
========================================================================

   base      :    30000. kBytes
   nonlr-proj:      375. kBytes
   fftplans  :      700. kBytes
   grid      :     4872. kBytes
   one-center:        6. kBytes
   wavefun   :      812. kBytes
 
 Broyden mixing: mesh for mixing (old mesh)
   NGX = 15   NGY = 15   NGZ = 15
  (NGX  = 60   NGY  = 60   NGZ  = 60)
  gives a total of   3375 points

 initial charge density was supplied:
 number of electron    8.0000000 magnetization    0.0000078
 keeping initial charge density in first step


--------------------------------------------------------------------------------------------------------


 Maximum index for non-local projection operator         1352
 Maximum index for augmentation-charges         1526 (set IRDMAX)


--------------------------------------------------------------------------------------------------------


 First call to EWALD:  gamma=   0.514
 Maximum number of real-space cells 3x 3x 3
 Maximum number of reciprocal cells 3x 3x 3

    FEWALD:  cpu time    0.00: real time    0.00
   RESPFUN:  cpu time    0.00: real time    0.00


----------------------------------------- Iteration    1(   1)  ---------------------------------------


    POTLOK:  cpu time    0.03: real time    0.04
    SETDIJ:  cpu time    0.01: real time    0.01
     EDDAV:  cpu time    0.51: real time    0.61
 BZINTS: Fermi energy:  9.303419;  8.000000 electrons
         Band energy:  20.587878;  BLOECHL correction: -0.063492
       DOS:  cpu time    0.00: real time    0.01
    --------------------------------------------
      LOOP:  cpu time    0.55: real time    0.68

 eigenvalue-minimisations  :  1392
 total energy-change (2. order) : 0.4823410E+01  (-0.2864451E+03)
 number of electron    8.0000000 magnetization    0.0000078
 augmentation part     8.0000000 magnetization    0.0000078

 Free energy of the ion-electron system (eV)
  ---------------------------------------------------
  alpha Z        PSCENC =         3.29218146
  Ewald energy   TEWEN  =      -226.92207139
  -1/2 Hartree   DENC   =       -15.18836144
  -exchange  EXHF       =         0.00000000
  -V(xc)+E(xc)   XCENC  =       -18.06044555
  PAW double counting   =        73.60550753      -38.62398199
  entropy T*S    EENTRO =         0.00000000
  eigenvalues    EBANDS =        20.58787834
  atomic energy  EATOM  =       206.13270273
  ---------------------------------------------------
  free energy    TOTEN  =         4.82340968 eV

  energy without entropy =        4.82340968  energy(sigma->0) =        4.82340968


--------------------------------------------------------------------------------------------------------




----------------------------------------- Iteration    1(   2)  ---------------------------------------


     EDDAV:  cpu time    0.57: real time    0.59
 BZINTS: Fermi energy:  5.972432;  8.000000 electrons
         Band energy:   5.341805;  BLOECHL correction:  0.000000
       DOS:  cpu time    0.00: real time    0.00
    --------------------------------------------
      LOOP:  cpu time    0.57: real time    0.59

 eigenvalue-minimisations  :  1824
 total energy-change (2. order) :-0.1524607E+02  (-0.1484373E+02)
 number of electron    8.0000000 magnetization    0.0000078
 augmentation part     8.0000000 magnetization    0.0000078

 Free energy of the ion-electron system (eV)
  ---------------------------------------------------
  alpha Z        PSCENC =         3.29218146
  Ewald energy   TEWEN  =      -226.92207139
  -1/2 Hartree   DENC   =       -15.18836144
  -exchange  EXHF       =         0.00000000
  -V(xc)+E(xc)   XCENC  =       -18.06044555
  PAW double counting   =        73.60550753      -38.62398199
  entropy T*S    EENTRO =         0.00000000
  eigenvalues    EBANDS =         5.34180479
  atomic energy  EATOM  =       206.13270273
  ---------------------------------------------------
  free energy    TOTEN  =       -10.42266387 eV

  energy without entropy =      -10.42266387  energy(sigma->0) =      -10.42266387


--------------------------------------------------------------------------------------------------------




----------------------------------------- Iteration    1(   3)  ---------------------------------------


     EDDAV:  cpu time    0.56: real time    0.56
 BZINTS: Fermi energy:  5.644555;  8.000000 electrons
         Band energy:   4.920613;  BLOECHL correction:  0.000000
       DOS:  cpu time    0.00: real time    0.00
    --------------------------------------------
      LOOP:  cpu time    0.56: real time    0.56

 eigenvalue-minimisations  :  1812
 total energy-change (2. order) :-0.4211923E+00  (-0.4202106E+00)
 number of electron    8.0000000 magnetization    0.0000078
 augmentation part     8.0000000 magnetization    0.0000078

 Free energy of the ion-electron system (eV)
  ---------------------------------------------------
  alpha Z        PSCENC =         3.29218146
  Ewald energy   TEWEN  =      -226.92207139
  -1/2 Hartree   DENC   =       -15.18836144
  -exchange  EXHF       =         0.00000000
  -V(xc)+E(xc)   XCENC  =       -18.06044555
  PAW double counting   =        73.60550753      -38.62398199
  entropy T*S    EENTRO =         0.00000000
  eigenvalues    EBANDS =         4.92061252
  atomic energy  EATOM  =       206.13270273
  ---------------------------------------------------
  free energy    TOTEN  =       -10.84385614 eV

  energy without entropy =      -10.84385614  energy(sigma->0) =      -10.84385614


--------------------------------------------------------------------------------------------------------




----------------------------------------- Iteration    1(   4)  ---------------------------------------


     EDDAV:  cpu time    0.51: real time    0.52
 BZINTS: Fermi energy:  5.683347;  8.000000 electrons
         Band energy:   4.917622;  BLOECHL correction:  0.000000
       DOS:  cpu time    0.00: real time    0.00
    --------------------------------------------
      LOOP:  cpu time    0.51: real time    0.52

 eigenvalue-minimisations  :  1612
 total energy-change (2. order) :-0.2990737E-02  (-0.2990434E-02)
 number of electron    8.0000000 magnetization    0.0000078
 augmentation part     8.0000000 magnetization    0.0000078

 Free energy of the ion-electron system (eV)
  ---------------------------------------------------
  alpha Z        PSCENC =         3.29218146
  Ewald energy   TEWEN  =      -226.92207139
  -1/2 Hartree   DENC   =       -15.18836144
  -exchange  EXHF       =         0.00000000
  -V(xc)+E(xc)   XCENC  =       -18.06044555
  PAW double counting   =        73.60550753      -38.62398199
  entropy T*S    EENTRO =         0.00000000
  eigenvalues    EBANDS =         4.91762178
  atomic energy  EATOM  =       206.13270273
  ---------------------------------------------------
  free energy    TOTEN  =       -10.84684687 eV

  energy without entropy =      -10.84684687  energy(sigma->0) =      -10.84684687


--------------------------------------------------------------------------------------------------------




----------------------------------------- Iteration    1(   5)  ---------------------------------------


     EDDAV:  cpu time    0.56: real time    0.56
 BZINTS: Fermi energy:  5.647566;  8.000000 electrons
         Band energy:   4.917592;  BLOECHL correction:  0.000000
       DOS:  cpu time    0.00: real time    0.00
    CHARGE:  cpu time    0.03: real time    0.04
    MIXING:  cpu time    0.00: real time    0.01
    --------------------------------------------
      LOOP:  cpu time    0.59: real time    0.63

 eigenvalue-minimisations  :  1828
 total energy-change (2. order) :-0.2978459E-04  (-0.2978432E-04)
 number of electron    8.0000000 magnetization   -0.0000022
 augmentation part    -0.4580575 magnetization   -0.0000022

 Broyden mixing:
  rms(total) = 0.18006E-03    rms(broyden)= 0.17970E-03
  rms(prec ) = 0.34184E-03
  weight for this iteration     100.00

 Free energy of the ion-electron system (eV)
  ---------------------------------------------------
  alpha Z        PSCENC =         3.29218146
  Ewald energy   TEWEN  =      -226.92207139
  -1/2 Hartree   DENC   =       -15.18836144
  -exchange  EXHF       =         0.00000000
  -V(xc)+E(xc)   XCENC  =       -18.06044555
  PAW double counting   =        73.60550753      -38.62398199
  entropy T*S    EENTRO =         0.00000000
  eigenvalues    EBANDS =         4.91759200
  atomic energy  EATOM  =       206.13270273
  ---------------------------------------------------
  free energy    TOTEN  =       -10.84687666 eV

  energy without entropy =      -10.84687666  energy(sigma->0) =      -10.84687666


--------------------------------------------------------------------------------------------------------




----------------------------------------- Iteration    1(   6)  ---------------------------------------


    POTLOK:  cpu time    0.02: real time    0.03
    SETDIJ:  cpu time    0.00: real time    0.00
    EDDIAG:  cpu time    0.10: real time    0.10
  RMM-DIIS:  cpu time    0.20: real time    0.20
    ORTHCH:  cpu time    0.00: real time    0.00
 BZINTS: Fermi energy:  5.643877;  8.000000 electrons
         Band energy:   4.917478;  BLOECHL correction:  0.000000
       DOS:  cpu time    0.00: real time    0.00
    --------------------------------------------
      LOOP:  cpu time    0.33: real time    0.34

 eigenvalue-minimisations  :   659
 total energy-change (2. order) :-0.3822972E-06  (-0.3034522E-06)
 number of electron    8.0000000 magnetization   -0.0000022
 augmentation part    -0.4580575 magnetization   -0.0000022

 Free energy of the ion-electron system (eV)
  ---------------------------------------------------
  alpha Z        PSCENC =         3.29218146
  Ewald energy   TEWEN  =      -226.92207139
  -1/2 Hartree   DENC   =       -15.18811995
  -exchange  EXHF       =         0.00000000
  -V(xc)+E(xc)   XCENC  =       -18.06044066
  PAW double counting   =        73.60766861      -38.62627583
  entropy T*S    EENTRO =         0.00000000
  eigenvalues    EBANDS =         4.91747800
  atomic energy  EATOM  =       206.13270273
  ---------------------------------------------------
  free energy    TOTEN  =       -10.84687704 eV

  energy without entropy =      -10.84687704  energy(sigma->0) =      -10.84687704


--------------------------------------------------------------------------------------------------------




 average (electrostatic) potential at core
  the test charge radii are     0.9892
  (the norm of the test charge is              1.0000)
       1 -83.4837       2 -83.4837
 
 
 
 E-fermi :   5.6439     XC(G=0):  -9.3250     alpha+bet :-11.7282
   add alpha+bet to get absolut eigen values

 spin component 1

 k-point   1 :       0.0000    0.0000    0.0000
  band No.  band energies     occupation 
      1      -6.1986      1.00000
      2       5.6146      1.00000
      3       5.6146      1.00000
      4       5.6146      1.00000
      5       8.1707      0.00000
      6       8.1707      0.00000
      7       8.1707      0.00000
      8       8.7451      0.00000
      9      13.3228      0.00000
     10      13.3228      0.00000
     11      13.4916      0.00000
     12      16.7952      0.00000

 k-point   2 :       0.1250   -0.0000   -0.0000
  band No.  band energies     occupation 
      1      -5.9982      1.00000
      2       4.0238      1.00000
      3       5.3322      1.00000
      4       5.3322      1.00000
      5       8.0565      0.00000
      6       8.5861      0.00000
      7       8.5861      0.00000
      8      10.1449      0.00000
      9      12.8501      0.00000
     10      12.8501      0.00000
     11      14.2671      0.00000
     12      16.2419      0.00000

 k-point   3 :       0.2500   -0.0000   -0.0000
  band No.  band energies     occupation 
      1      -5.4139      1.00000
      2       1.7286      1.00000
      3       4.8696      1.00000
      4       4.8696      1.00000
      5       7.5728      0.00000
      6       9.1039      0.00000
      7       9.1040      0.00000
      8      12.3635      0.00000
      9      12.8010      0.00000
     10      12.8010      0.00000
     11      14.5436      0.00000
     12      17.3249      0.00000

 k-point   4 :       0.3750   -0.0000   -0.0000
  band No.  band energies     occupation 
      1      -4.5396      1.00000
      2      -0.2553      1.00000
      3       4.5469      1.00000
      4       4.5469      1.00000
      5       7.2082      0.00000
      6       9.0671      0.00000
      7       9.0671      0.00000
      8      13.4516      0.00000
      9      14.1527      0.00000
     10      14.1527      0.00000
     11      15.1248      0.00000
     12      19.2398      0.00000

 k-point   5 :       0.5000   -0.0000   -0.0000
  band No.  band energies     occupation 
      1      -3.9206      1.00000
      2      -1.2530      1.00000
      3       4.4363      1.00000
      4       4.4363      1.00000
      5       7.0800      0.00000
      6       8.9635      0.00000
      7       8.9636      0.00000
      8      13.3163      0.00000
      9      16.1085      0.00000
     10      16.1086      0.00000
     11      16.7986      0.00000
     12      16.8323      0.00000

 k-point   6 :       0.1250    0.1250   -0.0000
  band No.  band energies     occupation 
      1      -5.9306      1.00000
      2       4.2621      1.00000
      3       4.8282      1.00000
      4       4.8282      1.00000
      5       7.6297      0.00000
      6       9.2855      0.00000
      7       9.2855      0.00000
      8       9.8323      0.00000
      9      12.0980      0.00000
     10      13.6211      0.00000
     11      14.5615      0.00000
     12      17.2620      0.00000

 k-point   7 :       0.2500    0.1250   -0.0000
  band No.  band energies     occupation 
      1      -5.4706      1.00000
      2       2.4089      1.00000
      3       4.3259      1.00000
      4       4.3895      1.00000
      5       7.7592      0.00000
      6       9.2382      0.00000
      7      10.0410      0.00000
      8      10.3527      0.00000
      9      12.9733      0.00000
     10      13.7821      0.00000
     11      15.5489      0.00000
     12      17.1106      0.00000

 k-point   8 :       0.3750    0.1250   -0.0000
  band No.  band energies     occupation 
      1      -4.6723      1.00000
      2       0.3875      1.00000
      3       3.8063      1.00000
      4       4.0611      1.00000
      5       7.8422      0.00000
      6       9.2063      0.00000
      7      10.0554      0.00000
      8      11.0533      0.00000
      9      14.8830      0.00000
     10      14.8944      0.00000
     11      15.4033      0.00000
     12      18.8940      0.00000

 k-point   9 :       0.5000    0.1250   -0.0000
  band No.  band energies     occupation 
      1      -3.8336      1.00000
      2      -1.0425      1.00000
      3       3.3694      1.00000
      4       4.0830      1.00000
      5       7.7770      0.00000
      6       9.1026      0.00000
      7       9.7074      0.00000
      8      12.9181      0.00000
      9      14.5571      0.00000
     10      16.0299      0.00000
     11      17.0146      0.00000
     12      17.1512      0.00000

 k-point  10 :      -0.3750    0.1250    0.0000
  band No.  band energies     occupation 
      1      -4.0708      1.00000
      2      -0.6814      1.00000
      3       3.1942      1.00000
      4       4.3722      1.00000
      5       7.9263      0.00000
      6       9.2218      0.00000
      7       9.4779      0.00000
      8      13.4410      0.00000
      9      13.6723      0.00000
     10      14.7482      0.00000
     11      16.6901      0.00000
     12      17.8946      0.00000

 k-point  11 :      -0.2500    0.1250    0.0000
  band No.  band energies     occupation 
      1      -4.9722      1.00000
      2       1.0336      1.00000
      3       3.3485      1.00000
      4       4.8533      1.00000
      5       8.2693      0.00000
      6       9.2753      0.00000
      7       9.4496      0.00000
      8      11.8247      0.00000
      9      12.0901      0.00000
     10      15.3585      0.00000
     11      15.5714      0.00000
     12      17.9156      0.00000

 k-point  12 :      -0.1250    0.1250    0.0000
  band No.  band energies     occupation 
      1      -5.6682      1.00000
      2       2.9401      1.00000
      3       4.0258      1.00000
      4       5.3248      1.00000
      5       8.5819      0.00000
      6       8.7230      0.00000
      7       8.9449      0.00000
      8      11.0432      0.00000
      9      11.9700      0.00000
     10      13.5790      0.00000
     11      15.2692      0.00000
     12      16.7283      0.00000

 k-point  13 :       0.2500    0.2500   -0.0000
  band No.  band energies     occupation 
      1      -5.1363      1.00000
      2       2.0961      1.00000
      3       3.7663      1.00000
      4       3.7663      1.00000
      5       6.7660      0.00000
      6       8.7500      0.00000
      7      11.3030      0.00000
      8      11.3030      0.00000
      9      13.4806      0.00000
     10      14.5140      0.00000
     11      16.9146      0.00000
     12      18.5302      0.00000

 k-point  14 :       0.3750    0.2500   -0.0000
  band No.  band energies     occupation 
      1      -4.4400      1.00000
      2       0.6995      1.00000
      3       3.0006      1.00000
      4       3.4533      1.00000
      5       6.9855      0.00000
      6       8.5174      0.00000
      7      11.5219      0.00000
      8      11.8204      0.00000
      9      15.5370      0.00000
     10      15.5826      0.00000
     11      17.1605      0.00000
     12      18.7016      0.00000

 k-point  15 :       0.5000    0.2500   -0.0000
  band No.  band energies     occupation 
      1      -3.5353      1.00000
      2      -0.7084      1.00000
      3       2.1528      1.00000
      4       3.4553      1.00000
      5       7.1564      0.00000
      6      10.0460      0.00000
      7      11.2595      0.00000
      8      11.4905      0.00000
      9      15.6993      0.00000
     10      16.0737      0.00000
     11      17.6644      0.00000
     12      18.2594      0.00000

 k-point  16 :      -0.3750    0.2500    0.0000
  band No.  band energies     occupation 
      1      -3.3382      1.00000
      2      -0.9582      1.00000
      3       1.7055      1.00000
      4       3.7664      1.00000
      5       7.4704      0.00000
      6      11.0152      0.00000
      7      11.0562      0.00000
      8      12.4969      0.00000
      9      13.5059      0.00000
     10      13.5614      0.00000
     11      18.0919      0.00000
     12      20.3515      0.00000

 k-point  17 :      -0.2500    0.2500    0.0000
  band No.  band energies     occupation 
      1      -4.1950      1.00000
      2       0.1756      1.00000
      3       1.9463      1.00000
      4       4.3125      1.00000
      5       8.0519      0.00000
      6      10.3622      0.00000
      7      10.6973      0.00000
      8      11.6545      0.00000
      9      12.0679      0.00000
     10      15.1347      0.00000
     11      18.1073      0.00000
     12      18.6467      0.00000

 k-point  18 :       0.3750    0.3750   -0.0000
  band No.  band energies     occupation 
      1      -3.8481      1.00000
      2      -0.0973      1.00000
      3       3.0624      1.00000
      4       3.0624      1.00000
      5       6.2652      0.00000
      6       7.1906      0.00000
      7      13.5502      0.00000
      8      13.5502      0.00000
      9      15.9961      0.00000
     10      16.0941      0.00000
     11      18.4969      0.00000
     12      18.5333      0.00000

 k-point  19 :       0.5000    0.3750   -0.0000
  band No.  band energies     occupation 
      1      -2.9690      1.00000
      2      -1.1636      1.00000
      3       2.2571      1.00000
      4       2.9872      1.00000
      5       6.5457      0.00000
      6       7.5996      0.00000
      7      13.7873      0.00000
      8      13.8429      0.00000
      9      16.2311      0.00000
     10      16.3326      0.00000
     11      17.8290      0.00000
     12      18.2495      0.00000

 k-point  20 :      -0.3750    0.3750    0.0000
  band No.  band energies     occupation 
      1      -2.5459      1.00000
      2      -1.5488      1.00000
      3       1.4151      1.00000
      4       3.2394      1.00000
      5       6.8488      0.00000
      6       9.7263      0.00000
      7      12.9937      0.00000
      8      13.5296      0.00000
      9      13.6952      0.00000
     10      14.0942      0.00000
     11      20.1231      0.00000
     12      20.3822      0.00000

 k-point  21 :       0.5000    0.5000   -0.0000
  band No.  band energies     occupation 
      1      -2.1310      1.00000
      2      -2.1310      1.00000
      3       2.8210      1.00000
      4       2.8210      1.00000
      5       6.3663      0.00000
      6       6.3663      0.00000
      7      15.5484      0.00000
      8      15.5484      0.00000
      9      16.5206      0.00000
     10      16.5207      0.00000
     11      18.0561      0.00000
     12      18.0617      0.00000

 k-point  22 :       0.3750    0.2500    0.1250
  band No.  band energies     occupation 
      1      -4.8940      1.00000
      2       1.3465      1.00000
      3       2.9631      1.00000
      4       4.2147      1.00000
      5       8.0575      0.00000
      6       9.4406      0.00000
      7       9.8175      0.00000
      8      11.0546      0.00000
      9      13.3265      0.00000
     10      15.7182      0.00000
     11      16.5781      0.00000
     12      17.6464      0.00000

 k-point  23 :       0.5000    0.2500    0.1250
  band No.  band energies     occupation 
      1      -4.0248      1.00000
      2      -0.1727      1.00000
      3       2.3591      1.00000
      4       3.7274      1.00000
      5       8.4786      0.00000
      6       9.1439      0.00000
      7      10.5917      0.00000
      8      11.4921      0.00000
      9      14.5443      0.00000
     10      15.2403      0.00000
     11      17.5161      0.00000
     12      18.3617      0.00000

 k-point  24 :      -0.3750    0.2500    0.1250
  band No.  band energies     occupation 
      1      -3.3908      1.00000
      2      -1.0919      1.00000
      3       2.2278      1.00000
      4       3.5044      1.00000
      5       8.6376      0.00000
      6       8.7609      0.00000
      7      11.4605      0.00000
      8      12.6802      0.00000
      9      12.9206      0.00000
     10      16.1216      0.00000
     11      17.1663      0.00000
     12      17.8877      0.00000

 k-point  25 :       0.5000    0.3750    0.1250
  band No.  band energies     occupation 
      1      -3.6548      1.00000
      2      -0.3125      1.00000
      3       2.3275      1.00000
      4       2.9192      1.00000
      5       7.5703      0.00000
      6       8.2733      0.00000
      7      11.2988      0.00000
      8      13.5016      0.00000
      9      15.6688      0.00000
     10      15.7233      0.00000
     11      18.2972      0.00000
     12      18.8015      0.00000

 k-point  26 :      -0.3750    0.3750    0.1250
  band No.  band energies     occupation 
      1      -2.8015      1.00000
      2      -1.2608      1.00000
      3       1.6475      1.00000
      4       2.7233      1.00000
      5       8.0097      0.00000
      6       9.8833      0.00000
      7      10.8263      0.00000
      8      12.9654      0.00000
      9      13.9214      0.00000
     10      16.5735      0.00000
     11      17.6850      0.00000
     12      19.7993      0.00000

 k-point  27 :      -0.2500    0.3750    0.1250
  band No.  band energies     occupation 
      1      -3.1451      1.00000
      2      -0.9031      1.00000
      3       1.4851      1.00000
      4       3.0898      1.00000
      5       8.4790      0.00000
      6      10.1287      0.00000
      7      10.7800      0.00000
      8      12.5768      0.00000
      9      13.3795      0.00000
     10      14.7601      0.00000
     11      19.5505      0.00000
     12      19.7532      0.00000

 k-point  28 :      -0.3750    0.5000    0.1250
  band No.  band energies     occupation 
      1      -2.0573      1.00000
      2      -2.0573      1.00000
      3       2.2761      1.00000
      4       2.2761      1.00000
      5       7.6006      0.00000
      6       7.6006      0.00000
      7      13.3652      0.00000
      8      13.3652      0.00000
      9      16.0668      0.00000
     10      16.0668      0.00000
     11      18.3337      0.00000
     12      18.3337      0.00000

 k-point  29 :      -0.2500    0.5000    0.2500
  band No.  band energies     occupation 
      1      -1.9765      1.00000
      2      -1.9765      1.00000
      3       1.8544      1.00000
      4       1.8544      1.00000
      5       9.8847      0.00000
      6       9.8847      0.00000
      7      10.5450      0.00000
      8      10.5450      0.00000
      9      16.0645      0.00000
     10      16.0645      0.00000
     11      18.4829      0.00000
     12      18.4830      0.00000

 spin component 2

 k-point   1 :       0.0000    0.0000    0.0000
  band No.  band energies     occupation 
      1      -6.1985      1.00000
      2       5.6146      1.00000
      3       5.6147      1.00000
      4       5.6147      1.00000
      5       8.1708      0.00000
      6       8.1708      0.00000
      7       8.1708      0.00000
      8       8.7452      0.00000
      9      13.3229      0.00000
     10      13.3229      0.00000
     11      13.4916      0.00000
     12      16.7952      0.00000

 k-point   2 :       0.1250   -0.0000   -0.0000
  band No.  band energies     occupation 
      1      -5.9981      1.00000
      2       4.0239      1.00000
      3       5.3323      1.00000
      4       5.3323      1.00000
      5       8.0566      0.00000
      6       8.5862      0.00000
      7       8.5862      0.00000
      8      10.1450      0.00000
      9      12.8501      0.00000
     10      12.8501      0.00000
     11      14.2671      0.00000
     12      16.2420      0.00000

 k-point   3 :       0.2500   -0.0000   -0.0000
  band No.  band energies     occupation 
      1      -5.4138      1.00000
      2       1.7287      1.00000
      3       4.8697      1.00000
      4       4.8697      1.00000
      5       7.5728      0.00000
      6       9.1040      0.00000
      7       9.1040      0.00000
      8      12.3636      0.00000
      9      12.8011      0.00000
     10      12.8011      0.00000
     11      14.5437      0.00000
     12      17.3250      0.00000

 k-point   4 :       0.3750   -0.0000   -0.0000
  band No.  band energies     occupation 
      1      -4.5396      1.00000
      2      -0.2552      1.00000
      3       4.5470      1.00000
      4       4.5470      1.00000
      5       7.2083      0.00000
      6       9.0672      0.00000
      7       9.0672      0.00000
      8      13.4516      0.00000
      9      14.1527      0.00000
     10      14.1527      0.00000
     11      15.1248      0.00000
     12      19.2452      0.00000

 k-point   5 :       0.5000   -0.0000   -0.0000
  band No.  band energies     occupation 
      1      -3.9205      1.00000
      2      -1.2529      1.00000
      3       4.4364      1.00000
      4       4.4364      1.00000
      5       7.0801      0.00000
      6       8.9636      0.00000
      7       8.9636      0.00000
      8      13.3164      0.00000
      9      16.1085      0.00000
     10      16.1087      0.00000
     11      16.8055      0.00000
     12      16.8324      0.00000

 k-point   6 :       0.1250    0.1250   -0.0000
  band No.  band energies     occupation 
      1      -5.9305      1.00000
      2       4.2622      1.00000
      3       4.8283      1.00000
      4       4.8283      1.00000
      5       7.6298      0.00000
      6       9.2855      0.00000
      7       9.2855      0.00000
      8       9.8324      0.00000
      9      12.0980      0.00000
     10      13.6211      0.00000
     11      14.5615      0.00000
     12      17.2617      0.00000

 k-point   7 :       0.2500    0.1250   -0.0000
  band No.  band energies     occupation 
      1      -5.4706      1.00000
      2       2.4090      1.00000
      3       4.3260      1.00000
      4       4.3896      1.00000
      5       7.7593      0.00000
      6       9.2383      0.00000
      7      10.0411      0.00000
      8      10.3528      0.00000
      9      12.9734      0.00000
     10      13.7821      0.00000
     11      15.5490      0.00000
     12      17.1107      0.00000

 k-point   8 :       0.3750    0.1250   -0.0000
  band No.  band energies     occupation 
      1      -4.6722      1.00000
      2       0.3876      1.00000
      3       3.8064      1.00000
      4       4.0612      1.00000
      5       7.8423      0.00000
      6       9.2064      0.00000
      7      10.0554      0.00000
      8      11.0534      0.00000
      9      14.8830      0.00000
     10      14.8945      0.00000
     11      15.4033      0.00000
     12      18.8930      0.00000

 k-point   9 :       0.5000    0.1250   -0.0000
  band No.  band energies     occupation 
      1      -3.8335      1.00000
      2      -1.0425      1.00000
      3       3.3694      1.00000
      4       4.0831      1.00000
      5       7.7771      0.00000
      6       9.1027      0.00000
      7       9.7075      0.00000
      8      12.9181      0.00000
      9      14.5571      0.00000
     10      16.0299      0.00000
     11      17.0148      0.00000
     12      17.1530      0.00000

 k-point  10 :      -0.3750    0.1250    0.0000
  band No.  band energies     occupation 
      1      -4.0707      1.00000
      2      -0.6814      1.00000
      3       3.1943      1.00000
      4       4.3723      1.00000
      5       7.9263      0.00000
      6       9.2219      0.00000
      7       9.4780      0.00000
      8      13.4411      0.00000
      9      13.6723      0.00000
     10      14.7483      0.00000
     11      16.6901      0.00000
     12      17.8944      0.00000

 k-point  11 :      -0.2500    0.1250    0.0000
  band No.  band energies     occupation 
      1      -4.9721      1.00000
      2       1.0337      1.00000
      3       3.3486      1.00000
      4       4.8534      1.00000
      5       8.2694      0.00000
      6       9.2753      0.00000
      7       9.4496      0.00000
      8      11.8247      0.00000
      9      12.0901      0.00000
     10      15.3585      0.00000
     11      15.5715      0.00000
     12      17.9156      0.00000

 k-point  12 :      -0.1250    0.1250    0.0000
  band No.  band energies     occupation 
      1      -5.6681      1.00000
      2       2.9402      1.00000
      3       4.0259      1.00000
      4       5.3249      1.00000
      5       8.5820      0.00000
      6       8.7231      0.00000
      7       8.9449      0.00000
      8      11.0432      0.00000
      9      11.9700      0.00000
     10      13.5790      0.00000
     11      15.2693      0.00000
     12      16.7286      0.00000

 k-point  13 :       0.2500    0.2500   -0.0000
  band No.  band energies     occupation 
      1      -5.1362      1.00000
      2       2.0962      1.00000
      3       3.7664      1.00000
      4       3.7664      1.00000
      5       6.7661      0.00000
      6       8.7501      0.00000
      7      11.3030      0.00000
      8      11.3030      0.00000
      9      13.4807      0.00000
     10      14.5140      0.00000
     11      16.9146      0.00000
     12      18.5303      0.00000

 k-point  14 :       0.3750    0.2500   -0.0000
  band No.  band energies     occupation 
      1      -4.4399      1.00000
      2       0.6996      1.00000
      3       3.0007      1.00000
      4       3.4534      1.00000
      5       6.9856      0.00000
      6       8.5175      0.00000
      7      11.5220      0.00000
      8      11.8205      0.00000
      9      15.5370      0.00000
     10      15.5826      0.00000
     11      17.1612      0.00000
     12      18.7045      0.00000

 k-point  15 :       0.5000    0.2500   -0.0000
  band No.  band energies     occupation 
      1      -3.5352      1.00000
      2      -0.7083      1.00000
      3       2.1529      1.00000
      4       3.4554      1.00000
      5       7.1564      0.00000
      6      10.0461      0.00000
      7      11.2596      0.00000
      8      11.4906      0.00000
      9      15.6994      0.00000
     10      16.0737      0.00000
     11      17.6620      0.00000
     12      18.1353      0.00000

 k-point  16 :      -0.3750    0.2500    0.0000
  band No.  band energies     occupation 
      1      -3.3381      1.00000
      2      -0.9582      1.00000
      3       1.7056      1.00000
      4       3.7665      1.00000
      5       7.4704      0.00000
      6      11.0153      0.00000
      7      11.0563      0.00000
      8      12.4970      0.00000
      9      13.5059      0.00000
     10      13.5614      0.00000
     11      18.0919      0.00000
     12      20.3012      0.00000

 k-point  17 :      -0.2500    0.2500    0.0000
  band No.  band energies     occupation 
      1      -4.1949      1.00000
      2       0.1756      1.00000
      3       1.9463      1.00000
      4       4.3126      1.00000
      5       8.0519      0.00000
      6      10.3623      0.00000
      7      10.6974      0.00000
      8      11.6545      0.00000
      9      12.0680      0.00000
     10      15.1348      0.00000
     11      18.1075      0.00000
     12      18.6442      0.00000

 k-point  18 :       0.3750    0.3750   -0.0000
  band No.  band energies     occupation 
      1      -3.8480      1.00000
      2      -0.0972      1.00000
      3       3.0625      1.00000
      4       3.0625      1.00000
      5       6.2652      0.00000
      6       7.1906      0.00000
      7      13.5503      0.00000
      8      13.5503      0.00000
      9      15.9961      0.00000
     10      16.0942      0.00000
     11      18.4969      0.00000
     12      18.5714      0.00000

 k-point  19 :       0.5000    0.3750   -0.0000
  band No.  band energies     occupation 
      1      -2.9689      1.00000
      2      -1.1636      1.00000
      3       2.2572      1.00000
      4       2.9873      1.00000
      5       6.5457      0.00000
      6       7.5996      0.00000
      7      13.7874      0.00000
      8      13.8430      0.00000
      9      16.2312      0.00000
     10      16.3326      0.00000
     11      17.8292      0.00000
     12      18.2496      0.00000

 k-point  20 :      -0.3750    0.3750    0.0000
  band No.  band energies     occupation 
      1      -2.5458      1.00000
      2      -1.5487      1.00000
      3       1.4152      1.00000
      4       3.2395      1.00000
      5       6.8489      0.00000
      6       9.7263      0.00000
      7      12.9938      0.00000
      8      13.5297      0.00000
      9      13.6953      0.00000
     10      14.0942      0.00000
     11      20.1166      0.00000
     12      20.4069      0.00000

 k-point  21 :       0.5000    0.5000   -0.0000
  band No.  band energies     occupation 
      1      -2.1310      1.00000
      2      -2.1309      1.00000
      3       2.8210      1.00000
      4       2.8210      1.00000
      5       6.3664      0.00000
      6       6.3664      0.00000
      7      15.5484      0.00000
      8      15.5484      0.00000
      9      16.5206      0.00000
     10      16.5208      0.00000
     11      18.0570      0.00000
     12      18.1113      0.00000

 k-point  22 :       0.3750    0.2500    0.1250
  band No.  band energies     occupation 
      1      -4.8940      1.00000
      2       1.3466      1.00000
      3       2.9631      1.00000
      4       4.2147      1.00000
      5       8.0575      0.00000
      6       9.4406      0.00000
      7       9.8175      0.00000
      8      11.0546      0.00000
      9      13.3265      0.00000
     10      15.7183      0.00000
     11      16.5781      0.00000
     12      17.6464      0.00000

 k-point  23 :       0.5000    0.2500    0.1250
  band No.  band energies     occupation 
      1      -4.0247      1.00000
      2      -0.1726      1.00000
      3       2.3592      1.00000
      4       3.7275      1.00000
      5       8.4787      0.00000
      6       9.1440      0.00000
      7      10.5918      0.00000
      8      11.4922      0.00000
      9      14.5443      0.00000
     10      15.2403      0.00000
     11      17.5162      0.00000
     12      18.3621      0.00000

 k-point  24 :      -0.3750    0.2500    0.1250
  band No.  band energies     occupation 
      1      -3.3907      1.00000
      2      -1.0919      1.00000
      3       2.2278      1.00000
      4       3.5045      1.00000
      5       8.6377      0.00000
      6       8.7609      0.00000
      7      11.4606      0.00000
      8      12.6802      0.00000
      9      12.9207      0.00000
     10      16.1216      0.00000
     11      17.1664      0.00000
     12      17.8879      0.00000

 k-point  25 :       0.5000    0.3750    0.1250
  band No.  band energies     occupation 
      1      -3.6547      1.00000
      2      -0.3124      1.00000
      3       2.3275      1.00000
      4       2.9193      1.00000
      5       7.5704      0.00000
      6       8.2734      0.00000
      7      11.2989      0.00000
      8      13.5017      0.00000
      9      15.6689      0.00000
     10      15.7233      0.00000
     11      18.2973      0.00000
     12      18.8029      0.00000

 k-point  26 :      -0.3750    0.3750    0.1250
  band No.  band energies     occupation 
      1      -2.8014      1.00000
      2      -1.2607      1.00000
      3       1.6475      1.00000
      4       2.7234      1.00000
      5       8.0097      0.00000
      6       9.8834      0.00000
      7      10.8264      0.00000
      8      12.9655      0.00000
      9      13.9215      0.00000
     10      16.5735      0.00000
     11      17.6851      0.00000
     12      19.7996      0.00000

 k-point  27 :      -0.2500    0.3750    0.1250
  band No.  band energies     occupation 
      1      -3.1450      1.00000
      2      -0.9030      1.00000
      3       1.4852      1.00000
      4       3.0899      1.00000
      5       8.4790      0.00000
      6      10.1287      0.00000
      7      10.7800      0.00000
      8      12.5769      0.00000
      9      13.3796      0.00000
     10      14.7601      0.00000
     11      19.5524      0.00000
     12      19.7552      0.00000

 k-point  28 :      -0.3750    0.5000    0.1250
  band No.  band energies     occupation 
      1      -2.0572      1.00000
      2      -2.0572      1.00000
      3       2.2762      1.00000
      4       2.2762      1.00000
      5       7.6006      0.00000
      6       7.6006      0.00000
      7      13.3652      0.00000
      8      13.3652      0.00000
      9      16.0669      0.00000
     10      16.0669      0.00000
     11      18.3337      0.00000
     12      18.3338      0.00000

 k-point  29 :      -0.2500    0.5000    0.2500
  band No.  band energies     occupation 
      1      -1.9765      1.00000
      2      -1.9765      1.00000
      3       1.8545      1.00000
      4       1.8545      1.00000
      5       9.8847      0.00000
      6       9.8847      0.00000
      7      10.5451      0.00000
      8      10.5451      0.00000
      9      16.0645      0.00000
     10      16.0645      0.00000
     11      18.4830      0.00000
     12      18.4830      0.00000


--------------------------------------------------------------------------------------------------------


 soft charge-density along one line, spin component           1
         0         1         2         3         4         5         6         7         8         9
 total charge-density along one line
 
 soft charge-density along one line, spin component           2
         0         1         2         3         4         5         6         7         8         9
 total charge-density along one line
 
 pseudopotential strength for first ion, spin component:           1
 18.437  -0.001   0.000  -0.000   0.000  -0.000   0.000  -0.000
 -0.001   0.006  -0.000   0.000  -0.000   0.000  -0.000   0.000
  0.000  -0.000   4.181   0.000   0.000  -0.004  -0.000  -0.000
 -0.000   0.000   0.000   4.181   0.000  -0.000  -0.004  -0.000
  0.000  -0.000   0.000   0.000   4.181  -0.000  -0.000  -0.004
 -0.000   0.000  -0.004  -0.000  -0.000   0.005   0.000   0.000
  0.000  -0.000  -0.000  -0.004  -0.000   0.000   0.005   0.000
 -0.000   0.000  -0.000  -0.000  -0.004   0.000   0.000   0.005
 pseudopotential strength for first ion, spin component:           2
 18.437  -0.001   0.000  -0.000   0.000  -0.000   0.000  -0.000
 -0.001   0.006  -0.000   0.000  -0.000   0.000  -0.000   0.000
  0.000  -0.000   4.181   0.000   0.000  -0.004  -0.000  -0.000
 -0.000   0.000   0.000   4.181   0.000  -0.000  -0.004  -0.000
  0.000  -0.000   0.000   0.000   4.181  -0.000  -0.000  -0.004
 -0.000   0.000  -0.004  -0.000  -0.000   0.005   0.000   0.000
  0.000  -0.000  -0.000  -0.004  -0.000   0.000   0.005   0.000
 -0.000   0.000  -0.000  -0.000  -0.004   0.000   0.000   0.005
 total augmentation occupancy for first ion, spin component:           1
  1.494  -0.759   0.000   0.000   0.000  -0.000  -0.000  -0.000
 -0.759   0.745   0.000   0.000   0.000   0.000  -0.000  -0.000
 -0.000  -0.000   1.017   0.000  -0.000  -0.547  -0.000   0.000
 -0.000   0.000   0.000   1.017   0.000  -0.000  -0.547  -0.000
  0.000   0.000  -0.000   0.000   1.017   0.000  -0.000  -0.547
  0.000   0.000  -0.547  -0.000   0.000   0.349   0.000  -0.000
 -0.000  -0.000  -0.000  -0.547  -0.000   0.000   0.349   0.000
 -0.000  -0.000   0.000  -0.000  -0.547  -0.000   0.000   0.349
 total augmentation occupancy for first ion, spin component:           2
  0.000   0.000   0.000   0.000   0.000   0.000   0.000  -0.000
  0.000  -0.000  -0.000   0.000   0.000  -0.000  -0.000  -0.000
  0.000  -0.000  -0.000  -0.000   0.000  -0.000  -0.000   0.000
 -0.000   0.000  -0.000  -0.000  -0.000  -0.000  -0.000  -0.000
  0.000   0.000   0.000  -0.000  -0.000   0.000  -0.000  -0.000
 -0.000  -0.000  -0.000  -0.000   0.000   0.000   0.000  -0.000
  0.000  -0.000  -0.000  -0.000  -0.000   0.000   0.000   0.000
 -0.000  -0.000   0.000  -0.000  -0.000  -0.000   0.000   0.000


------------------------ aborting loop because EDIFF is reached ----------------------------------------


 


 total charge     
 
# of ion     s       p       d       tot
----------------------------------------
  1        0.750   0.928   0.000   1.679
  2        0.750   0.928   0.000   1.679
------------------------------------------------
tot        1.501   1.857   0.000   3.358
 


 magnetization (x)
 
# of ion     s       p       d       tot
----------------------------------------
  1       -0.000   0.000   0.000   0.000
  2       -0.000   0.000   0.000  -0.000
------------------------------------------------
tot       -0.000   0.000   0.000  -0.000
 


--------------------------------------------------------------------------------------------------------



  FREE ENERGIE OF THE ION-ELECTRON SYSTEM (eV)
  ---------------------------------------------------
  free  energy   TOTEN  =       -10.846877 eV

  energy  without entropy=      -10.846877  energy(sigma->0) =      -10.846877
 
    CHARGE:  cpu time    0.02: real time    0.02
    FORLOC:  cpu time    0.00: real time    0.00
    FORNL :  cpu time    0.16: real time    0.16
    STRESS:  cpu time    0.47: real time    0.48
    FORCOR:  cpu time    0.03: real time    0.03
    FORHAR:  cpu time    0.00: real time    0.00
    MIXING:  cpu time    0.00: real time    0.00

  FORCE on cell =-STRESS in cart. coord.  units (eV):
  Direction    XX          YY          ZZ          XY          YZ          ZX
  --------------------------------------------------------------------------------------
  Alpha Z     3.29218     3.29218     3.29218
  Ewald     -75.64074   -75.64074   -75.64070     0.00002    -0.00001    -0.00001
  Hartree     5.06252     5.06252     5.06252     0.00000    -0.00000    -0.00000
  E(xc)     -25.24638   -25.24638   -25.24638    -0.00000     0.00000     0.00000
  Local     -29.51873   -29.51873   -29.51873    -0.00000     0.00001     0.00001
  n-local    73.79326    77.13427    81.35220    -0.94218    -0.70965    -0.01028
  augment   -11.64193   -11.64193   -11.64194    -0.00000    -0.00000    -0.00001
  Kinetic    53.01903    55.08159    60.66784     0.82706     1.03611    -0.53841
  Fock        0.00000     0.00000     0.00000     0.00000     0.00000     0.00000
  -------------------------------------------------------------------------------------
  Total      -0.01034    -0.01034    -0.01034     0.00000    -0.00000    -0.00000
  in kB      -0.40487    -0.40487    -0.40487     0.00000    -0.00000    -0.00000
  external pressure =       -0.40 kB  Pullay stress =        0.00 kB


 VOLUME and BASIS-vectors are now :
 -----------------------------------------------------------------------------
  energy-cutoff  :      520.00
  volume of cell :       40.90
      direct lattice vectors                 reciprocal lattice vectors
     3.349235533 -0.000000001  1.933682063     0.298575598 -0.105562386 -0.000000000
     1.116411507  3.157689442  1.933682063     0.000000000  0.316687255 -0.000000000
     0.000000004  0.000000003  3.867363111    -0.149287838 -0.105562462  0.258574117

  length of vectors
     3.867364086  3.867363907  3.867363111     0.316687235  0.316687255  0.316687331


 FORCES acting on ions
    electron-ion (+dipol)            ewald-force                    non-local-force                 convergence-correction
 -----------------------------------------------------------------------------------------------
   0.120E-04 0.484E-05 -.850E-05   -.205E-04 -.828E-05 0.145E-04   0.111E-15 -.137E-15 -.146E-15   0.452E-06 0.320E-06 0.611E-08
   -.120E-04 -.484E-05 0.850E-05   0.205E-04 0.828E-05 -.145E-04   -.445E-16 -.814E-16 0.763E-16   -.452E-06 -.320E-06 -.611E-08
 -----------------------------------------------------------------------------------------------
   0.169E-12 -.794E-13 -.491E-13   -.251E-16 -.153E-16 0.183E-15   0.665E-16 -.219E-15 -.694E-16   -.701E-15 0.192E-14 -.361E-15
 
 
 POSITION                                       TOTAL-FORCE (eV/Angst)
 -----------------------------------------------------------------------------------
      3.90744      2.76298      6.76789        -0.000000      0.000000      0.000000
      0.55821      0.39471      0.96684         0.000000     -0.000000     -0.000000
 -----------------------------------------------------------------------------------
    total drift:                                0.000000     -0.000000     -0.000000


--------------------------------------------------------------------------------------------------------


    POTLOK:  cpu time    0.03: real time    0.03


--------------------------------------------------------------------------------------------------------


  FORCES: max atom, RMS     0.000000    0.000000
  FORCE total and by dimension    0.000000    0.000000


--------------------------------------------------------------------------------------------------------


  
 reached required accuracy - stopping structural energy minimisation
     LOOP+:  cpu time    4.30: real time    4.59
    4ORBIT:  cpu time    0.00: real time    0.00
 


 total charge     
 
# of ion     s       p       d       tot
----------------------------------------
  1        0.750   0.928   0.000   1.679
  2        0.750   0.928   0.000   1.679
------------------------------------------------
tot        1.501   1.857   0.000   3.358
 


 magnetization (x)
 
# of ion     s       p       d       tot
----------------------------------------
  1       -0.000   0.000   0.000   0.000
  2       -0.000   0.000   0.000  -0.000
------------------------------------------------
tot       -0.000   0.000   0.000  -0.000
 
 BZINTS: Fermi energy:  5.643877;  8.000000 electrons
         Band energy:   4.917478;  BLOECHL correction:  0.000000

 total amount of memory used by VASP on root node  36765. kBytes
========================================================================

   base      :    30000. kBytes
   nonlr-proj:      375. kBytes
   fftplans  :      700. kBytes
   grid      :     4872. kBytes
   one-center:        6. kBytes
   wavefun   :      812. kBytes
 
  
  
 General timing and accounting informations for this job:
 ========================================================
  
                  Total CPU time used (sec):        5.394
                            User time (sec):        4.964
                          System time (sec):        0.430
                         Elapsed time (sec):        7.340
  
                   Maximum memory used (kb):       28096.
                   Average memory used (kb):           0.
  
                          Minor page faults:        15994
                          Major page faults:            7
                 Voluntary context switches:        13883
