 running on   16 nodes
 distr:  one band on    4 nodes,    4 groups
 vasp.5.2.2 15Apr09 complex
 POSCAR found type information on POSCAR  Si
 POSCAR found :  1 types and    2 ions

 -----------------------------------------------------------------------------
|                                                                             |
|  ADVICE TO THIS USER RUNNING 'VASP/VAMP'   (HEAR YOUR MASTER'S VOICE ...):  |
|                                                                             |
|      You have a (more or less) 'small supercell' and for smaller cells      |
|      it is recommended  to use the reciprocal-space projection scheme!      |
|      The real space optimization is not  efficient for small cells and it   |
|      is also less accurate ...                                              |
|      Therefore set LREAL=.FALSE. in the  INCAR file                         |
|                                                                             |
 -----------------------------------------------------------------------------

 LDA part: xc-table for Pade appr. of Perdew
 POSCAR, INCAR and KPOINTS ok, starting setup
 FFT: planning ...(           1 )
 reading WAVECAR
 charge-density read from file: unknown
 magnetization density read from file 1
 WARNING: random wavefunctions but no delay for mixing, default for NELMDL
 entering main loop
       N       E                     dE             d eps       ncg     rms          rms(c)
DAV:   1     0.482340968417E+01    0.48234E+01   -0.28645E+03  1392   0.498E+02
DAV:   2    -0.104226638671E+02   -0.15246E+02   -0.14844E+02  1824   0.765E+01
DAV:   3    -0.108438561374E+02   -0.42119E+00   -0.42021E+00  1812   0.108E+01
DAV:   4    -0.108468468748E+02   -0.29907E-02   -0.29904E-02  1612   0.115E+00
DAV:   5    -0.108468766594E+02   -0.29785E-04   -0.29784E-04  1828   0.107E-01    0.180E-03
RMM:   6    -0.108468770417E+02   -0.38230E-06   -0.30345E-06   659   0.128E-02
   1 F= -.10846877E+02 E0= -.10846877E+02  d E =-.108469E+02  mag=     0.0000
 curvature:   0.00 expect dE= 0.000E+00 dE for cont linesearch  0.000E+00
 trial: gam= 0.00000 g(F)=  0.449E-44 g(S)=  0.773E-05 ort = 0.000E+00 (trialstep = 0.100E+01)
 search vector abs. value=  0.773E-05
 reached required accuracy - stopping structural energy minimisation
