<?xml version="1.0" encoding="ISO-8859-1"?>
<modeling>
 <generator>
  <i name="program" type="string">vasp </i>
  <i name="version" type="string">5.2.2  </i>
  <i name="subversion" type="string">15Apr09 complex  parallel </i>
  <i name="platform" type="string">LinuxIFC </i>
  <i name="date" type="string">2016 04 11 </i>
  <i name="time" type="string">20:11:04 </i>
 </generator>
 <incar>
  <i type="int" name="ISTART">     1</i>
  <i type="string" name="PREC">accurate</i>
  <i type="string" name="ALGO"> Fast</i>
  <i type="int" name="ISPIN">     2</i>
  <i type="int" name="ICHARG">     1</i>
  <i type="int" name="NELM">   100</i>
  <i type="int" name="IBRION">     2</i>
  <i name="EDIFF">      0.00010000</i>
  <i type="int" name="NSW">    99</i>
  <i type="int" name="ISIF">     3</i>
  <i name="ENCUT">    520.00000000</i>
  <v name="MAGMOM">      0.60000000      0.60000000</v>
  <i type="string" name="LREAL"> Auto</i>
  <i type="int" name="ISMEAR">    -5</i>
  <i name="SIGMA">      0.05000000</i>
  <i type="logical" name="LWAVE"> F  </i>
  <i type="logical" name="LORBIT"> F  </i>
  <i type="int" name="NELM">   100</i>
  <i type="logical" name="LPEAD"> F  </i>
  <i type="logical" name="LCALCPOL"> F  </i>
  <i type="logical" name="LCALCEPS"> F  </i>
  <v name="EFIELD_PEAD">      0.00000000      0.00000000      0.00000000</v>
  <i type="logical" name="LEFG"> F  </i>
 </incar>
 <kpoints>
  <generation param="Gamma">
   <v type="int" name="divisions">       8        8        8 </v>
   <v name="usershift">      0.00000000       0.00000000       0.00000000 </v>
   <v name="genvec1">      0.12500000      -0.00000000      -0.00000000 </v>
   <v name="genvec2">      0.00000000       0.12500000       0.00000000 </v>
   <v name="genvec3">      0.00000000       0.00000000       0.12500000 </v>
   <v name="shift">      0.00000000       0.00000000       0.00000000 </v>
  </generation>
  <varray name="kpointlist" >
   <v>       0.00000000       0.00000000       0.00000000 </v>
   <v>       0.12500000      -0.00000000      -0.00000000 </v>
   <v>       0.25000000      -0.00000000      -0.00000000 </v>
   <v>       0.37500000      -0.00000000      -0.00000000 </v>
   <v>       0.50000000      -0.00000000      -0.00000000 </v>
   <v>       0.12500000       0.12500000      -0.00000000 </v>
   <v>       0.25000000       0.12500000      -0.00000000 </v>
   <v>       0.37500000       0.12500000      -0.00000000 </v>
   <v>       0.50000000       0.12500000      -0.00000000 </v>
   <v>      -0.37500000       0.12500000       0.00000000 </v>
   <v>      -0.25000000       0.12500000       0.00000000 </v>
   <v>      -0.12500000       0.12500000       0.00000000 </v>
   <v>       0.25000000       0.25000000      -0.00000000 </v>
   <v>       0.37500000       0.25000000      -0.00000000 </v>
   <v>       0.50000000       0.25000000      -0.00000000 </v>
   <v>      -0.37500000       0.25000000       0.00000000 </v>
   <v>      -0.25000000       0.25000000       0.00000000 </v>
   <v>       0.37500000       0.37500000      -0.00000000 </v>
   <v>       0.50000000       0.37500000      -0.00000000 </v>
   <v>      -0.37500000       0.37500000       0.00000000 </v>
   <v>       0.50000000       0.50000000      -0.00000000 </v>
   <v>       0.37500000       0.25000000       0.12500000 </v>
   <v>       0.50000000       0.25000000       0.12500000 </v>
   <v>      -0.37500000       0.25000000       0.12500000 </v>
   <v>       0.50000000       0.37500000       0.12500000 </v>
   <v>      -0.37500000       0.37500000       0.12500000 </v>
   <v>      -0.25000000       0.37500000       0.12500000 </v>
   <v>      -0.37500000       0.50000000       0.12500000 </v>
   <v>      -0.25000000       0.50000000       0.25000000 </v>
  </varray>
  <varray name="weights" >
   <v>       0.00195312 </v>
   <v>       0.01562500 </v>
   <v>       0.01562500 </v>
   <v>       0.01562500 </v>
   <v>       0.00781250 </v>
   <v>       0.01171875 </v>
   <v>       0.04687500 </v>
   <v>       0.04687500 </v>
   <v>       0.04687500 </v>
   <v>       0.04687500 </v>
   <v>       0.04687500 </v>
   <v>       0.02343750 </v>
   <v>       0.01171875 </v>
   <v>       0.04687500 </v>
   <v>       0.04687500 </v>
   <v>       0.04687500 </v>
   <v>       0.02343750 </v>
   <v>       0.01171875 </v>
   <v>       0.04687500 </v>
   <v>       0.02343750 </v>
   <v>       0.00585938 </v>
   <v>       0.04687500 </v>
   <v>       0.09375000 </v>
   <v>       0.04687500 </v>
   <v>       0.04687500 </v>
   <v>       0.09375000 </v>
   <v>       0.04687500 </v>
   <v>       0.02343750 </v>
   <v>       0.01171875 </v>
  </varray>
  <varray name="tetrahedronlist"  type="int" >
   <v type="int" >       24        1        2        2        6 </v>
   <v type="int" >       48        2        6        7       12 </v>
   <v type="int" >       48        2        3        7       12 </v>
   <v type="int" >       24        2        2        6       12 </v>
   <v type="int" >       48        3        7        8       11 </v>
   <v type="int" >       48        3        4        8       11 </v>
   <v type="int" >       48        3        7       11       12 </v>
   <v type="int" >       48        4        8        9       10 </v>
   <v type="int" >       48        4        5        9       10 </v>
   <v type="int" >       48        4        8       10       11 </v>
   <v type="int" >       48        5        9        9       10 </v>
   <v type="int" >       24        6        7        7       13 </v>
   <v type="int" >       24        6        7        7       12 </v>
   <v type="int" >       48        7       13       14       22 </v>
   <v type="int" >       48        7        8       14       22 </v>
   <v type="int" >       48        7        8       11       22 </v>
   <v type="int" >       24        7        7       13       22 </v>
   <v type="int" >       24        7        7       12       22 </v>
   <v type="int" >       48        7       11       12       22 </v>
   <v type="int" >       48        8       14       15       23 </v>
   <v type="int" >       48        8        9       15       23 </v>
   <v type="int" >       48        8        9       10       23 </v>
   <v type="int" >       48        8       14       22       23 </v>
   <v type="int" >       48        8       11       22       23 </v>
   <v type="int" >       48        8       10       11       23 </v>
   <v type="int" >       48        9       15       16       24 </v>
   <v type="int" >       48        9       10       16       24 </v>
   <v type="int" >       48        9        9       10       24 </v>
   <v type="int" >       48        9       15       23       24 </v>
   <v type="int" >       48        9       10       23       24 </v>
   <v type="int" >       48       10       16       17       23 </v>
   <v type="int" >       48       10       11       17       23 </v>
   <v type="int" >       48       10       16       23       24 </v>
   <v type="int" >       24       11       11       17       22 </v>
   <v type="int" >       24       11       11       12       22 </v>
   <v type="int" >       48       11       17       22       23 </v>
   <v type="int" >       24       13       14       14       18 </v>
   <v type="int" >       24       13       14       14       22 </v>
   <v type="int" >       48       14       18       19       25 </v>
   <v type="int" >       48       14       15       19       25 </v>
   <v type="int" >       48       14       15       23       25 </v>
   <v type="int" >       24       14       14       18       25 </v>
   <v type="int" >       24       14       14       22       25 </v>
   <v type="int" >       48       14       22       23       25 </v>
   <v type="int" >       48       15       19       20       26 </v>
   <v type="int" >       48       15       16       20       26 </v>
   <v type="int" >       48       15       16       24       26 </v>
   <v type="int" >       48       15       19       25       26 </v>
   <v type="int" >       48       15       23       25       26 </v>
   <v type="int" >       48       15       23       24       26 </v>
   <v type="int" >       24       16       16       20       27 </v>
   <v type="int" >       24       16       16       17       27 </v>
   <v type="int" >       48       16       17       23       27 </v>
   <v type="int" >       48       16       20       26       27 </v>
   <v type="int" >       48       16       24       26       27 </v>
   <v type="int" >       48       16       23       24       27 </v>
   <v type="int" >       24       17       23       23       27 </v>
   <v type="int" >       24       17       22       23       23 </v>
   <v type="int" >       24       18       19       19       21 </v>
   <v type="int" >       24       18       19       19       25 </v>
   <v type="int" >       48       19       19       21       28 </v>
   <v type="int" >       24       19       19       20       28 </v>
   <v type="int" >       48       19       20       26       28 </v>
   <v type="int" >       24       19       19       25       28 </v>
   <v type="int" >       48       19       25       26       28 </v>
   <v type="int" >       24       20       26       26       28 </v>
   <v type="int" >       24       20       26       26       27 </v>
   <v type="int" >       24       22       23       23       25 </v>
   <v type="int" >       48       23       25       26       27 </v>
   <v type="int" >       48       23       24       26       27 </v>
   <v type="int" >       24       23       23       25       27 </v>
   <v type="int" >       48       24       26       26       27 </v>
   <v type="int" >       24       25       26       26       28 </v>
   <v type="int" >       24       25       26       26       27 </v>
   <v type="int" >       48       26       26       28       29 </v>
   <v type="int" >       96       26       26       27       29 </v>
  </varray>
  <i name="volumeweight">      0.00032552 </i>
 </kpoints>
 <parameters>
  <separator name="general" >
   <i type="string" name="SYSTEM">unknown system</i>
   <i type="logical" name="LCOMPAT"> F  </i>
  </separator>
  <separator name="electronic" >
   <i type="string" name="PREC">accura</i>
   <i name="ENMAX">    520.00000000</i>
   <i name="ENAUG">    322.06900000</i>
   <i name="EDIFF">      0.00010000</i>
   <i type="int" name="IALGO">    68</i>
   <i type="int" name="IWAVPR">    11</i>
   <i type="int" name="NBANDS">    12</i>
   <i name="NELECT">      8.00000000</i>
   <separator name="electronic smearing" >
    <i type="int" name="ISMEAR">    -5</i>
    <i name="SIGMA">      0.05000000</i>
   </separator>
   <separator name="electronic projectors" >
    <i type="logical" name="LREAL"> T  </i>
    <v name="ROPT">     -0.00025000</v>
    <i type="int" name="LMAXPAW">  -100</i>
    <i type="int" name="LMAXMIX">     2</i>
   </separator>
   <separator name="electronic startup" >
    <i type="int" name="ISTART">     0</i>
    <i type="int" name="ICHARG">     1</i>
    <i type="int" name="INIWAV">     1</i>
   </separator>
   <separator name="electronic spin" >
    <i type="int" name="ISPIN">     2</i>
    <i type="logical" name="LNONCOLLINEAR"> F  </i>
    <v name="MAGMOM">      0.60000000      0.60000000</v>
    <i name="NUPDOWN">     -1.00000000</i>
    <i type="logical" name="LSORBIT"> F  </i>
    <v name="SAXIS">      0.00000000      0.00000000      1.00000000</v>
    <i type="logical" name="LSPIRAL"> F  </i>
    <v name="QSPIRAL">      0.00000000      0.00000000      0.00000000</v>
    <i type="logical" name="LZEROZ"> F  </i>
   </separator>
   <separator name="electronic exchange-correlation" >
    <i type="logical" name="LASPH"> F  </i>
    <i type="logical" name="LMETAGGA"> F  </i>
   </separator>
   <separator name="electronic convergence" >
    <i type="int" name="NELM">   100</i>
    <i type="int" name="NELMDL">     0</i>
    <i type="int" name="NELMIN">     2</i>
    <i name="ENINI">    520.00000000</i>
    <separator name="electronic convergence detail" >
     <i type="logical" name="LDIAG"> T  </i>
     <i name="WEIMIN">      0.00100000</i>
     <i name="EBREAK">      0.00000278</i>
     <i name="DEPER">      0.30000000</i>
     <i type="int" name="NRMM">     4</i>
     <i name="TIME">      0.40000000</i>
    </separator>
   </separator>
   <separator name="electronic mixer" >
    <i name="AMIX">      0.40000000</i>
    <i name="BMIX">      1.00000000</i>
    <i name="AMIN">      0.10000000</i>
    <i name="AMIX_MAG">      1.60000000</i>
    <i name="BMIX_MAG">      1.00000000</i>
    <separator name="electronic mixer details" >
     <i type="int" name="IMIX">     4</i>
     <i type="int" name="MAXMIX">   -45</i>
     <i name="WC">    100.00000000</i>
     <i type="int" name="INIMIX">     1</i>
     <i type="int" name="MIXPRE">     1</i>
     <i type="int" name="MREMOVE">     5</i>
    </separator>
   </separator>
   <separator name="electronic dipolcorrection" >
    <i type="logical" name="LDIPOL"> F  </i>
    <i type="logical" name="LMONO"> F  </i>
    <i type="int" name="IDIPOL">     0</i>
    <i name="EPSILON">      1.00000000</i>
    <v name="DIPOL">   -100.00000000   -100.00000000   -100.00000000</v>
    <i name="EFIELD">      0.00000000</i>
   </separator>
  </separator>
  <separator name="grids" >
   <i type="int" name="NGX">    30</i>
   <i type="int" name="NGY">    30</i>
   <i type="int" name="NGZ">    30</i>
   <i type="int" name="NGXF">    60</i>
   <i type="int" name="NGYF">    60</i>
   <i type="int" name="NGZF">    60</i>
   <i type="logical" name="ADDGRID"> F  </i>
  </separator>
  <separator name="ionic" >
   <i type="int" name="NSW">    99</i>
   <i type="int" name="IBRION">     2</i>
   <i type="int" name="ISIF">     3</i>
   <i name="PSTRESS">      0.00000000</i>
   <i name="EDIFFG">      0.00100000</i>
   <i type="int" name="NFREE">     1</i>
   <i name="POTIM">      0.50000000</i>
   <i name="SMASS">     -3.00000000</i>
  </separator>
  <separator name="ionic md" >
   <i name="TEBEG">      0.00010000</i>
   <i name="TEEND">      0.00010000</i>
   <i type="int" name="NBLOCK">     1</i>
   <i type="int" name="KBLOCK">    99</i>
   <i type="int" name="NPACO">   256</i>
   <i name="APACO">     16.00000000</i>
  </separator>
  <separator name="symmetry" >
   <i type="int" name="ISYM">     2</i>
   <i name="SYMPREC">      0.00001000</i>
  </separator>
  <separator name="dos" >
   <i type="logical" name="LORBIT"> F  </i>
   <v name="RWIGS">     -1.00000000</v>
   <i type="int" name="NEDOS">   301</i>
   <i name="EMIN">     10.00000000</i>
   <i name="EMAX">    -10.00000000</i>
   <i name="EFERMI">      0.00000000</i>
  </separator>
  <separator name="writing" >
   <i type="int" name="NWRITE">     2</i>
   <i type="logical" name="LWAVE"> F  </i>
   <i type="logical" name="LCHARG"> T  </i>
   <i type="logical" name="LPARD"> F  </i>
   <i type="logical" name="LVTOT"> F  </i>
   <i type="logical" name="LELF"> F  </i>
   <i type="logical" name="LOPTICS"> F  </i>
   <v name="STM">      0.00000000      0.00000000      0.00000000      0.00000000      0.00000000</v>
  </separator>
  <separator name="performance" >
   <i type="int" name="NPAR">     4</i>
   <i type="int" name="NSIM">     4</i>
   <i type="int" name="NBLK">    32</i>
   <i type="logical" name="LPLANE"> T  </i>
   <i type="logical" name="LSCALAPACK"> F  </i>
   <i type="logical" name="LSCAAWARE"> F  </i>
   <i type="logical" name="LSCALU"> F  </i>
   <i type="logical" name="LASYNC"> F  </i>
  </separator>
  <separator name="miscellaneous" >
   <i type="int" name="IDIOT">     3</i>
   <i type="logical" name="LMUSIC"> F  </i>
   <v name="POMASS">     28.08500000</v>
   <i type="logical" name="LCORR"> T  </i>
  </separator>
  <i type="logical" name="LREAL_COMPAT"> F  </i>
  <i type="logical" name="GGA_COMPAT"> T  </i>
  <i type="logical" name="LBERRY"> F  </i>
  <i type="int" name="ICORELEVEL">     0</i>
  <i type="logical" name="LDAU"> F  </i>
  <i type="int" name="I_CONSTRAINED_M">     0</i>
  <separator name="electronic exchange-correlation" >
   <i type="string" name="GGA">--</i>
   <i type="int" name="VOSKOWN">     0</i>
   <i type="logical" name="LHFCALC"> F  </i>
   <i type="logical" name="LHFONE"> F  </i>
   <i type="logical" name="LRHFCALC"> F  </i>
   <i type="logical" name="LTHOMAS"> F  </i>
   <i type="logical" name="LMODELHF"> F  </i>
   <i name="ENCUTFOCK">      0.00000000</i>
   <i name="ENCUT4O">     -1.00000000</i>
   <i type="int" name="EXXOEP">     0</i>
   <i type="int" name="FOURORBIT">     0</i>
   <i name="AEXX">      0.00000000</i>
   <i name="HFALPHA">      0.00000000</i>
   <i name="ALDAX">      1.00000000</i>
   <i name="AGGAX">      1.00000000</i>
   <i name="ALDAC">      1.00000000</i>
   <i name="AGGAC">      1.00000000</i>
   <i type="int" name="NKREDX">     1</i>
   <i type="int" name="NKREDY">     1</i>
   <i type="int" name="NKREDZ">     1</i>
   <i type="logical" name="SHIFTRED"> F  </i>
   <i type="logical" name="ODDONLY"> F  </i>
   <i type="logical" name="EVENONLY"> F  </i>
   <i type="int" name="LMAXFOCK">     0</i>
   <i type="int" name="NMAXFOCKAE">     0</i>
   <i name="HFSCREEN">      0.00000000</i>
   <i name="HFSCREENC">      0.00000000</i>
  </separator>
  <separator name="model GW" >
   <i type="int" name="MODEL_GW">     0</i>
   <i name="MODEL_EPS0">     12.27019063</i>
   <i name="MODEL_ALPHA">      1.00000000</i>
  </separator>
  <separator name="linear response parameters" >
   <i type="logical" name="LEPSILON"> F  </i>
   <i type="logical" name="LRPA"> F  </i>
   <i type="logical" name="LNABLA"> F  </i>
   <i type="logical" name="LVEL"> F  </i>
   <i type="int" name="KINTER">     0</i>
   <i name="CSHIFT">      0.10000000</i>
   <i name="OMEGAMAX">     -1.00000000</i>
  </separator>
  <separator name="orbital magnetization" >
   <i type="logical" name="ORBITALMAG"> F  </i>
   <i type="logical" name="LMAGBLOCH"> F  </i>
   <i type="logical" name="LCHIMAG"> F  </i>
   <i type="logical" name="LGAUGE"> T  </i>
   <i type="int" name="MAGATOM">     0</i>
   <v name="MAGDIPOL">      0.00000000      0.00000000      0.00000000</v>
   <v name="AVECCONST">      0.00000000      0.00000000      0.00000000</v>
  </separator>
  <separator name="response functions" >
   <i type="logical" name="LRPA"> T  </i>
   <i type="logical" name="LTCTE"> F  </i>
   <i type="logical" name="LTETE"> F  </i>
   <i type="logical" name="L2ORDER"> F  </i>
   <i type="logical" name="LGWLF"> F  </i>
   <i name="ENCUTGW">    346.66666667</i>
   <i name="ENCUTGWSOFT">     -2.00000000</i>
   <i name="ENCUTLF">     -1.00000000</i>
   <i type="int" name="LMAXMP2">    -1</i>
   <i name="SCISSOR">      0.00000000</i>
   <i type="int" name="NOMEGA">     0</i>
   <i type="int" name="NOMEGAR">     0</i>
   <i type="int" name="NBANDSGW">    -1</i>
   <i type="int" name="NBANDSLF">    -1</i>
   <i type="int" name="NELM">   100</i>
   <i type="int" name="DIM">     3</i>
   <i type="int" name="ANTIRES">     0</i>
   <i type="logical" name="LUSEW"> F  </i>
   <i name="OMEGAMAX">    -30.00000000</i>
   <i name="OMEGATL">   -200.00000000</i>
   <i type="int" name="OMEGAGRID">     0</i>
   <i name="CSHIFT">     -0.10000000</i>
   <i type="logical" name="SELFENERGY"> F  </i>
   <i type="logical" name="LSPECTRAL"> F  </i>
   <i type="logical" name="ODDONLYGW"> F  </i>
   <i type="logical" name="EVENONLYGW"> F  </i>
   <i type="int" name="NKREDLFX">     1</i>
   <i type="int" name="NKREDLFY">     1</i>
   <i type="int" name="NKREDLFZ">     1</i>
   <i type="int" name="MAXMEM">  1024</i>
   <i type="int" name="TELESCOPE">     0</i>
  </separator>
 </parameters>
 <atominfo>
  <atoms>       2 </atoms>
  <types>       1 </types>
  <array name="atoms" >
   <dimension dim="1">ion</dimension>
   <field type="string">element</field>
   <field type="int">atomtype</field>
   <set>
    <rc><c>Si</c><c>   1</c></rc>
    <rc><c>Si</c><c>   1</c></rc>
   </set>
  </array>
  <array name="atomtypes" >
   <dimension dim="1">type</dimension>
   <field type="int">atomspertype</field>
   <field type="string">element</field>
   <field>mass</field>
   <field>valence</field>
   <field type="string">pseudopotential</field>
   <set>
    <rc><c>   2</c><c>Si</c><c>     28.08500000</c><c>      4.00000000</c><c> PAW_PBE Si 05Jan2001                   </c></rc>
   </set>
  </array>
 </atominfo>
 <structure name="initialpos" >
  <crystal>
   <varray name="basis" >
    <v>       3.34923553      -0.00000000       1.93368206 </v>
    <v>       1.11641151       3.15768944       1.93368206 </v>
    <v>       0.00000000       0.00000000       3.86736311 </v>
   </varray>
   <i name="volume">     40.90063542 </i>
   <varray name="rec_basis" >
    <v>       0.29857560      -0.10556239      -0.00000000 </v>
    <v>       0.00000000       0.31668725      -0.00000000 </v>
    <v>      -0.14928784      -0.10556246       0.25857412 </v>
   </varray>
  </crystal>
  <varray name="positions" >
   <v>       0.87500000       0.87500000       0.87500000 </v>
   <v>       0.12500000       0.12500000       0.12500000 </v>
  </varray>
 </structure>
 <calculation>
  <scstep>
   <time name="dav">    0.51    0.61</time>
   <time name="total">    0.55    0.68</time>
   <energy>
    <i name="alphaZ">      3.29218146 </i>
    <i name="ewald">   -226.92207139 </i>
    <i name="hartreedc">    -15.18836144 </i>
    <i name="XCdc">    -18.06044555 </i>
    <i name="pawpsdc">     73.60550753 </i>
    <i name="pawaedc">    -38.62398199 </i>
    <i name="eentropy">      0.00000000 </i>
    <i name="bandstr">     20.58787834 </i>
    <i name="atom">    206.13270273 </i>
    <i name="e_fr_energy">      4.82340968 </i>
    <i name="e_wo_entrp">      4.82340968 </i>
    <i name="e_0_energy">      4.82340968 </i>
   </energy>
  </scstep>
  <scstep>
   <time name="dav">    0.57    0.59</time>
   <time name="total">    0.57    0.59</time>
   <energy>
    <i name="e_fr_energy">    -10.42266387 </i>
    <i name="e_wo_entrp">    -10.42266387 </i>
    <i name="e_0_energy">    -10.42266387 </i>
   </energy>
  </scstep>
  <scstep>
   <time name="dav">    0.56    0.56</time>
   <time name="total">    0.56    0.56</time>
   <energy>
    <i name="e_fr_energy">    -10.84385614 </i>
    <i name="e_wo_entrp">    -10.84385614 </i>
    <i name="e_0_energy">    -10.84385614 </i>
   </energy>
  </scstep>
  <scstep>
   <time name="dav">    0.51    0.52</time>
   <time name="total">    0.51    0.52</time>
   <energy>
    <i name="e_fr_energy">    -10.84684687 </i>
    <i name="e_wo_entrp">    -10.84684687 </i>
    <i name="e_0_energy">    -10.84684687 </i>
   </energy>
  </scstep>
  <scstep>
   <time name="dav">    0.56    0.56</time>
   <time name="total">    0.59    0.63</time>
   <energy>
    <i name="e_fr_energy">    -10.84687666 </i>
    <i name="e_wo_entrp">    -10.84687666 </i>
    <i name="e_0_energy">    -10.84687666 </i>
   </energy>
  </scstep>
  <scstep>
   <time name="diag">    0.10    0.10</time>
   <time name="diis">    0.20    0.20</time>
   <time name="orth">    0.00    0.00</time>
   <time name="total">    0.33    0.34</time>
   <energy>
    <i name="alphaZ">      3.29218146 </i>
    <i name="ewald">   -226.92207139 </i>
    <i name="hartreedc">    -15.18811995 </i>
    <i name="XCdc">    -18.06044066 </i>
    <i name="pawpsdc">     73.60766861 </i>
    <i name="pawaedc">    -38.62627583 </i>
    <i name="eentropy">      0.00000000 </i>
    <i name="bandstr">      4.91747800 </i>
    <i name="atom">    206.13270273 </i>
    <i name="e_fr_energy">    -10.84687704 </i>
    <i name="e_wo_entrp">    -10.84687704 </i>
    <i name="e_0_energy">    -10.84687704 </i>
   </energy>
  </scstep>
  <structure>
   <crystal>
    <varray name="basis" >
     <v>       3.34923553      -0.00000000       1.93368206 </v>
     <v>       1.11641151       3.15768944       1.93368206 </v>
     <v>       0.00000000       0.00000000       3.86736311 </v>
    </varray>
    <i name="volume">     40.90063542 </i>
    <varray name="rec_basis" >
     <v>       0.29857560      -0.10556239      -0.00000000 </v>
     <v>       0.00000000       0.31668725      -0.00000000 </v>
     <v>      -0.14928784      -0.10556246       0.25857412 </v>
    </varray>
   </crystal>
   <varray name="positions" >
    <v>       0.87500000       0.87500000       0.87500000 </v>
    <v>       0.12500000       0.12500000       0.12500000 </v>
   </varray>
  </structure>
  <varray name="forces" >
   <v>      -0.00000000       0.00000000       0.00000000 </v>
   <v>       0.00000000      -0.00000000      -0.00000000 </v>
  </varray>
  <varray name="stress" >
   <v>      -0.40487030       0.00000004      -0.00000006 </v>
   <v>       0.00000004      -0.40487027      -0.00000004 </v>
   <v>      -0.00000006      -0.00000004      -0.40487009 </v>
  </varray>
  <energy>
   <i name="e_fr_energy">    -10.84687704 </i>
   <i name="e_wo_entrp">    -10.84687704 </i>
   <i name="e_0_energy">      0.00000000 </i>
  </energy>
  <time name="totalsc">    4.30    4.59</time>
  <eigenvalues>
   <array>
    <dimension dim="1">band</dimension>
    <dimension dim="2">kpoint</dimension>
    <dimension dim="3">spin</dimension>
    <field>eigene</field>
    <field>occ</field>
    <set>
     <set comment="spin 1">
      <set comment="kpoint 1">
       <r>   -6.1986    1.0000 </r>
       <r>    5.6146    1.0000 </r>
       <r>    5.6146    1.0000 </r>
       <r>    5.6146    1.0000 </r>
       <r>    8.1707    0.0000 </r>
       <r>    8.1707    0.0000 </r>
       <r>    8.1707    0.0000 </r>
       <r>    8.7451    0.0000 </r>
       <r>   13.3228    0.0000 </r>
       <r>   13.3228    0.0000 </r>
       <r>   13.4916    0.0000 </r>
       <r>   16.7952    0.0000 </r>
      </set>
      <set comment="kpoint 2">
       <r>   -5.9982    1.0000 </r>
       <r>    4.0238    1.0000 </r>
       <r>    5.3322    1.0000 </r>
       <r>    5.3322    1.0000 </r>
       <r>    8.0565    0.0000 </r>
       <r>    8.5861    0.0000 </r>
       <r>    8.5861    0.0000 </r>
       <r>   10.1449    0.0000 </r>
       <r>   12.8501    0.0000 </r>
       <r>   12.8501    0.0000 </r>
       <r>   14.2671    0.0000 </r>
       <r>   16.2419    0.0000 </r>
      </set>
      <set comment="kpoint 3">
       <r>   -5.4139    1.0000 </r>
       <r>    1.7286    1.0000 </r>
       <r>    4.8696    1.0000 </r>
       <r>    4.8696    1.0000 </r>
       <r>    7.5728    0.0000 </r>
       <r>    9.1039    0.0000 </r>
       <r>    9.1040    0.0000 </r>
       <r>   12.3635    0.0000 </r>
       <r>   12.8010    0.0000 </r>
       <r>   12.8010    0.0000 </r>
       <r>   14.5436    0.0000 </r>
       <r>   17.3249    0.0000 </r>
      </set>
      <set comment="kpoint 4">
       <r>   -4.5396    1.0000 </r>
       <r>   -0.2553    1.0000 </r>
       <r>    4.5469    1.0000 </r>
       <r>    4.5469    1.0000 </r>
       <r>    7.2082    0.0000 </r>
       <r>    9.0671    0.0000 </r>
       <r>    9.0671    0.0000 </r>
       <r>   13.4516    0.0000 </r>
       <r>   14.1527    0.0000 </r>
       <r>   14.1527    0.0000 </r>
       <r>   15.1248    0.0000 </r>
       <r>   19.2398    0.0000 </r>
      </set>
      <set comment="kpoint 5">
       <r>   -3.9206    1.0000 </r>
       <r>   -1.2530    1.0000 </r>
       <r>    4.4363    1.0000 </r>
       <r>    4.4363    1.0000 </r>
       <r>    7.0800    0.0000 </r>
       <r>    8.9635    0.0000 </r>
       <r>    8.9636    0.0000 </r>
       <r>   13.3163    0.0000 </r>
       <r>   16.1085    0.0000 </r>
       <r>   16.1086    0.0000 </r>
       <r>   16.7986    0.0000 </r>
       <r>   16.8323    0.0000 </r>
      </set>
      <set comment="kpoint 6">
       <r>   -5.9306    1.0000 </r>
       <r>    4.2621    1.0000 </r>
       <r>    4.8282    1.0000 </r>
       <r>    4.8282    1.0000 </r>
       <r>    7.6297    0.0000 </r>
       <r>    9.2855    0.0000 </r>
       <r>    9.2855    0.0000 </r>
       <r>    9.8323    0.0000 </r>
       <r>   12.0980    0.0000 </r>
       <r>   13.6211    0.0000 </r>
       <r>   14.5615    0.0000 </r>
       <r>   17.2620    0.0000 </r>
      </set>
      <set comment="kpoint 7">
       <r>   -5.4706    1.0000 </r>
       <r>    2.4089    1.0000 </r>
       <r>    4.3259    1.0000 </r>
       <r>    4.3895    1.0000 </r>
       <r>    7.7592    0.0000 </r>
       <r>    9.2382    0.0000 </r>
       <r>   10.0410    0.0000 </r>
       <r>   10.3527    0.0000 </r>
       <r>   12.9733    0.0000 </r>
       <r>   13.7821    0.0000 </r>
       <r>   15.5489    0.0000 </r>
       <r>   17.1106    0.0000 </r>
      </set>
      <set comment="kpoint 8">
       <r>   -4.6723    1.0000 </r>
       <r>    0.3875    1.0000 </r>
       <r>    3.8063    1.0000 </r>
       <r>    4.0611    1.0000 </r>
       <r>    7.8422    0.0000 </r>
       <r>    9.2063    0.0000 </r>
       <r>   10.0554    0.0000 </r>
       <r>   11.0533    0.0000 </r>
       <r>   14.8830    0.0000 </r>
       <r>   14.8944    0.0000 </r>
       <r>   15.4033    0.0000 </r>
       <r>   18.8940    0.0000 </r>
      </set>
      <set comment="kpoint 9">
       <r>   -3.8336    1.0000 </r>
       <r>   -1.0425    1.0000 </r>
       <r>    3.3694    1.0000 </r>
       <r>    4.0830    1.0000 </r>
       <r>    7.7770    0.0000 </r>
       <r>    9.1026    0.0000 </r>
       <r>    9.7074    0.0000 </r>
       <r>   12.9181    0.0000 </r>
       <r>   14.5571    0.0000 </r>
       <r>   16.0299    0.0000 </r>
       <r>   17.0146    0.0000 </r>
       <r>   17.1512    0.0000 </r>
      </set>
      <set comment="kpoint 10">
       <r>   -4.0708    1.0000 </r>
       <r>   -0.6814    1.0000 </r>
       <r>    3.1942    1.0000 </r>
       <r>    4.3722    1.0000 </r>
       <r>    7.9263    0.0000 </r>
       <r>    9.2218    0.0000 </r>
       <r>    9.4779    0.0000 </r>
       <r>   13.4410    0.0000 </r>
       <r>   13.6723    0.0000 </r>
       <r>   14.7482    0.0000 </r>
       <r>   16.6901    0.0000 </r>
       <r>   17.8946    0.0000 </r>
      </set>
      <set comment="kpoint 11">
       <r>   -4.9722    1.0000 </r>
       <r>    1.0336    1.0000 </r>
       <r>    3.3485    1.0000 </r>
       <r>    4.8533    1.0000 </r>
       <r>    8.2693    0.0000 </r>
       <r>    9.2753    0.0000 </r>
       <r>    9.4496    0.0000 </r>
       <r>   11.8247    0.0000 </r>
       <r>   12.0901    0.0000 </r>
       <r>   15.3585    0.0000 </r>
       <r>   15.5714    0.0000 </r>
       <r>   17.9156    0.0000 </r>
      </set>
      <set comment="kpoint 12">
       <r>   -5.6682    1.0000 </r>
       <r>    2.9401    1.0000 </r>
       <r>    4.0258    1.0000 </r>
       <r>    5.3248    1.0000 </r>
       <r>    8.5819    0.0000 </r>
       <r>    8.7230    0.0000 </r>
       <r>    8.9449    0.0000 </r>
       <r>   11.0432    0.0000 </r>
       <r>   11.9700    0.0000 </r>
       <r>   13.5790    0.0000 </r>
       <r>   15.2692    0.0000 </r>
       <r>   16.7283    0.0000 </r>
      </set>
      <set comment="kpoint 13">
       <r>   -5.1363    1.0000 </r>
       <r>    2.0961    1.0000 </r>
       <r>    3.7663    1.0000 </r>
       <r>    3.7663    1.0000 </r>
       <r>    6.7660    0.0000 </r>
       <r>    8.7500    0.0000 </r>
       <r>   11.3030    0.0000 </r>
       <r>   11.3030    0.0000 </r>
       <r>   13.4806    0.0000 </r>
       <r>   14.5140    0.0000 </r>
       <r>   16.9146    0.0000 </r>
       <r>   18.5302    0.0000 </r>
      </set>
      <set comment="kpoint 14">
       <r>   -4.4400    1.0000 </r>
       <r>    0.6995    1.0000 </r>
       <r>    3.0006    1.0000 </r>
       <r>    3.4533    1.0000 </r>
       <r>    6.9855    0.0000 </r>
       <r>    8.5174    0.0000 </r>
       <r>   11.5219    0.0000 </r>
       <r>   11.8204    0.0000 </r>
       <r>   15.5370    0.0000 </r>
       <r>   15.5826    0.0000 </r>
       <r>   17.1605    0.0000 </r>
       <r>   18.7016    0.0000 </r>
      </set>
      <set comment="kpoint 15">
       <r>   -3.5353    1.0000 </r>
       <r>   -0.7084    1.0000 </r>
       <r>    2.1528    1.0000 </r>
       <r>    3.4553    1.0000 </r>
       <r>    7.1564    0.0000 </r>
       <r>   10.0460    0.0000 </r>
       <r>   11.2595    0.0000 </r>
       <r>   11.4905    0.0000 </r>
       <r>   15.6993    0.0000 </r>
       <r>   16.0737    0.0000 </r>
       <r>   17.6644    0.0000 </r>
       <r>   18.2594    0.0000 </r>
      </set>
      <set comment="kpoint 16">
       <r>   -3.3382    1.0000 </r>
       <r>   -0.9582    1.0000 </r>
       <r>    1.7055    1.0000 </r>
       <r>    3.7664    1.0000 </r>
       <r>    7.4704    0.0000 </r>
       <r>   11.0152    0.0000 </r>
       <r>   11.0562    0.0000 </r>
       <r>   12.4969    0.0000 </r>
       <r>   13.5059    0.0000 </r>
       <r>   13.5614    0.0000 </r>
       <r>   18.0919    0.0000 </r>
       <r>   20.3515    0.0000 </r>
      </set>
      <set comment="kpoint 17">
       <r>   -4.1950    1.0000 </r>
       <r>    0.1756    1.0000 </r>
       <r>    1.9463    1.0000 </r>
       <r>    4.3125    1.0000 </r>
       <r>    8.0519    0.0000 </r>
       <r>   10.3622    0.0000 </r>
       <r>   10.6973    0.0000 </r>
       <r>   11.6545    0.0000 </r>
       <r>   12.0679    0.0000 </r>
       <r>   15.1347    0.0000 </r>
       <r>   18.1073    0.0000 </r>
       <r>   18.6467    0.0000 </r>
      </set>
      <set comment="kpoint 18">
       <r>   -3.8481    1.0000 </r>
       <r>   -0.0973    1.0000 </r>
       <r>    3.0624    1.0000 </r>
       <r>    3.0624    1.0000 </r>
       <r>    6.2652    0.0000 </r>
       <r>    7.1906    0.0000 </r>
       <r>   13.5502    0.0000 </r>
       <r>   13.5502    0.0000 </r>
       <r>   15.9961    0.0000 </r>
       <r>   16.0941    0.0000 </r>
       <r>   18.4969    0.0000 </r>
       <r>   18.5333    0.0000 </r>
      </set>
      <set comment="kpoint 19">
       <r>   -2.9690    1.0000 </r>
       <r>   -1.1636    1.0000 </r>
       <r>    2.2571    1.0000 </r>
       <r>    2.9872    1.0000 </r>
       <r>    6.5457    0.0000 </r>
       <r>    7.5996    0.0000 </r>
       <r>   13.7873    0.0000 </r>
       <r>   13.8429    0.0000 </r>
       <r>   16.2311    0.0000 </r>
       <r>   16.3326    0.0000 </r>
       <r>   17.8290    0.0000 </r>
       <r>   18.2495    0.0000 </r>
      </set>
      <set comment="kpoint 20">
       <r>   -2.5459    1.0000 </r>
       <r>   -1.5488    1.0000 </r>
       <r>    1.4151    1.0000 </r>
       <r>    3.2394    1.0000 </r>
       <r>    6.8488    0.0000 </r>
       <r>    9.7263    0.0000 </r>
       <r>   12.9937    0.0000 </r>
       <r>   13.5296    0.0000 </r>
       <r>   13.6952    0.0000 </r>
       <r>   14.0942    0.0000 </r>
       <r>   20.1231    0.0000 </r>
       <r>   20.3822    0.0000 </r>
      </set>
      <set comment="kpoint 21">
       <r>   -2.1310    1.0000 </r>
       <r>   -2.1310    1.0000 </r>
       <r>    2.8210    1.0000 </r>
       <r>    2.8210    1.0000 </r>
       <r>    6.3663    0.0000 </r>
       <r>    6.3663    0.0000 </r>
       <r>   15.5484    0.0000 </r>
       <r>   15.5484    0.0000 </r>
       <r>   16.5206    0.0000 </r>
       <r>   16.5207    0.0000 </r>
       <r>   18.0561    0.0000 </r>
       <r>   18.0617    0.0000 </r>
      </set>
      <set comment="kpoint 22">
       <r>   -4.8940    1.0000 </r>
       <r>    1.3465    1.0000 </r>
       <r>    2.9631    1.0000 </r>
       <r>    4.2147    1.0000 </r>
       <r>    8.0575    0.0000 </r>
       <r>    9.4406    0.0000 </r>
       <r>    9.8175    0.0000 </r>
       <r>   11.0546    0.0000 </r>
       <r>   13.3265    0.0000 </r>
       <r>   15.7182    0.0000 </r>
       <r>   16.5781    0.0000 </r>
       <r>   17.6464    0.0000 </r>
      </set>
      <set comment="kpoint 23">
       <r>   -4.0248    1.0000 </r>
       <r>   -0.1727    1.0000 </r>
       <r>    2.3591    1.0000 </r>
       <r>    3.7274    1.0000 </r>
       <r>    8.4786    0.0000 </r>
       <r>    9.1439    0.0000 </r>
       <r>   10.5917    0.0000 </r>
       <r>   11.4921    0.0000 </r>
       <r>   14.5443    0.0000 </r>
       <r>   15.2403    0.0000 </r>
       <r>   17.5161    0.0000 </r>
       <r>   18.3617    0.0000 </r>
      </set>
      <set comment="kpoint 24">
       <r>   -3.3908    1.0000 </r>
       <r>   -1.0919    1.0000 </r>
       <r>    2.2278    1.0000 </r>
       <r>    3.5044    1.0000 </r>
       <r>    8.6376    0.0000 </r>
       <r>    8.7609    0.0000 </r>
       <r>   11.4605    0.0000 </r>
       <r>   12.6802    0.0000 </r>
       <r>   12.9206    0.0000 </r>
       <r>   16.1216    0.0000 </r>
       <r>   17.1663    0.0000 </r>
       <r>   17.8877    0.0000 </r>
      </set>
      <set comment="kpoint 25">
       <r>   -3.6548    1.0000 </r>
       <r>   -0.3125    1.0000 </r>
       <r>    2.3275    1.0000 </r>
       <r>    2.9192    1.0000 </r>
       <r>    7.5703    0.0000 </r>
       <r>    8.2733    0.0000 </r>
       <r>   11.2988    0.0000 </r>
       <r>   13.5016    0.0000 </r>
       <r>   15.6688    0.0000 </r>
       <r>   15.7233    0.0000 </r>
       <r>   18.2972    0.0000 </r>
       <r>   18.8015    0.0000 </r>
      </set>
      <set comment="kpoint 26">
       <r>   -2.8015    1.0000 </r>
       <r>   -1.2608    1.0000 </r>
       <r>    1.6475    1.0000 </r>
       <r>    2.7233    1.0000 </r>
       <r>    8.0097    0.0000 </r>
       <r>    9.8833    0.0000 </r>
       <r>   10.8263    0.0000 </r>
       <r>   12.9654    0.0000 </r>
       <r>   13.9214    0.0000 </r>
       <r>   16.5735    0.0000 </r>
       <r>   17.6850    0.0000 </r>
       <r>   19.7993    0.0000 </r>
      </set>
      <set comment="kpoint 27">
       <r>   -3.1451    1.0000 </r>
       <r>   -0.9031    1.0000 </r>
       <r>    1.4851    1.0000 </r>
       <r>    3.0898    1.0000 </r>
       <r>    8.4790    0.0000 </r>
       <r>   10.1287    0.0000 </r>
       <r>   10.7800    0.0000 </r>
       <r>   12.5768    0.0000 </r>
       <r>   13.3795    0.0000 </r>
       <r>   14.7601    0.0000 </r>
       <r>   19.5505    0.0000 </r>
       <r>   19.7532    0.0000 </r>
      </set>
      <set comment="kpoint 28">
       <r>   -2.0573    1.0000 </r>
       <r>   -2.0573    1.0000 </r>
       <r>    2.2761    1.0000 </r>
       <r>    2.2761    1.0000 </r>
       <r>    7.6006    0.0000 </r>
       <r>    7.6006    0.0000 </r>
       <r>   13.3652    0.0000 </r>
       <r>   13.3652    0.0000 </r>
       <r>   16.0668    0.0000 </r>
       <r>   16.0668    0.0000 </r>
       <r>   18.3337    0.0000 </r>
       <r>   18.3337    0.0000 </r>
      </set>
      <set comment="kpoint 29">
       <r>   -1.9765    1.0000 </r>
       <r>   -1.9765    1.0000 </r>
       <r>    1.8544    1.0000 </r>
       <r>    1.8544    1.0000 </r>
       <r>    9.8847    0.0000 </r>
       <r>    9.8847    0.0000 </r>
       <r>   10.5450    0.0000 </r>
       <r>   10.5450    0.0000 </r>
       <r>   16.0645    0.0000 </r>
       <r>   16.0645    0.0000 </r>
       <r>   18.4829    0.0000 </r>
       <r>   18.4830    0.0000 </r>
      </set>
     </set>
     <set comment="spin 2">
      <set comment="kpoint 1">
       <r>   -6.1985    1.0000 </r>
       <r>    5.6146    1.0000 </r>
       <r>    5.6147    1.0000 </r>
       <r>    5.6147    1.0000 </r>
       <r>    8.1708    0.0000 </r>
       <r>    8.1708    0.0000 </r>
       <r>    8.1708    0.0000 </r>
       <r>    8.7452    0.0000 </r>
       <r>   13.3229    0.0000 </r>
       <r>   13.3229    0.0000 </r>
       <r>   13.4916    0.0000 </r>
       <r>   16.7952    0.0000 </r>
      </set>
      <set comment="kpoint 2">
       <r>   -5.9981    1.0000 </r>
       <r>    4.0239    1.0000 </r>
       <r>    5.3323    1.0000 </r>
       <r>    5.3323    1.0000 </r>
       <r>    8.0566    0.0000 </r>
       <r>    8.5862    0.0000 </r>
       <r>    8.5862    0.0000 </r>
       <r>   10.1450    0.0000 </r>
       <r>   12.8501    0.0000 </r>
       <r>   12.8501    0.0000 </r>
       <r>   14.2671    0.0000 </r>
       <r>   16.2420    0.0000 </r>
      </set>
      <set comment="kpoint 3">
       <r>   -5.4138    1.0000 </r>
       <r>    1.7287    1.0000 </r>
       <r>    4.8697    1.0000 </r>
       <r>    4.8697    1.0000 </r>
       <r>    7.5728    0.0000 </r>
       <r>    9.1040    0.0000 </r>
       <r>    9.1040    0.0000 </r>
       <r>   12.3636    0.0000 </r>
       <r>   12.8011    0.0000 </r>
       <r>   12.8011    0.0000 </r>
       <r>   14.5437    0.0000 </r>
       <r>   17.3250    0.0000 </r>
      </set>
      <set comment="kpoint 4">
       <r>   -4.5396    1.0000 </r>
       <r>   -0.2552    1.0000 </r>
       <r>    4.5470    1.0000 </r>
       <r>    4.5470    1.0000 </r>
       <r>    7.2083    0.0000 </r>
       <r>    9.0672    0.0000 </r>
       <r>    9.0672    0.0000 </r>
       <r>   13.4516    0.0000 </r>
       <r>   14.1527    0.0000 </r>
       <r>   14.1527    0.0000 </r>
       <r>   15.1248    0.0000 </r>
       <r>   19.2452    0.0000 </r>
      </set>
      <set comment="kpoint 5">
       <r>   -3.9205    1.0000 </r>
       <r>   -1.2529    1.0000 </r>
       <r>    4.4364    1.0000 </r>
       <r>    4.4364    1.0000 </r>
       <r>    7.0801    0.0000 </r>
       <r>    8.9636    0.0000 </r>
       <r>    8.9636    0.0000 </r>
       <r>   13.3164    0.0000 </r>
       <r>   16.1085    0.0000 </r>
       <r>   16.1087    0.0000 </r>
       <r>   16.8055    0.0000 </r>
       <r>   16.8324    0.0000 </r>
      </set>
      <set comment="kpoint 6">
       <r>   -5.9305    1.0000 </r>
       <r>    4.2622    1.0000 </r>
       <r>    4.8283    1.0000 </r>
       <r>    4.8283    1.0000 </r>
       <r>    7.6298    0.0000 </r>
       <r>    9.2855    0.0000 </r>
       <r>    9.2855    0.0000 </r>
       <r>    9.8324    0.0000 </r>
       <r>   12.0980    0.0000 </r>
       <r>   13.6211    0.0000 </r>
       <r>   14.5615    0.0000 </r>
       <r>   17.2617    0.0000 </r>
      </set>
      <set comment="kpoint 7">
       <r>   -5.4706    1.0000 </r>
       <r>    2.4090    1.0000 </r>
       <r>    4.3260    1.0000 </r>
       <r>    4.3896    1.0000 </r>
       <r>    7.7593    0.0000 </r>
       <r>    9.2383    0.0000 </r>
       <r>   10.0411    0.0000 </r>
       <r>   10.3528    0.0000 </r>
       <r>   12.9734    0.0000 </r>
       <r>   13.7821    0.0000 </r>
       <r>   15.5490    0.0000 </r>
       <r>   17.1107    0.0000 </r>
      </set>
      <set comment="kpoint 8">
       <r>   -4.6722    1.0000 </r>
       <r>    0.3876    1.0000 </r>
       <r>    3.8064    1.0000 </r>
       <r>    4.0612    1.0000 </r>
       <r>    7.8423    0.0000 </r>
       <r>    9.2064    0.0000 </r>
       <r>   10.0554    0.0000 </r>
       <r>   11.0534    0.0000 </r>
       <r>   14.8830    0.0000 </r>
       <r>   14.8945    0.0000 </r>
       <r>   15.4033    0.0000 </r>
       <r>   18.8930    0.0000 </r>
      </set>
      <set comment="kpoint 9">
       <r>   -3.8335    1.0000 </r>
       <r>   -1.0425    1.0000 </r>
       <r>    3.3694    1.0000 </r>
       <r>    4.0831    1.0000 </r>
       <r>    7.7771    0.0000 </r>
       <r>    9.1027    0.0000 </r>
       <r>    9.7075    0.0000 </r>
       <r>   12.9181    0.0000 </r>
       <r>   14.5571    0.0000 </r>
       <r>   16.0299    0.0000 </r>
       <r>   17.0148    0.0000 </r>
       <r>   17.1530    0.0000 </r>
      </set>
      <set comment="kpoint 10">
       <r>   -4.0707    1.0000 </r>
       <r>   -0.6814    1.0000 </r>
       <r>    3.1943    1.0000 </r>
       <r>    4.3723    1.0000 </r>
       <r>    7.9263    0.0000 </r>
       <r>    9.2219    0.0000 </r>
       <r>    9.4780    0.0000 </r>
       <r>   13.4411    0.0000 </r>
       <r>   13.6723    0.0000 </r>
       <r>   14.7483    0.0000 </r>
       <r>   16.6901    0.0000 </r>
       <r>   17.8944    0.0000 </r>
      </set>
      <set comment="kpoint 11">
       <r>   -4.9721    1.0000 </r>
       <r>    1.0337    1.0000 </r>
       <r>    3.3486    1.0000 </r>
       <r>    4.8534    1.0000 </r>
       <r>    8.2694    0.0000 </r>
       <r>    9.2753    0.0000 </r>
       <r>    9.4496    0.0000 </r>
       <r>   11.8247    0.0000 </r>
       <r>   12.0901    0.0000 </r>
       <r>   15.3585    0.0000 </r>
       <r>   15.5715    0.0000 </r>
       <r>   17.9156    0.0000 </r>
      </set>
      <set comment="kpoint 12">
       <r>   -5.6681    1.0000 </r>
       <r>    2.9402    1.0000 </r>
       <r>    4.0259    1.0000 </r>
       <r>    5.3249    1.0000 </r>
       <r>    8.5820    0.0000 </r>
       <r>    8.7231    0.0000 </r>
       <r>    8.9449    0.0000 </r>
       <r>   11.0432    0.0000 </r>
       <r>   11.9700    0.0000 </r>
       <r>   13.5790    0.0000 </r>
       <r>   15.2693    0.0000 </r>
       <r>   16.7286    0.0000 </r>
      </set>
      <set comment="kpoint 13">
       <r>   -5.1362    1.0000 </r>
       <r>    2.0962    1.0000 </r>
       <r>    3.7664    1.0000 </r>
       <r>    3.7664    1.0000 </r>
       <r>    6.7661    0.0000 </r>
       <r>    8.7501    0.0000 </r>
       <r>   11.3030    0.0000 </r>
       <r>   11.3030    0.0000 </r>
       <r>   13.4807    0.0000 </r>
       <r>   14.5140    0.0000 </r>
       <r>   16.9146    0.0000 </r>
       <r>   18.5303    0.0000 </r>
      </set>
      <set comment="kpoint 14">
       <r>   -4.4399    1.0000 </r>
       <r>    0.6996    1.0000 </r>
       <r>    3.0007    1.0000 </r>
       <r>    3.4534    1.0000 </r>
       <r>    6.9856    0.0000 </r>
       <r>    8.5175    0.0000 </r>
       <r>   11.5220    0.0000 </r>
       <r>   11.8205    0.0000 </r>
       <r>   15.5370    0.0000 </r>
       <r>   15.5826    0.0000 </r>
       <r>   17.1612    0.0000 </r>
       <r>   18.7045    0.0000 </r>
      </set>
      <set comment="kpoint 15">
       <r>   -3.5352    1.0000 </r>
       <r>   -0.7083    1.0000 </r>
       <r>    2.1529    1.0000 </r>
       <r>    3.4554    1.0000 </r>
       <r>    7.1564    0.0000 </r>
       <r>   10.0461    0.0000 </r>
       <r>   11.2596    0.0000 </r>
       <r>   11.4906    0.0000 </r>
       <r>   15.6994    0.0000 </r>
       <r>   16.0737    0.0000 </r>
       <r>   17.6620    0.0000 </r>
       <r>   18.1353    0.0000 </r>
      </set>
      <set comment="kpoint 16">
       <r>   -3.3381    1.0000 </r>
       <r>   -0.9582    1.0000 </r>
       <r>    1.7056    1.0000 </r>
       <r>    3.7665    1.0000 </r>
       <r>    7.4704    0.0000 </r>
       <r>   11.0153    0.0000 </r>
       <r>   11.0563    0.0000 </r>
       <r>   12.4970    0.0000 </r>
       <r>   13.5059    0.0000 </r>
       <r>   13.5614    0.0000 </r>
       <r>   18.0919    0.0000 </r>
       <r>   20.3012    0.0000 </r>
      </set>
      <set comment="kpoint 17">
       <r>   -4.1949    1.0000 </r>
       <r>    0.1756    1.0000 </r>
       <r>    1.9463    1.0000 </r>
       <r>    4.3126    1.0000 </r>
       <r>    8.0519    0.0000 </r>
       <r>   10.3623    0.0000 </r>
       <r>   10.6974    0.0000 </r>
       <r>   11.6545    0.0000 </r>
       <r>   12.0680    0.0000 </r>
       <r>   15.1348    0.0000 </r>
       <r>   18.1075    0.0000 </r>
       <r>   18.6442    0.0000 </r>
      </set>
      <set comment="kpoint 18">
       <r>   -3.8480    1.0000 </r>
       <r>   -0.0972    1.0000 </r>
       <r>    3.0625    1.0000 </r>
       <r>    3.0625    1.0000 </r>
       <r>    6.2652    0.0000 </r>
       <r>    7.1906    0.0000 </r>
       <r>   13.5503    0.0000 </r>
       <r>   13.5503    0.0000 </r>
       <r>   15.9961    0.0000 </r>
       <r>   16.0942    0.0000 </r>
       <r>   18.4969    0.0000 </r>
       <r>   18.5714    0.0000 </r>
      </set>
      <set comment="kpoint 19">
       <r>   -2.9689    1.0000 </r>
       <r>   -1.1636    1.0000 </r>
       <r>    2.2572    1.0000 </r>
       <r>    2.9873    1.0000 </r>
       <r>    6.5457    0.0000 </r>
       <r>    7.5996    0.0000 </r>
       <r>   13.7874    0.0000 </r>
       <r>   13.8430    0.0000 </r>
       <r>   16.2312    0.0000 </r>
       <r>   16.3326    0.0000 </r>
       <r>   17.8292    0.0000 </r>
       <r>   18.2496    0.0000 </r>
      </set>
      <set comment="kpoint 20">
       <r>   -2.5458    1.0000 </r>
       <r>   -1.5487    1.0000 </r>
       <r>    1.4152    1.0000 </r>
       <r>    3.2395    1.0000 </r>
       <r>    6.8489    0.0000 </r>
       <r>    9.7263    0.0000 </r>
       <r>   12.9938    0.0000 </r>
       <r>   13.5297    0.0000 </r>
       <r>   13.6953    0.0000 </r>
       <r>   14.0942    0.0000 </r>
       <r>   20.1166    0.0000 </r>
       <r>   20.4069    0.0000 </r>
      </set>
      <set comment="kpoint 21">
       <r>   -2.1310    1.0000 </r>
       <r>   -2.1309    1.0000 </r>
       <r>    2.8210    1.0000 </r>
       <r>    2.8210    1.0000 </r>
       <r>    6.3664    0.0000 </r>
       <r>    6.3664    0.0000 </r>
       <r>   15.5484    0.0000 </r>
       <r>   15.5484    0.0000 </r>
       <r>   16.5206    0.0000 </r>
       <r>   16.5208    0.0000 </r>
       <r>   18.0570    0.0000 </r>
       <r>   18.1113    0.0000 </r>
      </set>
      <set comment="kpoint 22">
       <r>   -4.8940    1.0000 </r>
       <r>    1.3466    1.0000 </r>
       <r>    2.9631    1.0000 </r>
       <r>    4.2147    1.0000 </r>
       <r>    8.0575    0.0000 </r>
       <r>    9.4406    0.0000 </r>
       <r>    9.8175    0.0000 </r>
       <r>   11.0546    0.0000 </r>
       <r>   13.3265    0.0000 </r>
       <r>   15.7183    0.0000 </r>
       <r>   16.5781    0.0000 </r>
       <r>   17.6464    0.0000 </r>
      </set>
      <set comment="kpoint 23">
       <r>   -4.0247    1.0000 </r>
       <r>   -0.1726    1.0000 </r>
       <r>    2.3592    1.0000 </r>
       <r>    3.7275    1.0000 </r>
       <r>    8.4787    0.0000 </r>
       <r>    9.1440    0.0000 </r>
       <r>   10.5918    0.0000 </r>
       <r>   11.4922    0.0000 </r>
       <r>   14.5443    0.0000 </r>
       <r>   15.2403    0.0000 </r>
       <r>   17.5162    0.0000 </r>
       <r>   18.3621    0.0000 </r>
      </set>
      <set comment="kpoint 24">
       <r>   -3.3907    1.0000 </r>
       <r>   -1.0919    1.0000 </r>
       <r>    2.2278    1.0000 </r>
       <r>    3.5045    1.0000 </r>
       <r>    8.6377    0.0000 </r>
       <r>    8.7609    0.0000 </r>
       <r>   11.4606    0.0000 </r>
       <r>   12.6802    0.0000 </r>
       <r>   12.9207    0.0000 </r>
       <r>   16.1216    0.0000 </r>
       <r>   17.1664    0.0000 </r>
       <r>   17.8879    0.0000 </r>
      </set>
      <set comment="kpoint 25">
       <r>   -3.6547    1.0000 </r>
       <r>   -0.3124    1.0000 </r>
       <r>    2.3275    1.0000 </r>
       <r>    2.9193    1.0000 </r>
       <r>    7.5704    0.0000 </r>
       <r>    8.2734    0.0000 </r>
       <r>   11.2989    0.0000 </r>
       <r>   13.5017    0.0000 </r>
       <r>   15.6689    0.0000 </r>
       <r>   15.7233    0.0000 </r>
       <r>   18.2973    0.0000 </r>
       <r>   18.8029    0.0000 </r>
      </set>
      <set comment="kpoint 26">
       <r>   -2.8014    1.0000 </r>
       <r>   -1.2607    1.0000 </r>
       <r>    1.6475    1.0000 </r>
       <r>    2.7234    1.0000 </r>
       <r>    8.0097    0.0000 </r>
       <r>    9.8834    0.0000 </r>
       <r>   10.8264    0.0000 </r>
       <r>   12.9655    0.0000 </r>
       <r>   13.9215    0.0000 </r>
       <r>   16.5735    0.0000 </r>
       <r>   17.6851    0.0000 </r>
       <r>   19.7996    0.0000 </r>
      </set>
      <set comment="kpoint 27">
       <r>   -3.1450    1.0000 </r>
       <r>   -0.9030    1.0000 </r>
       <r>    1.4852    1.0000 </r>
       <r>    3.0899    1.0000 </r>
       <r>    8.4790    0.0000 </r>
       <r>   10.1287    0.0000 </r>
       <r>   10.7800    0.0000 </r>
       <r>   12.5769    0.0000 </r>
       <r>   13.3796    0.0000 </r>
       <r>   14.7601    0.0000 </r>
       <r>   19.5524    0.0000 </r>
       <r>   19.7552    0.0000 </r>
      </set>
      <set comment="kpoint 28">
       <r>   -2.0572    1.0000 </r>
       <r>   -2.0572    1.0000 </r>
       <r>    2.2762    1.0000 </r>
       <r>    2.2762    1.0000 </r>
       <r>    7.6006    0.0000 </r>
       <r>    7.6006    0.0000 </r>
       <r>   13.3652    0.0000 </r>
       <r>   13.3652    0.0000 </r>
       <r>   16.0669    0.0000 </r>
       <r>   16.0669    0.0000 </r>
       <r>   18.3337    0.0000 </r>
       <r>   18.3338    0.0000 </r>
      </set>
      <set comment="kpoint 29">
       <r>   -1.9765    1.0000 </r>
       <r>   -1.9765    1.0000 </r>
       <r>    1.8545    1.0000 </r>
       <r>    1.8545    1.0000 </r>
       <r>    9.8847    0.0000 </r>
       <r>    9.8847    0.0000 </r>
       <r>   10.5451    0.0000 </r>
       <r>   10.5451    0.0000 </r>
       <r>   16.0645    0.0000 </r>
       <r>   16.0645    0.0000 </r>
       <r>   18.4830    0.0000 </r>
       <r>   18.4830    0.0000 </r>
      </set>
     </set>
    </set>
   </array>
  </eigenvalues>
  <separator name="orbital magnetization" >
   <v name="MAGDIPOLOUT">      0.00000000      0.00000000      0.00000000</v>
  </separator>
  <dos>
   <i name="efermi">      5.64387716 </i>
   <total>
    <array>
     <dimension dim="1">gridpoints</dimension>
     <dimension dim="2">spin</dimension>
     <field>energy</field>
     <field>total</field>
     <field>integrated</field>
     <set>
      <set comment="spin 1">
       <r>  -7.5289   0.0000   0.0000 </r>
       <r>  -7.4313   0.0000   0.0000 </r>
       <r>  -7.3338   0.0000   0.0000 </r>
       <r>  -7.2362   0.0000   0.0000 </r>
       <r>  -7.1387   0.0000   0.0000 </r>
       <r>  -7.0411   0.0000   0.0000 </r>
       <r>  -6.9436   0.0000   0.0000 </r>
       <r>  -6.8460   0.0000   0.0000 </r>
       <r>  -6.7485   0.0000   0.0000 </r>
       <r>  -6.6509   0.0000   0.0000 </r>
       <r>  -6.5533   0.0000   0.0000 </r>
       <r>  -6.4558   0.0000   0.0000 </r>
       <r>  -6.3582   0.0000   0.0000 </r>
       <r>  -6.2607   0.0000   0.0000 </r>
       <r>  -6.1631   0.0027   0.0000 </r>
       <r>  -6.0656   0.0385   0.0017 </r>
       <r>  -5.9680   0.0772   0.0083 </r>
       <r>  -5.8705   0.0873   0.0161 </r>
       <r>  -5.7729   0.1056   0.0255 </r>
       <r>  -5.6754   0.1255   0.0367 </r>
       <r>  -5.5778   0.1422   0.0499 </r>
       <r>  -5.4803   0.1494   0.0642 </r>
       <r>  -5.3827   0.1588   0.0791 </r>
       <r>  -5.2852   0.1713   0.0952 </r>
       <r>  -5.1876   0.1843   0.1126 </r>
       <r>  -5.0900   0.1976   0.1312 </r>
       <r>  -4.9925   0.2115   0.1511 </r>
       <r>  -4.8949   0.2209   0.1722 </r>
       <r>  -4.7974   0.2323   0.1943 </r>
       <r>  -4.6998   0.2441   0.2176 </r>
       <r>  -4.6023   0.2569   0.2420 </r>
       <r>  -4.5047   0.2719   0.2678 </r>
       <r>  -4.4072   0.2889   0.2951 </r>
       <r>  -4.3096   0.3077   0.3242 </r>
       <r>  -4.2121   0.3281   0.3552 </r>
       <r>  -4.1145   0.3509   0.3883 </r>
       <r>  -4.0170   0.3947   0.4241 </r>
       <r>  -3.9194   0.5226   0.4682 </r>
       <r>  -3.8219   0.4321   0.5176 </r>
       <r>  -3.7243   0.4255   0.5594 </r>
       <r>  -3.6267   0.4200   0.6006 </r>
       <r>  -3.5292   0.4151   0.6413 </r>
       <r>  -3.4316   0.3906   0.6809 </r>
       <r>  -3.3341   0.3569   0.7169 </r>
       <r>  -3.2365   0.3594   0.7520 </r>
       <r>  -3.1390   0.3491   0.7866 </r>
       <r>  -3.0414   0.3324   0.8199 </r>
       <r>  -2.9439   0.3188   0.8515 </r>
       <r>  -2.8463   0.3094   0.8822 </r>
       <r>  -2.7488   0.2769   0.9112 </r>
       <r>  -2.6512   0.2320   0.9360 </r>
       <r>  -2.5537   0.1872   0.9564 </r>
       <r>  -2.4561   0.1440   0.9726 </r>
       <r>  -2.3586   0.1040   0.9846 </r>
       <r>  -2.2610   0.0673   0.9929 </r>
       <r>  -2.1634   0.0340   0.9979 </r>
       <r>  -2.0659   0.0107   0.9998 </r>
       <r>  -1.9683   0.0218   1.0011 </r>
       <r>  -1.8708   0.0519   1.0047 </r>
       <r>  -1.7732   0.0854   1.0113 </r>
       <r>  -1.6757   0.1225   1.0215 </r>
       <r>  -1.5781   0.1630   1.0353 </r>
       <r>  -1.4806   0.2075   1.0534 </r>
       <r>  -1.3830   0.2573   1.0760 </r>
       <r>  -1.2855   0.3126   1.1038 </r>
       <r>  -1.1879   0.4233   1.1391 </r>
       <r>  -1.0904   0.5555   1.1867 </r>
       <r>  -0.9928   0.8709   1.2609 </r>
       <r>  -0.8952   0.6167   1.3336 </r>
       <r>  -0.7977   0.4791   1.3865 </r>
       <r>  -0.7001   0.4091   1.4293 </r>
       <r>  -0.6026   0.3758   1.4675 </r>
       <r>  -0.5050   0.3454   1.5027 </r>
       <r>  -0.4075   0.3173   1.5350 </r>
       <r>  -0.3099   0.2917   1.5646 </r>
       <r>  -0.2124   0.2628   1.5918 </r>
       <r>  -0.1148   0.2358   1.6159 </r>
       <r>  -0.0173   0.2177   1.6380 </r>
       <r>   0.0803   0.2038   1.6585 </r>
       <r>   0.1778   0.1941   1.6779 </r>
       <r>   0.2754   0.1866   1.6965 </r>
       <r>   0.3729   0.1795   1.7143 </r>
       <r>   0.4705   0.1724   1.7315 </r>
       <r>   0.5681   0.1649   1.7479 </r>
       <r>   0.6656   0.1570   1.7636 </r>
       <r>   0.7632   0.1486   1.7785 </r>
       <r>   0.8607   0.1405   1.7926 </r>
       <r>   0.9583   0.1329   1.8060 </r>
       <r>   1.0558   0.1237   1.8186 </r>
       <r>   1.1534   0.1104   1.8299 </r>
       <r>   1.2509   0.1013   1.8402 </r>
       <r>   1.3485   0.0963   1.8498 </r>
       <r>   1.4460   0.1146   1.8593 </r>
       <r>   1.5436   0.3862   1.8824 </r>
       <r>   1.6411   0.7192   1.9360 </r>
       <r>   1.7387   0.6273   2.0027 </r>
       <r>   1.8362   0.5691   2.0604 </r>
       <r>   1.9338   0.5615   2.1155 </r>
       <r>   2.0314   0.5644   2.1703 </r>
       <r>   2.1289   0.5739   2.2258 </r>
       <r>   2.2265   0.5683   2.2820 </r>
       <r>   2.3240   0.5448   2.3453 </r>
       <r>   2.4216   0.5546   2.3989 </r>
       <r>   2.5191   0.5724   2.4538 </r>
       <r>   2.6167   0.6049   2.5111 </r>
       <r>   2.7142   0.6520   2.5723 </r>
       <r>   2.8118   0.7150   2.6390 </r>
       <r>   2.9093   0.7697   2.7115 </r>
       <r>   3.0069   0.8920   2.7956 </r>
       <r>   3.1044   0.7657   2.8730 </r>
       <r>   3.2020   0.7530   2.9471 </r>
       <r>   3.2995   0.7406   3.0199 </r>
       <r>   3.3971   0.7236   3.0915 </r>
       <r>   3.4947   0.7092   3.1610 </r>
       <r>   3.5922   0.7180   3.2307 </r>
       <r>   3.6898   0.7154   3.3007 </r>
       <r>   3.7873   0.7026   3.3700 </r>
       <r>   3.8849   0.6844   3.4376 </r>
       <r>   3.9824   0.6625   3.5034 </r>
       <r>   4.0800   0.6361   3.5667 </r>
       <r>   4.1775   0.6476   3.6294 </r>
       <r>   4.2751   0.6379   3.6924 </r>
       <r>   4.3726   0.5843   3.7526 </r>
       <r>   4.4702   0.4464   3.8034 </r>
       <r>   4.5677   0.3629   3.8421 </r>
       <r>   4.6653   0.3125   3.8751 </r>
       <r>   4.7628   0.2610   3.9030 </r>
       <r>   4.8604   0.2088   3.9260 </r>
       <r>   4.9580   0.1754   3.9446 </r>
       <r>   5.0555   0.1486   3.9604 </r>
       <r>   5.1531   0.1279   3.9738 </r>
       <r>   5.2506   0.1133   3.9855 </r>
       <r>   5.3482   0.0535   3.9952 </r>
       <r>   5.4457   0.0215   3.9988 </r>
       <r>   5.5433   0.0038   3.9999 </r>
       <r>   5.6408   0.0000   4.0000 </r>
       <r>   5.7384   0.0000   4.0000 </r>
       <r>   5.8359   0.0000   4.0000 </r>
       <r>   5.9335   0.0000   4.0000 </r>
       <r>   6.0310   0.0000   4.0000 </r>
       <r>   6.1286   0.0000   4.0000 </r>
       <r>   6.2261   0.0000   4.0000 </r>
       <r>   6.3237   0.0119   4.0002 </r>
       <r>   6.4213   0.0666   4.0041 </r>
       <r>   6.5188   0.0846   4.0118 </r>
       <r>   6.6164   0.1011   4.0205 </r>
       <r>   6.7139   0.1319   4.0318 </r>
       <r>   6.8115   0.1656   4.0463 </r>
       <r>   6.9090   0.1971   4.0641 </r>
       <r>   7.0066   0.2273   4.0847 </r>
       <r>   7.1041   0.2606   4.1085 </r>
       <r>   7.2017   0.3030   4.1359 </r>
       <r>   7.2992   0.3600   4.1681 </r>
       <r>   7.3968   0.4285   4.2065 </r>
       <r>   7.4943   0.5087   4.2521 </r>
       <r>   7.5919   0.6055   4.3063 </r>
       <r>   7.6895   0.7404   4.3719 </r>
       <r>   7.7870   0.9167   4.4525 </r>
       <r>   7.8846   1.0017   4.5470 </r>
       <r>   7.9821   1.0217   4.6460 </r>
       <r>   8.0797   1.0624   4.7467 </r>
       <r>   8.1772   1.0588   4.8515 </r>
       <r>   8.2748   0.8539   4.9466 </r>
       <r>   8.3723   0.6221   5.0179 </r>
       <r>   8.4699   0.4751   5.0707 </r>
       <r>   8.5674   0.2519   5.1021 </r>
       <r>   8.6650   0.2809   5.1269 </r>
       <r>   8.7625   0.3501   5.1577 </r>
       <r>   8.8601   0.4468   5.1961 </r>
       <r>   8.9576   0.5955   5.2465 </r>
       <r>   9.0552   0.9952   5.3201 </r>
       <r>   9.1528   1.7376   5.4543 </r>
       <r>   9.2503   1.3540   5.6290 </r>
       <r>   9.3479   0.8309   5.7281 </r>
       <r>   9.4454   0.7191   5.8015 </r>
       <r>   9.5430   0.7027   5.8711 </r>
       <r>   9.6405   0.6704   5.9381 </r>
       <r>   9.7381   0.6361   6.0016 </r>
       <r>   9.8356   0.6558   6.0642 </r>
       <r>   9.9332   0.8544   6.1430 </r>
       <r>  10.0307   0.5747   6.2117 </r>
       <r>  10.1283   0.4759   6.2613 </r>
       <r>  10.2258   0.4630   6.3072 </r>
       <r>  10.3234   0.4484   6.3516 </r>
       <r>  10.4209   0.4305   6.3945 </r>
       <r>  10.5185   0.4164   6.4358 </r>
       <r>  10.6161   0.4802   6.4771 </r>
       <r>  10.7136   0.6987   6.5348 </r>
       <r>  10.8112   0.8791   6.6156 </r>
       <r>  10.9087   0.7607   6.6918 </r>
       <r>  11.0063   0.7084   6.7638 </r>
       <r>  11.1038   0.6621   6.8301 </r>
       <r>  11.2014   0.6130   6.8926 </r>
       <r>  11.2989   0.5356   6.9487 </r>
       <r>  11.3965   0.4935   6.9984 </r>
       <r>  11.4940   0.5137   7.0472 </r>
       <r>  11.5916   0.4730   7.0952 </r>
       <r>  11.6891   0.4406   7.1397 </r>
       <r>  11.7867   0.4077   7.1811 </r>
       <r>  11.8842   0.4016   7.2201 </r>
       <r>  11.9818   0.4142   7.2598 </r>
       <r>  12.0794   0.4663   7.3021 </r>
       <r>  12.1769   0.5352   7.3517 </r>
       <r>  12.2745   0.5830   7.4063 </r>
       <r>  12.3720   0.6262   7.4653 </r>
       <r>  12.4696   0.6647   7.5283 </r>
       <r>  12.5671   0.7135   7.5951 </r>
       <r>  12.6647   0.7668   7.6681 </r>
       <r>  12.7622   0.7485   7.7422 </r>
       <r>  12.8598   0.6905   7.8130 </r>
       <r>  12.9573   0.6095   7.8765 </r>
       <r>  13.0549   0.6207   7.9361 </r>
       <r>  13.1524   0.6413   7.9977 </r>
       <r>  13.2500   0.6619   8.0612 </r>
       <r>  13.3475   0.6785   8.1268 </r>
       <r>  13.4451   0.6542   8.1919 </r>
       <r>  13.5427   0.7302   8.2607 </r>
       <r>  13.6402   0.7408   8.3322 </r>
       <r>  13.7378   0.6802   8.4026 </r>
       <r>  13.8353   0.5548   8.4623 </r>
       <r>  13.9329   0.5234   8.5144 </r>
       <r>  14.0304   0.5249   8.5655 </r>
       <r>  14.1280   0.5308   8.6170 </r>
       <r>  14.2255   0.5406   8.6692 </r>
       <r>  14.3231   0.5495   8.7224 </r>
       <r>  14.4206   0.5596   8.7765 </r>
       <r>  14.5182   0.5731   8.8317 </r>
       <r>  14.6157   0.5839   8.8882 </r>
       <r>  14.7133   0.6008   8.9459 </r>
       <r>  14.8108   0.6296   9.0058 </r>
       <r>  14.9084   0.6801   9.0695 </r>
       <r>  15.0060   0.7420   9.1388 </r>
       <r>  15.1035   0.8093   9.2144 </r>
       <r>  15.2011   0.8735   9.2967 </r>
       <r>  15.2986   0.9093   9.3839 </r>
       <r>  15.3962   0.8936   9.4727 </r>
       <r>  15.4937   0.8496   9.5575 </r>
       <r>  15.5913   0.8762   9.6400 </r>
       <r>  15.6888   0.8921   9.7302 </r>
       <r>  15.7864   0.7732   9.8081 </r>
       <r>  15.8839   0.7664   9.8831 </r>
       <r>  15.9815   0.7685   9.9579 </r>
       <r>  16.0790   0.6844  10.0310 </r>
       <r>  16.1766   0.6813  10.0962 </r>
       <r>  16.2742   0.6638  10.1635 </r>
       <r>  16.3717   0.4958  10.2222 </r>
       <r>  16.4693   0.3000  10.2600 </r>
       <r>  16.5668   0.2145  10.2846 </r>
       <r>  16.6644   0.2279  10.3059 </r>
       <r>  16.7619   0.2734  10.3297 </r>
       <r>  16.8595   0.3809  10.3617 </r>
       <r>  16.9570   0.4489  10.4026 </r>
       <r>  17.0546   0.4497  10.4471 </r>
       <r>  17.1521   0.4388  10.4907 </r>
       <r>  17.2497   0.4496  10.5336 </r>
       <r>  17.3472   0.4878  10.5793 </r>
       <r>  17.4448   0.5320  10.6290 </r>
       <r>  17.5423   0.5788  10.6832 </r>
       <r>  17.6399   0.5989  10.7409 </r>
       <r>  17.7375   0.6691  10.8016 </r>
       <r>  17.8350   0.7305  10.8701 </r>
       <r>  17.9326   0.8613  10.9481 </r>
       <r>  18.0301   0.9136  11.0356 </r>
       <r>  18.1277   0.9143  11.1242 </r>
       <r>  18.2252   0.9708  11.2154 </r>
       <r>  18.3228   0.8349  11.3050 </r>
       <r>  18.4203   0.8430  11.3869 </r>
       <r>  18.5179   0.8283  11.4687 </r>
       <r>  18.6154   0.8351  11.5508 </r>
       <r>  18.7130   0.6076  11.6237 </r>
       <r>  18.8105   0.3944  11.6695 </r>
       <r>  18.9081   0.3536  11.7058 </r>
       <r>  19.0056   0.3260  11.7389 </r>
       <r>  19.1032   0.3032  11.7696 </r>
       <r>  19.2008   0.2851  11.7982 </r>
       <r>  19.2983   0.2711  11.8253 </r>
       <r>  19.3959   0.2585  11.8511 </r>
       <r>  19.4934   0.2472  11.8758 </r>
       <r>  19.5910   0.2371  11.8994 </r>
       <r>  19.6885   0.2276  11.9221 </r>
       <r>  19.7861   0.1783  11.9434 </r>
       <r>  19.8836   0.1289  11.9568 </r>
       <r>  19.9812   0.1163  11.9688 </r>
       <r>  20.0787   0.1011  11.9794 </r>
       <r>  20.1763   0.0832  11.9884 </r>
       <r>  20.2738   0.0619  11.9955 </r>
       <r>  20.3714   0.0052  12.0000 </r>
       <r>  20.4689   0.0000  12.0000 </r>
       <r>  20.5665   0.0000  12.0000 </r>
       <r>  20.6641   0.0000  12.0000 </r>
       <r>  20.7616   0.0000  12.0000 </r>
       <r>  20.8592   0.0000  12.0000 </r>
       <r>  20.9567   0.0000  12.0000 </r>
       <r>  21.0543   0.0000  12.0000 </r>
       <r>  21.1518   0.0000  12.0000 </r>
       <r>  21.2494   0.0000  12.0000 </r>
       <r>  21.3469   0.0000  12.0000 </r>
       <r>  21.4445   0.0000  12.0000 </r>
       <r>  21.5420   0.0000  12.0000 </r>
       <r>  21.6396   0.0000  12.0000 </r>
       <r>  21.7371   0.0000  12.0000 </r>
      </set>
      <set comment="spin 2">
       <r>  -7.5289   0.0000   0.0000 </r>
       <r>  -7.4313   0.0000   0.0000 </r>
       <r>  -7.3338   0.0000   0.0000 </r>
       <r>  -7.2362   0.0000   0.0000 </r>
       <r>  -7.1387   0.0000   0.0000 </r>
       <r>  -7.0411   0.0000   0.0000 </r>
       <r>  -6.9436   0.0000   0.0000 </r>
       <r>  -6.8460   0.0000   0.0000 </r>
       <r>  -6.7485   0.0000   0.0000 </r>
       <r>  -6.6509   0.0000   0.0000 </r>
       <r>  -6.5533   0.0000   0.0000 </r>
       <r>  -6.4558   0.0000   0.0000 </r>
       <r>  -6.3582   0.0000   0.0000 </r>
       <r>  -6.2607   0.0000   0.0000 </r>
       <r>  -6.1631   0.0027   0.0000 </r>
       <r>  -6.0656   0.0385   0.0017 </r>
       <r>  -5.9680   0.0772   0.0083 </r>
       <r>  -5.8705   0.0873   0.0161 </r>
       <r>  -5.7729   0.1056   0.0255 </r>
       <r>  -5.6754   0.1255   0.0367 </r>
       <r>  -5.5778   0.1422   0.0499 </r>
       <r>  -5.4803   0.1494   0.0642 </r>
       <r>  -5.3827   0.1588   0.0791 </r>
       <r>  -5.2852   0.1713   0.0952 </r>
       <r>  -5.1876   0.1843   0.1125 </r>
       <r>  -5.0900   0.1976   0.1312 </r>
       <r>  -4.9925   0.2115   0.1511 </r>
       <r>  -4.8949   0.2209   0.1722 </r>
       <r>  -4.7974   0.2323   0.1943 </r>
       <r>  -4.6998   0.2441   0.2176 </r>
       <r>  -4.6023   0.2568   0.2420 </r>
       <r>  -4.5047   0.2718   0.2677 </r>
       <r>  -4.4072   0.2889   0.2951 </r>
       <r>  -4.3096   0.3077   0.3242 </r>
       <r>  -4.2121   0.3281   0.3552 </r>
       <r>  -4.1145   0.3509   0.3882 </r>
       <r>  -4.0170   0.3946   0.4241 </r>
       <r>  -3.9194   0.5225   0.4681 </r>
       <r>  -3.8219   0.4321   0.5175 </r>
       <r>  -3.7243   0.4255   0.5593 </r>
       <r>  -3.6267   0.4201   0.6006 </r>
       <r>  -3.5292   0.4151   0.6413 </r>
       <r>  -3.4316   0.3906   0.6809 </r>
       <r>  -3.3341   0.3569   0.7169 </r>
       <r>  -3.2365   0.3594   0.7519 </r>
       <r>  -3.1390   0.3491   0.7866 </r>
       <r>  -3.0414   0.3324   0.8198 </r>
       <r>  -2.9439   0.3188   0.8515 </r>
       <r>  -2.8463   0.3094   0.8822 </r>
       <r>  -2.7488   0.2769   0.9111 </r>
       <r>  -2.6512   0.2320   0.9360 </r>
       <r>  -2.5537   0.1873   0.9564 </r>
       <r>  -2.4561   0.1440   0.9725 </r>
       <r>  -2.3586   0.1040   0.9846 </r>
       <r>  -2.2610   0.0673   0.9929 </r>
       <r>  -2.1634   0.0340   0.9979 </r>
       <r>  -2.0659   0.0107   0.9998 </r>
       <r>  -1.9683   0.0218   1.0011 </r>
       <r>  -1.8708   0.0519   1.0047 </r>
       <r>  -1.7732   0.0854   1.0113 </r>
       <r>  -1.6757   0.1224   1.0214 </r>
       <r>  -1.5781   0.1630   1.0353 </r>
       <r>  -1.4806   0.2075   1.0534 </r>
       <r>  -1.3830   0.2573   1.0760 </r>
       <r>  -1.2855   0.3126   1.1037 </r>
       <r>  -1.1879   0.4232   1.1391 </r>
       <r>  -1.0904   0.5554   1.1866 </r>
       <r>  -0.9928   0.8710   1.2608 </r>
       <r>  -0.8952   0.6169   1.3335 </r>
       <r>  -0.7977   0.4791   1.3864 </r>
       <r>  -0.7001   0.4091   1.4292 </r>
       <r>  -0.6026   0.3758   1.4675 </r>
       <r>  -0.5050   0.3454   1.5026 </r>
       <r>  -0.4075   0.3173   1.5349 </r>
       <r>  -0.3099   0.2917   1.5646 </r>
       <r>  -0.2124   0.2628   1.5917 </r>
       <r>  -0.1148   0.2358   1.6159 </r>
       <r>  -0.0173   0.2177   1.6380 </r>
       <r>   0.0803   0.2038   1.6585 </r>
       <r>   0.1778   0.1941   1.6779 </r>
       <r>   0.2754   0.1866   1.6964 </r>
       <r>   0.3729   0.1795   1.7143 </r>
       <r>   0.4705   0.1724   1.7315 </r>
       <r>   0.5681   0.1649   1.7479 </r>
       <r>   0.6656   0.1570   1.7636 </r>
       <r>   0.7632   0.1486   1.7785 </r>
       <r>   0.8607   0.1405   1.7926 </r>
       <r>   0.9583   0.1329   1.8060 </r>
       <r>   1.0558   0.1237   1.8185 </r>
       <r>   1.1534   0.1104   1.8299 </r>
       <r>   1.2509   0.1013   1.8402 </r>
       <r>   1.3485   0.0963   1.8498 </r>
       <r>   1.4460   0.1145   1.8593 </r>
       <r>   1.5436   0.3860   1.8823 </r>
       <r>   1.6411   0.7189   1.9360 </r>
       <r>   1.7387   0.6274   2.0026 </r>
       <r>   1.8362   0.5692   2.0604 </r>
       <r>   1.9338   0.5615   2.1154 </r>
       <r>   2.0314   0.5644   2.1703 </r>
       <r>   2.1289   0.5739   2.2257 </r>
       <r>   2.2265   0.5684   2.2819 </r>
       <r>   2.3240   0.5449   2.3453 </r>
       <r>   2.4216   0.5546   2.3989 </r>
       <r>   2.5191   0.5724   2.4537 </r>
       <r>   2.6167   0.6049   2.5110 </r>
       <r>   2.7142   0.6520   2.5722 </r>
       <r>   2.8118   0.7150   2.6390 </r>
       <r>   2.9093   0.7697   2.7114 </r>
       <r>   3.0069   0.8924   2.7955 </r>
       <r>   3.1044   0.7657   2.8729 </r>
       <r>   3.2020   0.7531   2.9470 </r>
       <r>   3.2995   0.7406   3.0199 </r>
       <r>   3.3971   0.7237   3.0914 </r>
       <r>   3.4947   0.7092   3.1610 </r>
       <r>   3.5922   0.7180   3.2307 </r>
       <r>   3.6898   0.7154   3.3007 </r>
       <r>   3.7873   0.7026   3.3699 </r>
       <r>   3.8849   0.6844   3.4376 </r>
       <r>   3.9824   0.6625   3.5033 </r>
       <r>   4.0800   0.6361   3.5667 </r>
       <r>   4.1775   0.6476   3.6294 </r>
       <r>   4.2751   0.6379   3.6923 </r>
       <r>   4.3726   0.5844   3.7526 </r>
       <r>   4.4702   0.4465   3.8034 </r>
       <r>   4.5677   0.3630   3.8421 </r>
       <r>   4.6653   0.3125   3.8750 </r>
       <r>   4.7628   0.2611   3.9030 </r>
       <r>   4.8604   0.2088   3.9259 </r>
       <r>   4.9580   0.1754   3.9446 </r>
       <r>   5.0555   0.1486   3.9604 </r>
       <r>   5.1531   0.1279   3.9738 </r>
       <r>   5.2506   0.1133   3.9855 </r>
       <r>   5.3482   0.0536   3.9952 </r>
       <r>   5.4457   0.0215   3.9988 </r>
       <r>   5.5433   0.0038   3.9999 </r>
       <r>   5.6408   0.0000   4.0000 </r>
       <r>   5.7384   0.0000   4.0000 </r>
       <r>   5.8359   0.0000   4.0000 </r>
       <r>   5.9335   0.0000   4.0000 </r>
       <r>   6.0310   0.0000   4.0000 </r>
       <r>   6.1286   0.0000   4.0000 </r>
       <r>   6.2261   0.0000   4.0000 </r>
       <r>   6.3237   0.0119   4.0002 </r>
       <r>   6.4213   0.0666   4.0041 </r>
       <r>   6.5188   0.0846   4.0118 </r>
       <r>   6.6164   0.1011   4.0205 </r>
       <r>   6.7139   0.1319   4.0318 </r>
       <r>   6.8115   0.1656   4.0463 </r>
       <r>   6.9090   0.1971   4.0641 </r>
       <r>   7.0066   0.2273   4.0847 </r>
       <r>   7.1041   0.2606   4.1085 </r>
       <r>   7.2017   0.3029   4.1359 </r>
       <r>   7.2992   0.3600   4.1681 </r>
       <r>   7.3968   0.4285   4.2065 </r>
       <r>   7.4943   0.5086   4.2521 </r>
       <r>   7.5919   0.6054   4.3062 </r>
       <r>   7.6895   0.7403   4.3718 </r>
       <r>   7.7870   0.9166   4.4525 </r>
       <r>   7.8846   1.0017   4.5469 </r>
       <r>   7.9821   1.0216   4.6460 </r>
       <r>   8.0797   1.0624   4.7466 </r>
       <r>   8.1772   1.0589   4.8515 </r>
       <r>   8.2748   0.8541   4.9466 </r>
       <r>   8.3723   0.6223   5.0179 </r>
       <r>   8.4699   0.4751   5.0707 </r>
       <r>   8.5674   0.2519   5.1021 </r>
       <r>   8.6650   0.2808   5.1269 </r>
       <r>   8.7625   0.3501   5.1577 </r>
       <r>   8.8601   0.4467   5.1961 </r>
       <r>   8.9576   0.5954   5.2465 </r>
       <r>   9.0552   0.9948   5.3200 </r>
       <r>   9.1528   1.7371   5.4542 </r>
       <r>   9.2503   1.3549   5.6289 </r>
       <r>   9.3479   0.8311   5.7281 </r>
       <r>   9.4454   0.7191   5.8014 </r>
       <r>   9.5430   0.7027   5.8710 </r>
       <r>   9.6405   0.6704   5.9381 </r>
       <r>   9.7381   0.6362   6.0016 </r>
       <r>   9.8356   0.6557   6.0641 </r>
       <r>   9.9332   0.8545   6.1430 </r>
       <r>  10.0307   0.5748   6.2117 </r>
       <r>  10.1283   0.4759   6.2613 </r>
       <r>  10.2258   0.4630   6.3071 </r>
       <r>  10.3234   0.4484   6.3516 </r>
       <r>  10.4209   0.4305   6.3945 </r>
       <r>  10.5185   0.4164   6.4358 </r>
       <r>  10.6161   0.4800   6.4771 </r>
       <r>  10.7136   0.6985   6.5348 </r>
       <r>  10.8112   0.8793   6.6156 </r>
       <r>  10.9087   0.7607   6.6918 </r>
       <r>  11.0063   0.7085   6.7637 </r>
       <r>  11.1038   0.6621   6.8301 </r>
       <r>  11.2014   0.6131   6.8926 </r>
       <r>  11.2989   0.5357   6.9487 </r>
       <r>  11.3965   0.4935   6.9984 </r>
       <r>  11.4940   0.5137   7.0472 </r>
       <r>  11.5916   0.4730   7.0952 </r>
       <r>  11.6891   0.4406   7.1397 </r>
       <r>  11.7867   0.4078   7.1811 </r>
       <r>  11.8842   0.4015   7.2200 </r>
       <r>  11.9818   0.4142   7.2598 </r>
       <r>  12.0794   0.4663   7.3021 </r>
       <r>  12.1769   0.5352   7.3517 </r>
       <r>  12.2745   0.5829   7.4063 </r>
       <r>  12.3720   0.6262   7.4653 </r>
       <r>  12.4696   0.6647   7.5283 </r>
       <r>  12.5671   0.7134   7.5951 </r>
       <r>  12.6647   0.7668   7.6680 </r>
       <r>  12.7622   0.7485   7.7422 </r>
       <r>  12.8598   0.6905   7.8130 </r>
       <r>  12.9573   0.6095   7.8765 </r>
       <r>  13.0549   0.6207   7.9361 </r>
       <r>  13.1524   0.6413   7.9976 </r>
       <r>  13.2500   0.6619   8.0612 </r>
       <r>  13.3475   0.6785   8.1267 </r>
       <r>  13.4451   0.6541   8.1919 </r>
       <r>  13.5427   0.7302   8.2607 </r>
       <r>  13.6402   0.7408   8.3322 </r>
       <r>  13.7378   0.6802   8.4025 </r>
       <r>  13.8353   0.5549   8.4622 </r>
       <r>  13.9329   0.5234   8.5144 </r>
       <r>  14.0304   0.5249   8.5655 </r>
       <r>  14.1280   0.5308   8.6170 </r>
       <r>  14.2255   0.5406   8.6692 </r>
       <r>  14.3231   0.5495   8.7224 </r>
       <r>  14.4206   0.5596   8.7765 </r>
       <r>  14.5182   0.5730   8.8317 </r>
       <r>  14.6157   0.5839   8.8882 </r>
       <r>  14.7133   0.6008   8.9459 </r>
       <r>  14.8108   0.6296   9.0058 </r>
       <r>  14.9084   0.6800   9.0695 </r>
       <r>  15.0060   0.7419   9.1388 </r>
       <r>  15.1035   0.8092   9.2144 </r>
       <r>  15.2011   0.8734   9.2966 </r>
       <r>  15.2986   0.9093   9.3839 </r>
       <r>  15.3962   0.8936   9.4726 </r>
       <r>  15.4937   0.8496   9.5575 </r>
       <r>  15.5913   0.8760   9.6400 </r>
       <r>  15.6888   0.8923   9.7301 </r>
       <r>  15.7864   0.7731   9.8080 </r>
       <r>  15.8839   0.7664   9.8830 </r>
       <r>  15.9815   0.7684   9.9578 </r>
       <r>  16.0790   0.6844  10.0310 </r>
       <r>  16.1766   0.6812  10.0962 </r>
       <r>  16.2742   0.6638  10.1635 </r>
       <r>  16.3717   0.4958  10.2222 </r>
       <r>  16.4693   0.3000  10.2600 </r>
       <r>  16.5668   0.2145  10.2845 </r>
       <r>  16.6644   0.2278  10.3058 </r>
       <r>  16.7619   0.2722  10.3296 </r>
       <r>  16.8595   0.3812  10.3614 </r>
       <r>  16.9570   0.4504  10.4024 </r>
       <r>  17.0546   0.4497  10.4471 </r>
       <r>  17.1521   0.4387  10.4906 </r>
       <r>  17.2497   0.4498  10.5335 </r>
       <r>  17.3472   0.4885  10.5793 </r>
       <r>  17.4448   0.5333  10.6290 </r>
       <r>  17.5423   0.5809  10.6835 </r>
       <r>  17.6399   0.6015  10.7414 </r>
       <r>  17.7375   0.6728  10.8024 </r>
       <r>  17.8350   0.7352  10.8713 </r>
       <r>  17.9326   0.8677  10.9498 </r>
       <r>  18.0301   0.9199  11.0380 </r>
       <r>  18.1277   0.8940  11.1264 </r>
       <r>  18.2252   1.0013  11.2167 </r>
       <r>  18.3228   0.8693  11.3114 </r>
       <r>  18.4203   0.8432  11.3949 </r>
       <r>  18.5179   0.8056  11.4755 </r>
       <r>  18.6154   0.8134  11.5540 </r>
       <r>  18.7130   0.6194  11.6268 </r>
       <r>  18.8105   0.3904  11.6727 </r>
       <r>  18.9081   0.3510  11.7087 </r>
       <r>  19.0056   0.3238  11.7416 </r>
       <r>  19.1032   0.3012  11.7720 </r>
       <r>  19.2008   0.2832  11.8005 </r>
       <r>  19.2983   0.2693  11.8274 </r>
       <r>  19.3959   0.2569  11.8531 </r>
       <r>  19.4934   0.2457  11.8776 </r>
       <r>  19.5910   0.2356  11.9010 </r>
       <r>  19.6885   0.2262  11.9236 </r>
       <r>  19.7861   0.1782  11.9448 </r>
       <r>  19.8836   0.1276  11.9580 </r>
       <r>  19.9812   0.1159  11.9699 </r>
       <r>  20.0787   0.1011  11.9805 </r>
       <r>  20.1763   0.0830  11.9895 </r>
       <r>  20.2738   0.0608  11.9965 </r>
       <r>  20.3714   0.0061  11.9999 </r>
       <r>  20.4689   0.0000  12.0000 </r>
       <r>  20.5665   0.0000  12.0000 </r>
       <r>  20.6641   0.0000  12.0000 </r>
       <r>  20.7616   0.0000  12.0000 </r>
       <r>  20.8592   0.0000  12.0000 </r>
       <r>  20.9567   0.0000  12.0000 </r>
       <r>  21.0543   0.0000  12.0000 </r>
       <r>  21.1518   0.0000  12.0000 </r>
       <r>  21.2494   0.0000  12.0000 </r>
       <r>  21.3469   0.0000  12.0000 </r>
       <r>  21.4445   0.0000  12.0000 </r>
       <r>  21.5420   0.0000  12.0000 </r>
       <r>  21.6396   0.0000  12.0000 </r>
       <r>  21.7371   0.0000  12.0000 </r>
      </set>
     </set>
    </array>
   </total>
   <partial>
    <array>
     <dimension dim="1">gridpoints</dimension>
     <dimension dim="2">spin</dimension>
     <dimension dim="3">ion</dimension>
     <field>energy</field>
     <field>  s</field>
     <field> py</field>
     <field> pz</field>
     <field> px</field>
     <field>dxy</field>
     <field>dyz</field>
     <field>dz2</field>
     <field>dxz</field>
     <field>dx2</field>
     <set>
      <set comment="ion 1">
       <set comment="spin 1">
[...]
        <r>  0.0141  0.0012  0.0023  0.0013  0.0000  0.0000  0.0000  0.0000  0.0000 </r>
       </set>
      </set>
      <set comment="kpoint 23">
       <set comment="band 1">
        <r>  0.2086  0.0016  0.0015  0.0169  0.0000  0.0000  0.0000  0.0000  0.0000 </r>
        <r>  0.2086  0.0016  0.0015  0.0169  0.0000  0.0000  0.0000  0.0000  0.0000 </r>
       </set>
       <set comment="band 2">
        <r>  0.1462  0.0112  0.0037  0.0668  0.0000  0.0000  0.0000  0.0000  0.0000 </r>
        <r>  0.1462  0.0112  0.0037  0.0668  0.0000  0.0000  0.0000  0.0000  0.0000 </r>
       </set>
       <set comment="band 3">
        <r>  0.0274  0.0544  0.0668  0.0323  0.0000  0.0000  0.0000  0.0000  0.0000 </r>
        <r>  0.0274  0.0544  0.0668  0.0323  0.0000  0.0000  0.0000  0.0000  0.0000 </r>
       </set>
       <set comment="band 4">
        <r>  0.0038  0.0851  0.0953  0.0109  0.0000  0.0000  0.0000  0.0000  0.0000 </r>
        <r>  0.0038  0.0851  0.0953  0.0109  0.0000  0.0000  0.0000  0.0000  0.0000 </r>
       </set>
       <set comment="band 5">
        <r>  0.0439  0.0381  0.0351  0.0149  0.0000  0.0000  0.0000  0.0000  0.0000 </r>
        <r>  0.0439  0.0381  0.0351  0.0149  0.0000  0.0000  0.0000  0.0000  0.0000 </r>
       </set>
       <set comment="band 6">
        <r>  0.0407  0.0500  0.0385  0.0028  0.0000  0.0000  0.0000  0.0000  0.0000 </r>
        <r>  0.0407  0.0500  0.0385  0.0028  0.0000  0.0000  0.0000  0.0000  0.0000 </r>
       </set>
       <set comment="band 7">
        <r>  0.0358  0.0480  0.0020  0.0384  0.0000  0.0000  0.0000  0.0000  0.0000 </r>
        <r>  0.0358  0.0480  0.0020  0.0384  0.0000  0.0000  0.0000  0.0000  0.0000 </r>
       </set>
       <set comment="band 8">
        <r>  0.0135  0.0546  0.0661  0.0005  0.0000  0.0000  0.0000  0.0000  0.0000 </r>
        <r>  0.0135  0.0546  0.0661  0.0005  0.0000  0.0000  0.0000  0.0000  0.0000 </r>
       </set>
       <set comment="band 9">
        <r>  0.0232  0.0012  0.0162  0.0610  0.0000  0.0000  0.0000  0.0000  0.0000 </r>
        <r>  0.0232  0.0012  0.0162  0.0610  0.0000  0.0000  0.0000  0.0000  0.0000 </r>
       </set>
       <set comment="band 10">
        <r>  0.0043  0.0115  0.0310  0.0805  0.0000  0.0000  0.0000  0.0000  0.0000 </r>
        <r>  0.0043  0.0115  0.0310  0.0805  0.0000  0.0000  0.0000  0.0000  0.0000 </r>
       </set>
       <set comment="band 11">
        <r>  0.0315  0.0058  0.0054  0.0028  0.0000  0.0000  0.0000  0.0000  0.0000 </r>
        <r>  0.0316  0.0058  0.0054  0.0027  0.0000  0.0000  0.0000  0.0000  0.0000 </r>
       </set>
       <set comment="band 12">
        <r>  0.0290  0.0088  0.0330  0.0839  0.0000  0.0000  0.0000  0.0000  0.0000 </r>
        <r>  0.0288  0.0087  0.0327  0.0853  0.0000  0.0000  0.0000  0.0000  0.0000 </r>
       </set>
      </set>
      <set comment="kpoint 24">
       <set comment="band 1">
        <r>  0.2183  0.0060  0.0020  0.0129  0.0000  0.0000  0.0000  0.0000  0.0000 </r>
        <r>  0.2183  0.0060  0.0020  0.0129  0.0000  0.0000  0.0000  0.0000  0.0000 </r>
       </set>
       <set comment="band 2">
        <r>  0.1350  0.0087  0.0011  0.0687  0.0000  0.0000  0.0000  0.0000  0.0000 </r>
        <r>  0.1350  0.0087  0.0011  0.0687  0.0000  0.0000  0.0000  0.0000  0.0000 </r>
       </set>
       <set comment="band 3">
        <r>  0.0369  0.0836  0.0338  0.0307  0.0000  0.0000  0.0000  0.0000  0.0000 </r>
        <r>  0.0369  0.0836  0.0338  0.0307  0.0000  0.0000  0.0000  0.0000  0.0000 </r>
       </set>
       <set comment="band 4">
        <r>  0.0008  0.0492  0.1317  0.0093  0.0000  0.0000  0.0000  0.0000  0.0000 </r>
        <r>  0.0008  0.0492  0.1317  0.0093  0.0000  0.0000  0.0000  0.0000  0.0000 </r>
       </set>
       <set comment="band 5">
        <r>  0.0808  0.0264  0.0386  0.0163  0.0000  0.0000  0.0000  0.0000  0.0000 </r>
        <r>  0.0808  0.0264  0.0386  0.0163  0.0000  0.0000  0.0000  0.0000  0.0000 </r>
       </set>
       <set comment="band 6">
        <r>  0.0078  0.0385  0.0400  0.0042  0.0000  0.0000  0.0000  0.0000  0.0000 </r>
        <r>  0.0078  0.0385  0.0400  0.0042  0.0000  0.0000  0.0000  0.0000  0.0000 </r>
       </set>
       <set comment="band 7">
        <r>  0.0231  0.0595  0.0572  0.0055  0.0000  0.0000  0.0000  0.0000  0.0000 </r>
        <r>  0.0231  0.0595  0.0572  0.0055  0.0000  0.0000  0.0000  0.0000  0.0000 </r>
       </set>
       <set comment="band 8">
        <r>  0.0137  0.0198  0.0115  0.0434  0.0000  0.0000  0.0000  0.0000  0.0000 </r>
        <r>  0.0137  0.0198  0.0115  0.0434  0.0000  0.0000  0.0000  0.0000  0.0000 </r>
       </set>
       <set comment="band 9">
        <r>  0.0200  0.0531  0.0182  0.0621  0.0000  0.0000  0.0000  0.0000  0.0000 </r>
        <r>  0.0200  0.0531  0.0182  0.0621  0.0000  0.0000  0.0000  0.0000  0.0000 </r>
       </set>
       <set comment="band 10">
        <r>  0.0000  0.0036  0.0010  0.0431  0.0000  0.0000  0.0000  0.0000  0.0000 </r>
        <r>  0.0000  0.0035  0.0010  0.0432  0.0000  0.0000  0.0000  0.0000  0.0000 </r>
       </set>
       <set comment="band 11">
        <r>  0.0149  0.0046  0.0575  0.0588  0.0000  0.0000  0.0000  0.0000  0.0000 </r>
        <r>  0.0149  0.0045  0.0575  0.0588  0.0000  0.0000  0.0000  0.0000  0.0000 </r>
       </set>
       <set comment="band 12">
        <r>  0.0438  0.0070  0.0010  0.0312  0.0000  0.0000  0.0000  0.0000  0.0000 </r>
        <r>  0.0438  0.0068  0.0010  0.0312  0.0000  0.0000  0.0000  0.0000  0.0000 </r>
       </set>
      </set>
      <set comment="kpoint 25">
       <set comment="band 1">
        <r>  0.2035  0.0051  0.0013  0.0193  0.0000  0.0000  0.0000  0.0000  0.0000 </r>
        <r>  0.2035  0.0051  0.0013  0.0193  0.0000  0.0000  0.0000  0.0000  0.0000 </r>
       </set>
       <set comment="band 2">
        <r>  0.1823  0.0143  0.0081  0.0433  0.0000  0.0000  0.0000  0.0000  0.0000 </r>
        <r>  0.1823  0.0143  0.0081  0.0433  0.0000  0.0000  0.0000  0.0000  0.0000 </r>
       </set>
       <set comment="band 3">
        <r>  0.0083  0.0344  0.0752  0.0562  0.0000  0.0000  0.0000  0.0000  0.0000 </r>
        <r>  0.0083  0.0344  0.0752  0.0562  0.0000  0.0000  0.0000  0.0000  0.0000 </r>
       </set>
       <set comment="band 4">
        <r>  0.0007  0.0948  0.0759  0.0097  0.0000  0.0000  0.0000  0.0000  0.0000 </r>
        <r>  0.0007  0.0948  0.0759  0.0097  0.0000  0.0000  0.0000  0.0000  0.0000 </r>
       </set>
       <set comment="band 5">
        <r>  0.0368  0.0484  0.0226  0.0129  0.0000  0.0000  0.0000  0.0000  0.0000 </r>
        <r>  0.0368  0.0484  0.0226  0.0129  0.0000  0.0000  0.0000  0.0000  0.0000 </r>
       </set>
       <set comment="band 6">
        <r>  0.0391  0.0033  0.0157  0.0345  0.0000  0.0000  0.0000  0.0000  0.0000 </r>
        <r>  0.0391  0.0033  0.0157  0.0345  0.0000  0.0000  0.0000  0.0000  0.0000 </r>
       </set>
       <set comment="band 7">
        <r>  0.0339  0.0620  0.0489  0.0073  0.0000  0.0000  0.0000  0.0000  0.0000 </r>
        <r>  0.0339  0.0620  0.0489  0.0073  0.0000  0.0000  0.0000  0.0000  0.0000 </r>
       </set>
       <set comment="band 8">
        <r>  0.0026  0.0670  0.0767  0.0169  0.0000  0.0000  0.0000  0.0000  0.0000 </r>
        <r>  0.0026  0.0671  0.0767  0.0168  0.0000  0.0000  0.0000  0.0000  0.0000 </r>
       </set>
       <set comment="band 9">
        <r>  0.0407  0.0119  0.0031  0.0573  0.0000  0.0000  0.0000  0.0000  0.0000 </r>
        <r>  0.0407  0.0119  0.0031  0.0573  0.0000  0.0000  0.0000  0.0000  0.0000 </r>
       </set>
       <set comment="band 10">
        <r>  0.0065  0.0066  0.0280  0.0768  0.0000  0.0000  0.0000  0.0000  0.0000 </r>
        <r>  0.0065  0.0066  0.0280  0.0768  0.0000  0.0000  0.0000  0.0000  0.0000 </r>
       </set>
       <set comment="band 11">
        <r>  0.0229  0.0157  0.0512  0.0906  0.0000  0.0000  0.0000  0.0000  0.0000 </r>
        <r>  0.0230  0.0156  0.0506  0.0923  0.0000  0.0000  0.0000  0.0000  0.0000 </r>
       </set>
       <set comment="band 12">
        <r>  0.0204  0.0140  0.0091  0.0061  0.0000  0.0000  0.0000  0.0000  0.0000 </r>
        <r>  0.0209  0.0135  0.0089  0.0071  0.0000  0.0000  0.0000  0.0000  0.0000 </r>
       </set>
      </set>
      <set comment="kpoint 26">
       <set comment="band 1">
        <r>  0.2095  0.0094  0.0020  0.0192  0.0000  0.0000  0.0000  0.0000  0.0000 </r>
        <r>  0.2095  0.0094  0.0020  0.0192  0.0000  0.0000  0.0000  0.0000  0.0000 </r>
       </set>
       <set comment="band 2">
        <r>  0.1845  0.0117  0.0028  0.0416  0.0000  0.0000  0.0000  0.0000  0.0000 </r>
        <r>  0.1845  0.0117  0.0028  0.0416  0.0000  0.0000  0.0000  0.0000  0.0000 </r>
       </set>
       <set comment="band 3">
        <r>  0.0069  0.0901  0.0089  0.0551  0.0000  0.0000  0.0000  0.0000  0.0000 </r>
        <r>  0.0069  0.0901  0.0089  0.0551  0.0000  0.0000  0.0000  0.0000  0.0000 </r>
       </set>
       <set comment="band 4">
        <r>  0.0017  0.0217  0.1481  0.0061  0.0000  0.0000  0.0000  0.0000  0.0000 </r>
        <r>  0.0017  0.0217  0.1481  0.0061  0.0000  0.0000  0.0000  0.0000  0.0000 </r>
       </set>
       <set comment="band 5">
        <r>  0.0387  0.0182  0.0388  0.0149  0.0000  0.0000  0.0000  0.0000  0.0000 </r>
        <r>  0.0387  0.0182  0.0388  0.0149  0.0000  0.0000  0.0000  0.0000  0.0000 </r>
       </set>
       <set comment="band 6">
        <r>  0.0166  0.0498  0.0051  0.0300  0.0000  0.0000  0.0000  0.0000  0.0000 </r>
        <r>  0.0166  0.0498  0.0051  0.0300  0.0000  0.0000  0.0000  0.0000  0.0000 </r>
       </set>
       <set comment="band 7">
        <r>  0.0443  0.0549  0.0422  0.0116  0.0000  0.0000  0.0000  0.0000  0.0000 </r>
        <r>  0.0443  0.0549  0.0422  0.0116  0.0000  0.0000  0.0000  0.0000  0.0000 </r>
       </set>
       <set comment="band 8">
        <r>  0.0237  0.0160  0.0429  0.0635  0.0000  0.0000  0.0000  0.0000  0.0000 </r>
        <r>  0.0237  0.0160  0.0429  0.0635  0.0000  0.0000  0.0000  0.0000  0.0000 </r>
       </set>
       <set comment="band 9">
        <r>  0.0114  0.0609  0.0517  0.0069  0.0000  0.0000  0.0000  0.0000  0.0000 </r>
        <r>  0.0114  0.0609  0.0517  0.0069  0.0000  0.0000  0.0000  0.0000  0.0000 </r>
       </set>
       <set comment="band 10">
        <r>  0.0066  0.0115  0.0133  0.0776  0.0000  0.0000  0.0000  0.0000  0.0000 </r>
        <r>  0.0067  0.0115  0.0133  0.0776  0.0000  0.0000  0.0000  0.0000  0.0000 </r>
       </set>
       <set comment="band 11">
        <r>  0.0216  0.0073  0.0335  0.0673  0.0000  0.0000  0.0000  0.0000  0.0000 </r>
        <r>  0.0215  0.0073  0.0335  0.0672  0.0000  0.0000  0.0000  0.0000  0.0000 </r>
       </set>
       <set comment="band 12">
        <r>  0.0071  0.0533  0.0169  0.0074  0.0000  0.0000  0.0000  0.0000  0.0000 </r>
        <r>  0.0069  0.0529  0.0166  0.0077  0.0000  0.0000  0.0000  0.0000  0.0000 </r>
       </set>
      </set>
      <set comment="kpoint 27">
       <set comment="band 1">
        <r>  0.2104  0.0140  0.0022  0.0109  0.0000  0.0000  0.0000  0.0000  0.0000 </r>
        <r>  0.2104  0.0140  0.0022  0.0109  0.0000  0.0000  0.0000  0.0000  0.0000 </r>
       </set>
       <set comment="band 2">
        <r>  0.1799  0.0278  0.0023  0.0312  0.0000  0.0000  0.0000  0.0000  0.0000 </r>
        <r>  0.1799  0.0278  0.0023  0.0312  0.0000  0.0000  0.0000  0.0000  0.0000 </r>
       </set>
       <set comment="band 3">
        <r>  0.0060  0.0786  0.0009  0.0723  0.0000  0.0000  0.0000  0.0000  0.0000 </r>
        <r>  0.0060  0.0786  0.0009  0.0723  0.0000  0.0000  0.0000  0.0000  0.0000 </r>
       </set>
       <set comment="band 4">
        <r>  0.0034  0.0066  0.1600  0.0130  0.0000  0.0000  0.0000  0.0000  0.0000 </r>
        <r>  0.0034  0.0066  0.1600  0.0130  0.0000  0.0000  0.0000  0.0000  0.0000 </r>
       </set>
       <set comment="band 5">
        <r>  0.0389  0.0141  0.0396  0.0236  0.0000  0.0000  0.0000  0.0000  0.0000 </r>
        <r>  0.0389  0.0141  0.0396  0.0236  0.0000  0.0000  0.0000  0.0000  0.0000 </r>
       </set>
       <set comment="band 6">
        <r>  0.0181  0.0106  0.0776  0.0193  0.0000  0.0000  0.0000  0.0000  0.0000 </r>
        <r>  0.0181  0.0106  0.0776  0.0193  0.0000  0.0000  0.0000  0.0000  0.0000 </r>
       </set>
       <set comment="band 7">
        <r>  0.0437  0.0462  0.0009  0.0362  0.0000  0.0000  0.0000  0.0000  0.0000 </r>
        <r>  0.0437  0.0462  0.0009  0.0362  0.0000  0.0000  0.0000  0.0000  0.0000 </r>
       </set>
       <set comment="band 8">
        <r>  0.0187  0.0601  0.0045  0.0384  0.0000  0.0000  0.0000  0.0000  0.0000 </r>
        <r>  0.0187  0.0601  0.0045  0.0384  0.0000  0.0000  0.0000  0.0000  0.0000 </r>
       </set>
       <set comment="band 9">
        <r>  0.0124  0.0316  0.0622  0.0585  0.0000  0.0000  0.0000  0.0000  0.0000 </r>
        <r>  0.0124  0.0316  0.0622  0.0585  0.0000  0.0000  0.0000  0.0000  0.0000 </r>
       </set>
       <set comment="band 10">
        <r>  0.0284  0.0435  0.0113  0.0251  0.0000  0.0000  0.0000  0.0000  0.0000 </r>
        <r>  0.0284  0.0435  0.0113  0.0251  0.0000  0.0000  0.0000  0.0000  0.0000 </r>
       </set>
       <set comment="band 11">
        <r>  0.0106  0.0244  0.0048  0.0324  0.0000  0.0000  0.0000  0.0000  0.0000 </r>
        <r>  0.0116  0.0240  0.0067  0.0346  0.0000  0.0000  0.0000  0.0000  0.0000 </r>
       </set>
       <set comment="band 12">
        <r>  0.0060  0.0412  0.0007  0.0564  0.0000  0.0000  0.0000  0.0000  0.0000 </r>
        <r>  0.0072  0.0433  0.0001  0.0542  0.0000  0.0000  0.0000  0.0000  0.0000 </r>
       </set>
      </set>
      <set comment="kpoint 28">
       <set comment="band 1">
        <r>  0.1987  0.0136  0.0027  0.0261  0.0000  0.0000  0.0000  0.0000  0.0000 </r>
        <r>  0.1976  0.0137  0.0028  0.0263  0.0000  0.0000  0.0000  0.0000  0.0000 </r>
       </set>
       <set comment="band 2">
        <r>  0.1976  0.0148  0.0020  0.0260  0.0000  0.0000  0.0000  0.0000  0.0000 </r>
        <r>  0.1987  0.0147  0.0019  0.0258  0.0000  0.0000  0.0000  0.0000  0.0000 </r>
       </set>
       <set comment="band 3">
        <r>  0.0025  0.1094  0.0245  0.0366  0.0000  0.0000  0.0000  0.0000  0.0000 </r>
        <r>  0.0025  0.1094  0.0245  0.0366  0.0000  0.0000  0.0000  0.0000  0.0000 </r>
       </set>
       <set comment="band 4">
        <r>  0.0025  0.0043  0.1293  0.0369  0.0000  0.0000  0.0000  0.0000  0.0000 </r>
        <r>  0.0025  0.0043  0.1293  0.0369  0.0000  0.0000  0.0000  0.0000  0.0000 </r>
       </set>
       <set comment="band 5">
        <r>  0.0402  0.0359  0.0007  0.0294  0.0000  0.0000  0.0000  0.0000  0.0000 </r>
        <r>  0.0390  0.0361  0.0006  0.0299  0.0000  0.0000  0.0000  0.0000  0.0000 </r>
       </set>
       <set comment="band 6">
        <r>  0.0390  0.0082  0.0393  0.0190  0.0000  0.0000  0.0000  0.0000  0.0000 </r>
        <r>  0.0402  0.0081  0.0394  0.0185  0.0000  0.0000  0.0000  0.0000  0.0000 </r>
       </set>
       <set comment="band 7">
        <r>  0.0375  0.0181  0.0707  0.0354  0.0000  0.0000  0.0000  0.0000  0.0000 </r>
        <r>  0.0044  0.0193  0.0504  0.0582  0.0000  0.0000  0.0000  0.0000  0.0000 </r>
       </set>
       <set comment="band 8">
        <r>  0.0044  0.0660  0.0273  0.0346  0.0000  0.0000  0.0000  0.0000  0.0000 </r>
        <r>  0.0375  0.0647  0.0476  0.0119  0.0000  0.0000  0.0000  0.0000  0.0000 </r>
       </set>
       <set comment="band 9">
        <r>  0.0006  0.0699  0.0148  0.0247  0.0000  0.0000  0.0000  0.0000  0.0000 </r>
        <r>  0.0004  0.0792  0.0238  0.0345  0.0000  0.0000  0.0000  0.0000  0.0000 </r>
       </set>
       <set comment="band 10">
        <r>  0.0004  0.0124  0.0873  0.0377  0.0000  0.0000  0.0000  0.0000  0.0000 </r>
        <r>  0.0006  0.0030  0.0783  0.0281  0.0000  0.0000  0.0000  0.0000  0.0000 </r>
       </set>
       <set comment="band 11">
        <r>  0.0130  0.0467  0.0105  0.0790  0.0000  0.0000  0.0000  0.0000  0.0000 </r>
        <r>  0.0358  0.0175  0.0037  0.0283  0.0000  0.0000  0.0000  0.0000  0.0000 </r>
       </set>
       <set comment="band 12">
        <r>  0.0360  0.0157  0.0041  0.0305  0.0000  0.0000  0.0000  0.0000  0.0000 </r>
        <r>  0.0132  0.0445  0.0109  0.0815  0.0000  0.0000  0.0000  0.0000  0.0000 </r>
       </set>
      </set>
      <set comment="kpoint 29">
       <set comment="band 1">
        <r>  0.2047  0.0136  0.0102  0.0170  0.0000  0.0000  0.0000  0.0000  0.0000 </r>
        <r>  0.2038  0.0136  0.0102  0.0171  0.0000  0.0000  0.0000  0.0000  0.0000 </r>
       </set>
       <set comment="band 2">
        <r>  0.2038  0.0136  0.0102  0.0171  0.0000  0.0000  0.0000  0.0000  0.0000 </r>
        <r>  0.2047  0.0136  0.0102  0.0170  0.0000  0.0000  0.0000  0.0000  0.0000 </r>
       </set>
       <set comment="band 3">
        <r>  0.0000  0.0511  0.0984  0.0101  0.0000  0.0000  0.0000  0.0000  0.0000 </r>
        <r>  0.0000  0.0513  0.0982  0.0105  0.0000  0.0000  0.0000  0.0000  0.0000 </r>
       </set>
       <set comment="band 4">
        <r>  0.0000  0.0554  0.0160  0.0886  0.0000  0.0000  0.0000  0.0000  0.0000 </r>
        <r>  0.0000  0.0553  0.0162  0.0882  0.0000  0.0000  0.0000  0.0000  0.0000 </r>
       </set>
       <set comment="band 5">
        <r>  0.0000  0.0296  0.0423  0.0157  0.0000  0.0000  0.0000  0.0000  0.0000 </r>
        <r>  0.0000  0.0282  0.0402  0.0150  0.0000  0.0000  0.0000  0.0000  0.0000 </r>
       </set>
       <set comment="band 6">
        <r>  0.0000  0.0274  0.0432  0.0128  0.0000  0.0000  0.0000  0.0000  0.0000 </r>
        <r>  0.0000  0.0289  0.0453  0.0135  0.0000  0.0000  0.0000  0.0000  0.0000 </r>
       </set>
       <set comment="band 7">
        <r>  0.0603  0.0359  0.0269  0.0448  0.0000  0.0000  0.0000  0.0000  0.0000 </r>
        <r>  0.0628  0.0344  0.0258  0.0431  0.0000  0.0000  0.0000  0.0000  0.0000 </r>
       </set>
       <set comment="band 8">
        <r>  0.0628  0.0344  0.0258  0.0431  0.0000  0.0000  0.0000  0.0000  0.0000 </r>
        <r>  0.0603  0.0359  0.0269  0.0448  0.0000  0.0000  0.0000  0.0000  0.0000 </r>
       </set>
       <set comment="band 9">
        <r>  0.0000  0.0693  0.0002  0.0613  0.0000  0.0000  0.0000  0.0000  0.0000 </r>
        <r>  0.0000  0.0723  0.0010  0.0665  0.0000  0.0000  0.0000  0.0000  0.0000 </r>
       </set>
       <set comment="band 10">
        <r>  0.0000  0.0209  0.0868  0.0321  0.0000  0.0000  0.0000  0.0000  0.0000 </r>
        <r>  0.0000  0.0179  0.0861  0.0268  0.0000  0.0000  0.0000  0.0000  0.0000 </r>
       </set>
       <set comment="band 11">
        <r>  0.0269  0.0324  0.0243  0.0404  0.0000  0.0000  0.0000  0.0000  0.0000 </r>
        <r>  0.0239  0.0365  0.0274  0.0456  0.0000  0.0000  0.0000  0.0000  0.0000 </r>
       </set>
       <set comment="band 12">
        <r>  0.0239  0.0364  0.0273  0.0458  0.0000  0.0000  0.0000  0.0000  0.0000 </r>
        <r>  0.0269  0.0323  0.0242  0.0405  0.0000  0.0000  0.0000  0.0000  0.0000 </r>
       </set>
      </set>
     </set>
    </set>
   </array>
  </projected>
 </calculation>
 <structure name="finalpos" >
  <crystal>
   <varray name="basis" >
    <v>       3.34923553      -0.00000000       1.93368206 </v>
    <v>       1.11641151       3.15768944       1.93368206 </v>
    <v>       0.00000000       0.00000000       3.86736311 </v>
   </varray>
   <i name="volume">     40.90063542 </i>
   <varray name="rec_basis" >
    <v>       0.29857560      -0.10556239      -0.00000000 </v>
    <v>       0.00000000       0.31668725      -0.00000000 </v>
    <v>      -0.14928784      -0.10556246       0.25857412 </v>
   </varray>
  </crystal>
  <varray name="positions" >
   <v>       0.87500000       0.87500000       0.87500000 </v>
   <v>       0.12500000       0.12500000       0.12500000 </v>
  </varray>
 </structure>
</modeling>
