<?xml version="1.0" encoding="ISO-8859-1"?>
<modeling>
 <generator>
  <i name="program" type="string">vasp </i>
  <i name="version" type="string">5.2.2  </i>
  <i name="subversion" type="string">15Apr09 complex  parallel </i>
  <i name="platform" type="string">LinuxIFC </i>
  <i name="date" type="string">2016 04 11 </i>
  <i name="time" type="string">20:10:44 </i>
 </generator>
 <incar>
  <i type="string" name="PREC">accurate</i>
  <i type="string" name="ALGO"> Fast</i>
  <i type="int" name="ISPIN">     2</i>
  <i type="int" name="ICHARG">     1</i>
  <i type="int" name="NELM">   100</i>
  <i type="int" name="IBRION">     2</i>
  <i name="EDIFF">      0.00010000</i>
  <i type="int" name="NSW">    99</i>
  <i type="int" name="ISIF">     3</i>
  <i name="ENCUT">    520.00000000</i>
  <v name="MAGMOM">      0.60000000      0.60000000</v>
  <i type="string" name="LREAL"> Auto</i>
  <i type="int" name="ISMEAR">    -5</i>
  <i name="SIGMA">      0.05000000</i>
  <i type="logical" name="LWAVE"> F  </i>
  <i type="logical" name="LORBIT"> F  </i>
  <i type="int" name="NELM">   100</i>
  <i type="logical" name="LPEAD"> F  </i>
  <i type="logical" name="LCALCPOL"> F  </i>
  <i type="logical" name="LCALCEPS"> F  </i>
  <v name="EFIELD_PEAD">      0.00000000      0.00000000      0.00000000</v>
  <i type="logical" name="LEFG"> F  </i>
 </incar>
 <kpoints>
  <generation param="Gamma">
   <v type="int" name="divisions">       8        8        8 </v>
   <v name="usershift">      0.00000000       0.00000000       0.00000000 </v>
   <v name="genvec1">      0.12500000       0.00000000       0.00000000 </v>
   <v name="genvec2">      0.00000000       0.12500000       0.00000000 </v>
   <v name="genvec3">      0.00000000       0.00000000       0.12500000 </v>
   <v name="shift">      0.00000000       0.00000000       0.00000000 </v>
  </generation>
  <varray name="kpointlist" >
   <v>       0.00000000       0.00000000       0.00000000 </v>
   <v>       0.12500000       0.00000000       0.00000000 </v>
   <v>       0.25000000       0.00000000       0.00000000 </v>
   <v>       0.37500000       0.00000000       0.00000000 </v>
   <v>       0.50000000       0.00000000       0.00000000 </v>
   <v>       0.12500000       0.12500000       0.00000000 </v>
   <v>       0.25000000       0.12500000       0.00000000 </v>
   <v>       0.37500000       0.12500000       0.00000000 </v>
   <v>       0.50000000       0.12500000       0.00000000 </v>
   <v>      -0.37500000       0.12500000       0.00000000 </v>
   <v>      -0.25000000       0.12500000       0.00000000 </v>
   <v>      -0.12500000       0.12500000       0.00000000 </v>
   <v>       0.25000000       0.25000000       0.00000000 </v>
   <v>       0.37500000       0.25000000       0.00000000 </v>
   <v>       0.50000000       0.25000000       0.00000000 </v>
   <v>      -0.37500000       0.25000000       0.00000000 </v>
   <v>      -0.25000000       0.25000000       0.00000000 </v>
   <v>       0.37500000       0.37500000       0.00000000 </v>
   <v>       0.50000000       0.37500000       0.00000000 </v>
   <v>      -0.37500000       0.37500000       0.00000000 </v>
   <v>       0.50000000       0.50000000       0.00000000 </v>
   <v>       0.37500000       0.25000000       0.12500000 </v>
   <v>       0.50000000       0.25000000       0.12500000 </v>
   <v>      -0.37500000       0.25000000       0.12500000 </v>
   <v>       0.50000000       0.37500000       0.12500000 </v>
   <v>      -0.37500000       0.37500000       0.12500000 </v>
   <v>      -0.25000000       0.37500000       0.12500000 </v>
   <v>      -0.37500000       0.50000000       0.12500000 </v>
   <v>      -0.25000000       0.50000000       0.25000000 </v>
  </varray>
  <varray name="weights" >
   <v>       0.00195312 </v>
   <v>       0.01562500 </v>
   <v>       0.01562500 </v>
   <v>       0.01562500 </v>
   <v>       0.00781250 </v>
   <v>       0.01171875 </v>
   <v>       0.04687500 </v>
   <v>       0.04687500 </v>
   <v>       0.04687500 </v>
   <v>       0.04687500 </v>
   <v>       0.04687500 </v>
   <v>       0.02343750 </v>
   <v>       0.01171875 </v>
   <v>       0.04687500 </v>
   <v>       0.04687500 </v>
   <v>       0.04687500 </v>
   <v>       0.02343750 </v>
   <v>       0.01171875 </v>
   <v>       0.04687500 </v>
   <v>       0.02343750 </v>
   <v>       0.00585938 </v>
   <v>       0.04687500 </v>
   <v>       0.09375000 </v>
   <v>       0.04687500 </v>
   <v>       0.04687500 </v>
   <v>       0.09375000 </v>
   <v>       0.04687500 </v>
   <v>       0.02343750 </v>
   <v>       0.01171875 </v>
  </varray>
  <varray name="tetrahedronlist"  type="int" >
   <v type="int" >       24        1        2        2        6 </v>
   <v type="int" >       48        2        6        7       12 </v>
   <v type="int" >       48        2        3        7       12 </v>
   <v type="int" >       24        2        2        6       12 </v>
   <v type="int" >       48        3        7        8       11 </v>
   <v type="int" >       48        3        4        8       11 </v>
   <v type="int" >       48        3        7       11       12 </v>
   <v type="int" >       48        4        8        9       10 </v>
   <v type="int" >       48        4        5        9       10 </v>
   <v type="int" >       48        4        8       10       11 </v>
   <v type="int" >       48        5        9        9       10 </v>
   <v type="int" >       24        6        7        7       13 </v>
   <v type="int" >       24        6        7        7       12 </v>
   <v type="int" >       48        7       13       14       22 </v>
   <v type="int" >       48        7        8       14       22 </v>
   <v type="int" >       48        7        8       11       22 </v>
   <v type="int" >       24        7        7       13       22 </v>
   <v type="int" >       24        7        7       12       22 </v>
   <v type="int" >       48        7       11       12       22 </v>
   <v type="int" >       48        8       14       15       23 </v>
   <v type="int" >       48        8        9       15       23 </v>
   <v type="int" >       48        8        9       10       23 </v>
   <v type="int" >       48        8       14       22       23 </v>
   <v type="int" >       48        8       11       22       23 </v>
   <v type="int" >       48        8       10       11       23 </v>
   <v type="int" >       48        9       15       16       24 </v>
   <v type="int" >       48        9       10       16       24 </v>
   <v type="int" >       48        9        9       10       24 </v>
   <v type="int" >       48        9       15       23       24 </v>
   <v type="int" >       48        9       10       23       24 </v>
   <v type="int" >       48       10       16       17       23 </v>
   <v type="int" >       48       10       11       17       23 </v>
   <v type="int" >       48       10       16       23       24 </v>
   <v type="int" >       24       11       11       17       22 </v>
   <v type="int" >       24       11       11       12       22 </v>
   <v type="int" >       48       11       17       22       23 </v>
   <v type="int" >       24       13       14       14       18 </v>
   <v type="int" >       24       13       14       14       22 </v>
   <v type="int" >       48       14       18       19       25 </v>
   <v type="int" >       48       14       15       19       25 </v>
   <v type="int" >       48       14       15       23       25 </v>
   <v type="int" >       24       14       14       18       25 </v>
   <v type="int" >       24       14       14       22       25 </v>
   <v type="int" >       48       14       22       23       25 </v>
   <v type="int" >       48       15       19       20       26 </v>
   <v type="int" >       48       15       16       20       26 </v>
   <v type="int" >       48       15       16       24       26 </v>
   <v type="int" >       48       15       19       25       26 </v>
   <v type="int" >       48       15       23       25       26 </v>
   <v type="int" >       48       15       23       24       26 </v>
   <v type="int" >       24       16       16       20       27 </v>
   <v type="int" >       24       16       16       17       27 </v>
   <v type="int" >       48       16       17       23       27 </v>
   <v type="int" >       48       16       20       26       27 </v>
   <v type="int" >       48       16       24       26       27 </v>
   <v type="int" >       48       16       23       24       27 </v>
   <v type="int" >       24       17       23       23       27 </v>
   <v type="int" >       24       17       22       23       23 </v>
   <v type="int" >       24       18       19       19       21 </v>
   <v type="int" >       24       18       19       19       25 </v>
   <v type="int" >       48       19       19       21       28 </v>
   <v type="int" >       24       19       19       20       28 </v>
   <v type="int" >       48       19       20       26       28 </v>
   <v type="int" >       24       19       19       25       28 </v>
   <v type="int" >       48       19       25       26       28 </v>
   <v type="int" >       24       20       26       26       28 </v>
   <v type="int" >       24       20       26       26       27 </v>
   <v type="int" >       24       22       23       23       25 </v>
   <v type="int" >       48       23       25       26       27 </v>
   <v type="int" >       48       23       24       26       27 </v>
   <v type="int" >       24       23       23       25       27 </v>
   <v type="int" >       48       24       26       26       27 </v>
   <v type="int" >       24       25       26       26       28 </v>
   <v type="int" >       24       25       26       26       27 </v>
   <v type="int" >       48       26       26       28       29 </v>
   <v type="int" >       96       26       26       27       29 </v>
  </varray>
  <i name="volumeweight">      0.00032552 </i>
 </kpoints>
 <parameters>
  <separator name="general" >
   <i type="string" name="SYSTEM">unknown system</i>
   <i type="logical" name="LCOMPAT"> F  </i>
  </separator>
  <separator name="electronic" >
   <i type="string" name="PREC">accura</i>
   <i name="ENMAX">    520.00000000</i>
   <i name="ENAUG">    322.06900000</i>
   <i name="EDIFF">      0.00010000</i>
   <i type="int" name="IALGO">    68</i>
   <i type="int" name="IWAVPR">    11</i>
   <i type="int" name="NBANDS">    12</i>
   <i name="NELECT">      8.00000000</i>
   <separator name="electronic smearing" >
    <i type="int" name="ISMEAR">    -5</i>
    <i name="SIGMA">      0.05000000</i>
   </separator>
   <separator name="electronic projectors" >
    <i type="logical" name="LREAL"> T  </i>
    <v name="ROPT">     -0.00025000</v>
    <i type="int" name="LMAXPAW">  -100</i>
    <i type="int" name="LMAXMIX">     2</i>
   </separator>
   <separator name="electronic startup" >
    <i type="int" name="ISTART">     0</i>
    <i type="int" name="ICHARG">     1</i>
    <i type="int" name="INIWAV">     1</i>
   </separator>
   <separator name="electronic spin" >
    <i type="int" name="ISPIN">     2</i>
    <i type="logical" name="LNONCOLLINEAR"> F  </i>
    <v name="MAGMOM">      0.60000000      0.60000000</v>
    <i name="NUPDOWN">     -1.00000000</i>
    <i type="logical" name="LSORBIT"> F  </i>
    <v name="SAXIS">      0.00000000      0.00000000      1.00000000</v>
    <i type="logical" name="LSPIRAL"> F  </i>
    <v name="QSPIRAL">      0.00000000      0.00000000      0.00000000</v>
    <i type="logical" name="LZEROZ"> F  </i>
   </separator>
   <separator name="electronic exchange-correlation" >
    <i type="logical" name="LASPH"> F  </i>
    <i type="logical" name="LMETAGGA"> F  </i>
   </separator>
   <separator name="electronic convergence" >
    <i type="int" name="NELM">   100</i>
    <i type="int" name="NELMDL">    -5</i>
    <i type="int" name="NELMIN">     2</i>
    <i name="ENINI">    520.00000000</i>
    <separator name="electronic convergence detail" >
     <i type="logical" name="LDIAG"> T  </i>
     <i name="WEIMIN">      0.00100000</i>
     <i name="EBREAK">      0.00000278</i>
     <i name="DEPER">      0.30000000</i>
     <i type="int" name="NRMM">     4</i>
     <i name="TIME">      0.40000000</i>
    </separator>
   </separator>
   <separator name="electronic mixer" >
    <i name="AMIX">      0.40000000</i>
    <i name="BMIX">      1.00000000</i>
    <i name="AMIN">      0.10000000</i>
    <i name="AMIX_MAG">      1.60000000</i>
    <i name="BMIX_MAG">      1.00000000</i>
    <separator name="electronic mixer details" >
     <i type="int" name="IMIX">     4</i>
     <i type="int" name="MAXMIX">   -45</i>
     <i name="WC">    100.00000000</i>
     <i type="int" name="INIMIX">     1</i>
     <i type="int" name="MIXPRE">     1</i>
     <i type="int" name="MREMOVE">     5</i>
    </separator>
   </separator>
   <separator name="electronic dipolcorrection" >
    <i type="logical" name="LDIPOL"> F  </i>
    <i type="logical" name="LMONO"> F  </i>
    <i type="int" name="IDIPOL">     0</i>
    <i name="EPSILON">      1.00000000</i>
    <v name="DIPOL">   -100.00000000   -100.00000000   -100.00000000</v>
    <i name="EFIELD">      0.00000000</i>
   </separator>
  </separator>
  <separator name="grids" >
   <i type="int" name="NGX">    30</i>
   <i type="int" name="NGY">    30</i>
   <i type="int" name="NGZ">    30</i>
   <i type="int" name="NGXF">    60</i>
   <i type="int" name="NGYF">    60</i>
   <i type="int" name="NGZF">    60</i>
   <i type="logical" name="ADDGRID"> F  </i>
  </separator>
  <separator name="ionic" >
   <i type="int" name="NSW">    99</i>
   <i type="int" name="IBRION">     2</i>
   <i type="int" name="ISIF">     3</i>
   <i name="PSTRESS">      0.00000000</i>
   <i name="EDIFFG">      0.00100000</i>
   <i type="int" name="NFREE">     1</i>
   <i name="POTIM">      0.50000000</i>
   <i name="SMASS">     -3.00000000</i>
  </separator>
  <separator name="ionic md" >
   <i name="TEBEG">      0.00010000</i>
   <i name="TEEND">      0.00010000</i>
   <i type="int" name="NBLOCK">     1</i>
   <i type="int" name="KBLOCK">    99</i>
   <i type="int" name="NPACO">   256</i>
   <i name="APACO">     16.00000000</i>
  </separator>
  <separator name="symmetry" >
   <i type="int" name="ISYM">     2</i>
   <i name="SYMPREC">      0.00001000</i>
  </separator>
  <separator name="dos" >
   <i type="logical" name="LORBIT"> F  </i>
   <v name="RWIGS">     -1.00000000</v>
   <i type="int" name="NEDOS">   301</i>
   <i name="EMIN">     10.00000000</i>
   <i name="EMAX">    -10.00000000</i>
   <i name="EFERMI">      0.00000000</i>
  </separator>
  <separator name="writing" >
   <i type="int" name="NWRITE">     2</i>
   <i type="logical" name="LWAVE"> F  </i>
   <i type="logical" name="LCHARG"> T  </i>
   <i type="logical" name="LPARD"> F  </i>
   <i type="logical" name="LVTOT"> F  </i>
   <i type="logical" name="LELF"> F  </i>
   <i type="logical" name="LOPTICS"> F  </i>
   <v name="STM">      0.00000000      0.00000000      0.00000000      0.00000000      0.00000000</v>
  </separator>
  <separator name="performance" >
   <i type="int" name="NPAR">     4</i>
   <i type="int" name="NSIM">     4</i>
   <i type="int" name="NBLK">    32</i>
   <i type="logical" name="LPLANE"> T  </i>
   <i type="logical" name="LSCALAPACK"> F  </i>
   <i type="logical" name="LSCAAWARE"> F  </i>
   <i type="logical" name="LSCALU"> F  </i>
   <i type="logical" name="LASYNC"> F  </i>
  </separator>
  <separator name="miscellaneous" >
   <i type="int" name="IDIOT">     3</i>
   <i type="logical" name="LMUSIC"> F  </i>
   <v name="POMASS">     28.08500000</v>
   <i type="logical" name="LCORR"> T  </i>
  </separator>
  <i type="logical" name="LREAL_COMPAT"> F  </i>
  <i type="logical" name="GGA_COMPAT"> T  </i>
  <i type="logical" name="LBERRY"> F  </i>
  <i type="int" name="ICORELEVEL">     0</i>
  <i type="logical" name="LDAU"> F  </i>
  <i type="int" name="I_CONSTRAINED_M">     0</i>
  <separator name="electronic exchange-correlation" >
   <i type="string" name="GGA">--</i>
   <i type="int" name="VOSKOWN">     0</i>
   <i type="logical" name="LHFCALC"> F  </i>
   <i type="logical" name="LHFONE"> F  </i>
   <i type="logical" name="LRHFCALC"> F  </i>
   <i type="logical" name="LTHOMAS"> F  </i>
   <i type="logical" name="LMODELHF"> F  </i>
   <i name="ENCUTFOCK">      0.00000000</i>
   <i name="ENCUT4O">     -1.00000000</i>
   <i type="int" name="EXXOEP">     0</i>
   <i type="int" name="FOURORBIT">     0</i>
   <i name="AEXX">      0.00000000</i>
   <i name="HFALPHA">      0.00000000</i>
   <i name="ALDAX">      1.00000000</i>
   <i name="AGGAX">      1.00000000</i>
   <i name="ALDAC">      1.00000000</i>
   <i name="AGGAC">      1.00000000</i>
   <i type="int" name="NKREDX">     1</i>
   <i type="int" name="NKREDY">     1</i>
   <i type="int" name="NKREDZ">     1</i>
   <i type="logical" name="SHIFTRED"> F  </i>
   <i type="logical" name="ODDONLY"> F  </i>
   <i type="logical" name="EVENONLY"> F  </i>
   <i type="int" name="LMAXFOCK">     0</i>
   <i type="int" name="NMAXFOCKAE">     0</i>
   <i name="HFSCREEN">      0.00000000</i>
   <i name="HFSCREENC">      0.00000000</i>
  </separator>
  <separator name="model GW" >
   <i type="int" name="MODEL_GW">     0</i>
   <i name="MODEL_EPS0">     12.01104486</i>
   <i name="MODEL_ALPHA">      1.00000000</i>
  </separator>
  <separator name="linear response parameters" >
   <i type="logical" name="LEPSILON"> F  </i>
   <i type="logical" name="LRPA"> F  </i>
   <i type="logical" name="LNABLA"> F  </i>
   <i type="logical" name="LVEL"> F  </i>
   <i type="int" name="KINTER">     0</i>
   <i name="CSHIFT">      0.10000000</i>
   <i name="OMEGAMAX">     -1.00000000</i>
  </separator>
  <separator name="orbital magnetization" >
   <i type="logical" name="ORBITALMAG"> F  </i>
   <i type="logical" name="LMAGBLOCH"> F  </i>
   <i type="logical" name="LCHIMAG"> F  </i>
   <i type="logical" name="LGAUGE"> T  </i>
   <i type="int" name="MAGATOM">     0</i>
   <v name="MAGDIPOL">      0.00000000      0.00000000      0.00000000</v>
   <v name="AVECCONST">      0.00000000      0.00000000      0.00000000</v>
  </separator>
  <separator name="response functions" >
   <i type="logical" name="LRPA"> T  </i>
   <i type="logical" name="LTCTE"> F  </i>
   <i type="logical" name="LTETE"> F  </i>
   <i type="logical" name="L2ORDER"> F  </i>
   <i type="logical" name="LGWLF"> F  </i>
   <i name="ENCUTGW">    346.66666667</i>
   <i name="ENCUTGWSOFT">     -2.00000000</i>
   <i name="ENCUTLF">     -1.00000000</i>
   <i type="int" name="LMAXMP2">    -1</i>
   <i name="SCISSOR">      0.00000000</i>
   <i type="int" name="NOMEGA">     0</i>
   <i type="int" name="NOMEGAR">     0</i>
   <i type="int" name="NBANDSGW">    -1</i>
   <i type="int" name="NBANDSLF">    -1</i>
   <i type="int" name="NELM">   100</i>
   <i type="int" name="DIM">     3</i>
   <i type="int" name="ANTIRES">     0</i>
   <i type="logical" name="LUSEW"> F  </i>
   <i name="OMEGAMAX">    -30.00000000</i>
   <i name="OMEGATL">   -200.00000000</i>
   <i type="int" name="OMEGAGRID">     0</i>
   <i name="CSHIFT">     -0.10000000</i>
   <i type="logical" name="SELFENERGY"> F  </i>
   <i type="logical" name="LSPECTRAL"> F  </i>
   <i type="logical" name="ODDONLYGW"> F  </i>
   <i type="logical" name="EVENONLYGW"> F  </i>
   <i type="int" name="NKREDLFX">     1</i>
   <i type="int" name="NKREDLFY">     1</i>
   <i type="int" name="NKREDLFZ">     1</i>
   <i type="int" name="MAXMEM">  1024</i>
   <i type="int" name="TELESCOPE">     0</i>
  </separator>
 </parameters>
 <atominfo>
  <atoms>       2 </atoms>
  <types>       1 </types>
  <array name="atoms" >
   <dimension dim="1">ion</dimension>
   <field type="string">element</field>
   <field type="int">atomtype</field>
   <set>
    <rc><c>Si</c><c>   1</c></rc>
    <rc><c>Si</c><c>   1</c></rc>
   </set>
  </array>
  <array name="atomtypes" >
   <dimension dim="1">type</dimension>
   <field type="int">atomspertype</field>
   <field type="string">element</field>
   <field>mass</field>
   <field>valence</field>
   <field type="string">pseudopotential</field>
   <set>
    <rc><c>   2</c><c>Si</c><c>     28.08500000</c><c>      4.00000000</c><c> PAW_PBE Si 05Jan2001                   </c></rc>
   </set>
  </array>
 </atominfo>
 <structure name="initialpos" >
  <crystal>
   <varray name="basis" >
    <v>       3.32548900       0.00000000       1.91997200 </v>
    <v>       1.10849600       3.13530100       1.91997200 </v>
    <v>       0.00000000       0.00000000       3.83994300 </v>
   </varray>
   <i name="volume">     40.03681621 </i>
   <varray name="rec_basis" >
    <v>       0.30070766      -0.10631618       0.00000000 </v>
    <v>       0.00000000       0.31894864       0.00000000 </v>
    <v>      -0.15035387      -0.10631626       0.26042053 </v>
   </varray>
  </crystal>
  <varray name="positions" >
   <v>       0.87500000       0.87500000       0.87500000 </v>
   <v>       0.12500000       0.12500000       0.12500000 </v>
  </varray>
 </structure>
 <calculation>
  <scstep>
   <time name="dav">    0.49    0.58</time>
   <time name="total">    0.53    0.65</time>
   <energy>
    <i name="alphaZ">      3.36321232 </i>
    <i name="ewald">   -228.54246794 </i>
    <i name="hartreedc">    -11.00523080 </i>
    <i name="XCdc">    -18.52318381 </i>
    <i name="pawpsdc">     65.91709927 </i>
    <i name="pawaedc">    -30.72587073 </i>
    <i name="eentropy">      0.00000000 </i>
    <i name="bandstr">     18.78825103 </i>
    <i name="atom">    206.13270273 </i>
    <i name="e_fr_energy">      5.40451207 </i>
    <i name="e_wo_entrp">      5.40451207 </i>
    <i name="e_0_energy">      5.40451207 </i>
   </energy>
  </scstep>
  <scstep>
   <time name="dav">    0.56    0.58</time>
   <time name="total">    0.57    0.58</time>
   <energy>
    <i name="e_fr_energy">    -10.34233341 </i>
    <i name="e_wo_entrp">    -10.34233341 </i>
    <i name="e_0_energy">    -10.34233341 </i>
   </energy>
  </scstep>
  <scstep>
   <time name="dav">    0.56    0.56</time>
   <time name="total">    0.56    0.56</time>
   <energy>
    <i name="e_fr_energy">    -10.83187526 </i>
    <i name="e_wo_entrp">    -10.83187526 </i>
    <i name="e_0_energy">    -10.83187526 </i>
   </energy>
  </scstep>
  <scstep>
   <time name="dav">    0.52    0.52</time>
   <time name="total">    0.52    0.52</time>
   <energy>
    <i name="e_fr_energy">    -10.83553083 </i>
    <i name="e_wo_entrp">    -10.83553083 </i>
    <i name="e_0_energy">    -10.83553083 </i>
   </energy>
  </scstep>
  <scstep>
   <time name="dav">    0.57    0.58</time>
   <time name="total">    0.60    0.67</time>
   <energy>
    <i name="e_fr_energy">    -10.83556835 </i>
    <i name="e_wo_entrp">    -10.83556835 </i>
    <i name="e_0_energy">    -10.83556835 </i>
   </energy>
  </scstep>
  <scstep>
   <time name="diag">    0.10    0.10</time>
   <time name="diis">    0.26    0.27</time>
   <time name="orth">    0.00    0.00</time>
   <time name="total">    0.42    0.43</time>
   <energy>
    <i name="e_fr_energy">    -10.88520902 </i>
    <i name="e_wo_entrp">    -10.88520902 </i>
    <i name="e_0_energy">    -10.88520902 </i>
   </energy>
  </scstep>
  <scstep>
   <time name="diag">    0.09    0.09</time>
   <time name="diis">    0.26    0.27</time>
   <time name="orth">    0.00    0.00</time>
   <time name="total">    0.42    0.42</time>
   <energy>
    <i name="e_fr_energy">    -10.82417103 </i>
    <i name="e_wo_entrp">    -10.82417103 </i>
    <i name="e_0_energy">    -10.82417103 </i>
   </energy>
  </scstep>
  <scstep>
   <time name="diag">    0.09    0.09</time>
   <time name="diis">    0.26    0.26</time>
   <time name="orth">    0.00    0.00</time>
   <time name="total">    0.41    0.42</time>
   <energy>
    <i name="e_fr_energy">    -10.84216919 </i>
    <i name="e_wo_entrp">    -10.84216919 </i>
    <i name="e_0_energy">    -10.84216919 </i>
   </energy>
  </scstep>
  <scstep>
   <time name="diag">    0.09    0.09</time>
   <time name="diis">    0.25    0.25</time>
   <time name="orth">    0.00    0.00</time>
   <time name="total">    0.40    0.40</time>
   <energy>
    <i name="e_fr_energy">    -10.84175273 </i>
    <i name="e_wo_entrp">    -10.84175273 </i>
    <i name="e_0_energy">    -10.84175273 </i>
   </energy>
  </scstep>
  <scstep>
   <time name="diag">    0.09    0.09</time>
   <time name="diis">    0.26    0.26</time>
   <time name="orth">    0.00    0.00</time>
   <time name="total">    0.39    0.39</time>
   <energy>
    <i name="alphaZ">      3.36321232 </i>
    <i name="ewald">   -228.54246794 </i>
    <i name="hartreedc">    -14.91397317 </i>
    <i name="XCdc">    -17.96426733 </i>
    <i name="pawpsdc">     74.29195795 </i>
    <i name="pawaedc">    -39.32847901 </i>
    <i name="eentropy">      0.00000000 </i>
    <i name="bandstr">      6.11961702 </i>
    <i name="atom">    206.13270273 </i>
    <i name="e_fr_energy">    -10.84169743 </i>
    <i name="e_wo_entrp">    -10.84169743 </i>
    <i name="e_0_energy">    -10.84169743 </i>
   </energy>
  </scstep>
  <structure>
   <crystal>
    <varray name="basis" >
     <v>       3.32548900       0.00000000       1.91997200 </v>
     <v>       1.10849600       3.13530100       1.91997200 </v>
     <v>       0.00000000       0.00000000       3.83994300 </v>
    </varray>
    <i name="volume">     40.03681621 </i>
    <varray name="rec_basis" >
     <v>       0.30070766      -0.10631618       0.00000000 </v>
     <v>       0.00000000       0.31894864       0.00000000 </v>
     <v>      -0.15035387      -0.10631626       0.26042053 </v>
    </varray>
   </crystal>
   <varray name="positions" >
    <v>       0.87500000       0.87500000       0.87500000 </v>
    <v>       0.12500000       0.12500000       0.12500000 </v>
   </varray>
  </structure>
  <varray name="forces" >
   <v>      -0.00000000      -0.00000000       0.00000000 </v>
   <v>       0.00000000       0.00000000      -0.00000000 </v>
  </varray>
  <varray name="stress" >
   <v>      19.72341883      -0.00000210       0.00000297 </v>
   <v>      -0.00000210      19.72341761       0.00000210 </v>
   <v>       0.00000297       0.00000210      19.72340919 </v>
  </varray>
  <energy>
   <i name="e_fr_energy">    -10.84169743 </i>
   <i name="e_wo_entrp">    -10.84169743 </i>
   <i name="e_0_energy">      0.00000000 </i>
  </energy>
  <time name="totalsc">    6.06    6.37</time>
 </calculation>
 <calculation>
  <scstep>
   <time name="dav">    0.49    0.49</time>
   <time name="total">    0.54    0.55</time>
   <energy>
    <i name="alphaZ">      3.24605685 </i>
    <i name="ewald">   -225.85733089 </i>
    <i name="hartreedc">    -14.75087895 </i>
    <i name="XCdc">    -18.13657589 </i>
    <i name="pawpsdc">     74.30414000 </i>
    <i name="pawaedc">    -39.34134747 </i>
    <i name="eentropy">      0.00000000 </i>
    <i name="bandstr">      3.55192599 </i>
    <i name="atom">    206.13270273 </i>
    <i name="e_fr_energy">    -10.85130761 </i>
    <i name="e_wo_entrp">    -10.85130761 </i>
    <i name="e_0_energy">    -10.85130761 </i>
   </energy>
  </scstep>
  <scstep>
   <time name="diag">    0.09    0.09</time>
   <time name="diis">    0.26    0.26</time>
   <time name="orth">    0.00    0.00</time>
   <time name="total">    0.41    0.41</time>
   <energy>
    <i name="e_fr_energy">    -10.84688166 </i>
    <i name="e_wo_entrp">    -10.84688166 </i>
    <i name="e_0_energy">    -10.84688166 </i>
   </energy>
  </scstep>
  <scstep>
   <time name="diag">    0.09    0.09</time>
   <time name="diis">    0.26    0.26</time>
   <time name="orth">    0.00    0.00</time>
   <time name="total">    0.41    0.41</time>
   <energy>
    <i name="e_fr_energy">    -10.84447817 </i>
    <i name="e_wo_entrp">    -10.84447817 </i>
    <i name="e_0_energy">    -10.84447817 </i>
   </energy>
  </scstep>
  <scstep>
   <time name="diag">    0.09    0.09</time>
   <time name="diis">    0.19    0.19</time>
   <time name="orth">    0.00    0.00</time>
   <time name="total">    0.32    0.32</time>
   <energy>
    <i name="alphaZ">      3.24605685 </i>
    <i name="ewald">   -225.85733089 </i>
    <i name="hartreedc">    -15.35645216 </i>
    <i name="XCdc">    -18.12312670 </i>
    <i name="pawpsdc">     73.23918871 </i>
    <i name="pawaedc">    -38.24905692 </i>
    <i name="eentropy">      0.00000000 </i>
    <i name="bandstr">      4.12352909 </i>
    <i name="atom">    206.13270273 </i>
    <i name="e_fr_energy">    -10.84448928 </i>
    <i name="e_wo_entrp">    -10.84448928 </i>
    <i name="e_0_energy">    -10.84448928 </i>
   </energy>
  </scstep>
  <structure>
   <crystal>
    <varray name="basis" >
     <v>       3.36502456      -0.00000000       1.94279786 </v>
     <v>       1.12167451       3.17257548       1.94279786 </v>
     <v>       0.00000001       0.00000000       3.88559470 </v>
    </varray>
    <i name="volume">     41.48181005 </i>
    <varray name="rec_basis" >
     <v>       0.29717465      -0.10506708      -0.00000000 </v>
     <v>       0.00000000       0.31520133      -0.00000000 </v>
     <v>      -0.14858737      -0.10506715       0.25736086 </v>
    </varray>
   </crystal>
   <varray name="positions" >
    <v>       0.87500000       0.87500000       0.87500000 </v>
    <v>       0.12500000       0.12500000       0.12500000 </v>
   </varray>
  </structure>
  <varray name="forces" >
   <v>       0.00000000       0.00000000       0.00000000 </v>
   <v>      -0.00000000      -0.00000000      -0.00000000 </v>
  </varray>
  <varray name="stress" >
   <v>     -12.65724605       0.00000138      -0.00000195 </v>
   <v>       0.00000138     -12.65724525      -0.00000138 </v>
   <v>      -0.00000195      -0.00000138     -12.65723971 </v>
  </varray>
  <energy>
   <i name="e_fr_energy">    -10.84448928 </i>
   <i name="e_wo_entrp">    -10.84448928 </i>
   <i name="e_0_energy">      0.00000000 </i>
  </energy>
  <time name="totalsc">    2.47    2.48</time>
 </calculation>
 <calculation>
  <scstep>
   <time name="dav">    0.52    0.53</time>
   <time name="total">    0.57    0.58</time>
   <energy>
    <i name="alphaZ">      3.29218146 </i>
    <i name="ewald">   -226.92207139 </i>
    <i name="hartreedc">    -15.42669716 </i>
    <i name="XCdc">    -18.05598649 </i>
    <i name="pawpsdc">     73.17967542 </i>
    <i name="pawaedc">    -38.18716239 </i>
    <i name="eentropy">      0.00000000 </i>
    <i name="bandstr">      5.13950696 </i>
    <i name="atom">    206.13270273 </i>
    <i name="e_fr_energy">    -10.84785087 </i>
    <i name="e_wo_entrp">    -10.84785087 </i>
    <i name="e_0_energy">    -10.84785087 </i>
   </energy>
  </scstep>
  <scstep>
   <time name="diag">    0.09    0.09</time>
   <time name="diis">    0.26    0.26</time>
   <time name="orth">    0.00    0.00</time>
   <time name="total">    0.41    0.41</time>
   <energy>
    <i name="e_fr_energy">    -10.84716542 </i>
    <i name="e_wo_entrp">    -10.84716542 </i>
    <i name="e_0_energy">    -10.84716542 </i>
   </energy>
  </scstep>
  <scstep>
   <time name="diag">    0.09    0.09</time>
   <time name="diis">    0.26    0.26</time>
   <time name="orth">    0.00    0.00</time>
   <time name="total">    0.41    0.41</time>
   <energy>
    <i name="e_fr_energy">    -10.84680842 </i>
    <i name="e_wo_entrp">    -10.84680842 </i>
    <i name="e_0_energy">    -10.84680842 </i>
   </energy>
  </scstep>
  <scstep>
   <time name="diag">    0.09    0.09</time>
   <time name="diis">    0.17    0.17</time>
   <time name="orth">    0.01    0.01</time>
   <time name="total">    0.29    0.30</time>
   <energy>
    <i name="alphaZ">      3.29218146 </i>
    <i name="ewald">   -226.92207139 </i>
    <i name="hartreedc">    -15.18675721 </i>
    <i name="XCdc">    -18.06115743 </i>
    <i name="pawpsdc">     73.57642476 </i>
    <i name="pawaedc">    -38.59374728 </i>
    <i name="eentropy">      0.00000000 </i>
    <i name="bandstr">      4.91561380 </i>
    <i name="atom">    206.13270273 </i>
    <i name="e_fr_energy">    -10.84681056 </i>
    <i name="e_wo_entrp">    -10.84681056 </i>
    <i name="e_0_energy">    -10.84681056 </i>
   </energy>
  </scstep>
  <structure>
   <crystal>
    <varray name="basis" >
     <v>       3.34923553      -0.00000000       1.93368206 </v>
     <v>       1.11641151       3.15768944       1.93368206 </v>
     <v>       0.00000000       0.00000000       3.86736311 </v>
    </varray>
    <i name="volume">     40.90063542 </i>
    <varray name="rec_basis" >
     <v>       0.29857560      -0.10556239      -0.00000000 </v>
     <v>       0.00000000       0.31668725      -0.00000000 </v>
     <v>      -0.14928784      -0.10556246       0.25857412 </v>
    </varray>
   </crystal>
   <varray name="positions" >
    <v>       0.87500000       0.87500000       0.87500000 </v>
    <v>       0.12500000       0.12500000       0.12500000 </v>
   </varray>
  </structure>
  <varray name="forces" >
   <v>      -0.00000000       0.00000000       0.00000000 </v>
   <v>       0.00000000      -0.00000000      -0.00000000 </v>
  </varray>
  <varray name="stress" >
   <v>      -0.36343603       0.00000004      -0.00000006 </v>
   <v>       0.00000004      -0.36343600      -0.00000004 </v>
   <v>      -0.00000006      -0.00000004      -0.36343585 </v>
  </varray>
  <energy>
   <i name="e_fr_energy">    -10.84681056 </i>
   <i name="e_wo_entrp">    -10.84681056 </i>
   <i name="e_0_energy">      0.00000000 </i>
  </energy>
  <time name="totalsc">    2.40    2.44</time>
  <eigenvalues>
   <array>
    <dimension dim="1">band</dimension>
    <dimension dim="2">kpoint</dimension>
    <dimension dim="3">spin</dimension>
    <field>eigene</field>
    <field>occ</field>
    <set>
     <set comment="spin 1">
      <set comment="kpoint 1">
       <r>   -6.1993    1.0000 </r>
       <r>    5.6137    1.0000 </r>
       <r>    5.6137    1.0000 </r>
       <r>    5.6137    1.0000 </r>
       <r>    8.1700    0.0000 </r>
       <r>    8.1700    0.0000 </r>
       <r>    8.1700    0.0000 </r>
       <r>    8.7442    0.0000 </r>
       <r>   13.3225    0.0000 </r>
       <r>   13.3225    0.0000 </r>
       <r>   13.4922    0.0000 </r>
       <r>   16.7951    0.0000 </r>
      </set>
      <set comment="kpoint 2">
       <r>   -5.9989    1.0000 </r>
       <r>    4.0230    1.0000 </r>
       <r>    5.3314    1.0000 </r>
       <r>    5.3314    1.0000 </r>
       <r>    8.0558    0.0000 </r>
       <r>    8.5854    0.0000 </r>
       <r>    8.5854    0.0000 </r>
       <r>   10.1441    0.0000 </r>
       <r>   12.8498    0.0000 </r>
       <r>   12.8498    0.0000 </r>
       <r>   14.2676    0.0000 </r>
       <r>   16.2421    0.0000 </r>
      </set>
      <set comment="kpoint 3">
       <r>   -5.4146    1.0000 </r>
       <r>    1.7279    1.0000 </r>
       <r>    4.8688    1.0000 </r>
       <r>    4.8688    1.0000 </r>
       <r>    7.5722    0.0000 </r>
       <r>    9.1033    0.0000 </r>
       <r>    9.1033    0.0000 </r>
       <r>   12.3629    0.0000 </r>
       <r>   12.8008    0.0000 </r>
       <r>   12.8008    0.0000 </r>
       <r>   14.5440    0.0000 </r>
       <r>   17.3251    0.0000 </r>
      </set>
      <set comment="kpoint 4">
       <r>   -4.5404    1.0000 </r>
       <r>   -0.2560    1.0000 </r>
       <r>    4.5460    1.0000 </r>
       <r>    4.5460    1.0000 </r>
       <r>    7.2077    0.0000 </r>
       <r>    9.0665    0.0000 </r>
       <r>    9.0665    0.0000 </r>
       <r>   13.4518    0.0000 </r>
       <r>   14.1524    0.0000 </r>
       <r>   14.1524    0.0000 </r>
       <r>   15.1245    0.0000 </r>
       <r>   19.2332    0.0000 </r>
      </set>
      <set comment="kpoint 5">
       <r>   -3.9214    1.0000 </r>
       <r>   -1.2536    1.0000 </r>
       <r>    4.4354    1.0000 </r>
       <r>    4.4354    1.0000 </r>
       <r>    7.0795    0.0000 </r>
       <r>    8.9630    0.0000 </r>
       <r>    8.9630    0.0000 </r>
       <r>   13.3167    0.0000 </r>
       <r>   16.1082    0.0000 </r>
       <r>   16.1082    0.0000 </r>
       <r>   16.7953    0.0000 </r>
       <r>   16.8318    0.0000 </r>
      </set>
      <set comment="kpoint 6">
       <r>   -5.9313    1.0000 </r>
       <r>    4.2613    1.0000 </r>
       <r>    4.8274    1.0000 </r>
       <r>    4.8274    1.0000 </r>
       <r>    7.6292    0.0000 </r>
       <r>    9.2847    0.0000 </r>
       <r>    9.2847    0.0000 </r>
       <r>    9.8315    0.0000 </r>
       <r>   12.0977    0.0000 </r>
       <r>   13.6207    0.0000 </r>
       <r>   14.5620    0.0000 </r>
       <r>   17.2615    0.0000 </r>
      </set>
      <set comment="kpoint 7">
       <r>   -5.4713    1.0000 </r>
       <r>    2.4081    1.0000 </r>
       <r>    4.3251    1.0000 </r>
       <r>    4.3887    1.0000 </r>
       <r>    7.7587    0.0000 </r>
       <r>    9.2374    0.0000 </r>
       <r>   10.0403    0.0000 </r>
       <r>   10.3524    0.0000 </r>
       <r>   12.9727    0.0000 </r>
       <r>   13.7818    0.0000 </r>
       <r>   15.5492    0.0000 </r>
       <r>   17.1109    0.0000 </r>
      </set>
      <set comment="kpoint 8">
       <r>   -4.6730    1.0000 </r>
       <r>    0.3867    1.0000 </r>
       <r>    3.8055    1.0000 </r>
       <r>    4.0602    1.0000 </r>
       <r>    7.8418    0.0000 </r>
       <r>    9.2057    0.0000 </r>
       <r>   10.0548    0.0000 </r>
       <r>   11.0530    0.0000 </r>
       <r>   14.8826    0.0000 </r>
       <r>   14.8943    0.0000 </r>
       <r>   15.4031    0.0000 </r>
       <r>   18.8834    0.0000 </r>
      </set>
      <set comment="kpoint 9">
       <r>   -3.8344    1.0000 </r>
       <r>   -1.0432    1.0000 </r>
       <r>    3.3686    1.0000 </r>
       <r>    4.0822    1.0000 </r>
       <r>    7.7765    0.0000 </r>
       <r>    9.1021    0.0000 </r>
       <r>    9.7069    0.0000 </r>
       <r>   12.9177    0.0000 </r>
       <r>   14.5572    0.0000 </r>
       <r>   16.0296    0.0000 </r>
       <r>   17.0143    0.0000 </r>
       <r>   17.1506    0.0000 </r>
      </set>
      <set comment="kpoint 10">
       <r>   -4.0716    1.0000 </r>
       <r>   -0.6821    1.0000 </r>
       <r>    3.1935    1.0000 </r>
       <r>    4.3713    1.0000 </r>
       <r>    7.9257    0.0000 </r>
       <r>    9.2214    0.0000 </r>
       <r>    9.4774    0.0000 </r>
       <r>   13.4407    0.0000 </r>
       <r>   13.6720    0.0000 </r>
       <r>   14.7482    0.0000 </r>
       <r>   16.6899    0.0000 </r>
       <r>   17.8938    0.0000 </r>
      </set>
      <set comment="kpoint 11">
       <r>   -4.9729    1.0000 </r>
       <r>    1.0328    1.0000 </r>
       <r>    3.3478    1.0000 </r>
       <r>    4.8524    1.0000 </r>
       <r>    8.2687    0.0000 </r>
       <r>    9.2746    0.0000 </r>
       <r>    9.4491    0.0000 </r>
       <r>   11.8242    0.0000 </r>
       <r>   12.0899    0.0000 </r>
       <r>   15.3586    0.0000 </r>
       <r>   15.5710    0.0000 </r>
       <r>   17.9156    0.0000 </r>
      </set>
      <set comment="kpoint 12">
       <r>   -5.6689    1.0000 </r>
       <r>    2.9393    1.0000 </r>
       <r>    4.0251    1.0000 </r>
       <r>    5.3240    1.0000 </r>
       <r>    8.5812    0.0000 </r>
       <r>    8.7223    0.0000 </r>
       <r>    8.9443    0.0000 </r>
       <r>   11.0425    0.0000 </r>
       <r>   11.9698    0.0000 </r>
       <r>   13.5786    0.0000 </r>
       <r>   15.2696    0.0000 </r>
       <r>   16.7279    0.0000 </r>
      </set>
      <set comment="kpoint 13">
       <r>   -5.1370    1.0000 </r>
       <r>    2.0952    1.0000 </r>
       <r>    3.7655    1.0000 </r>
       <r>    3.7655    1.0000 </r>
       <r>    6.7657    0.0000 </r>
       <r>    8.7497    0.0000 </r>
       <r>   11.3023    0.0000 </r>
       <r>   11.3023    0.0000 </r>
       <r>   13.4799    0.0000 </r>
       <r>   14.5137    0.0000 </r>
       <r>   16.9148    0.0000 </r>
       <r>   18.5301    0.0000 </r>
      </set>
      <set comment="kpoint 14">
       <r>   -4.4407    1.0000 </r>
       <r>    0.6987    1.0000 </r>
       <r>    2.9998    1.0000 </r>
       <r>    3.4525    1.0000 </r>
       <r>    6.9852    0.0000 </r>
       <r>    8.5172    0.0000 </r>
       <r>   11.5212    0.0000 </r>
       <r>   11.8198    0.0000 </r>
       <r>   15.5366    0.0000 </r>
       <r>   15.5818    0.0000 </r>
       <r>   17.1605    0.0000 </r>
       <r>   18.6985    0.0000 </r>
      </set>
      <set comment="kpoint 15">
       <r>   -3.5361    1.0000 </r>
       <r>   -0.7092    1.0000 </r>
       <r>    2.1521    1.0000 </r>
       <r>    3.4545    1.0000 </r>
       <r>    7.1561    0.0000 </r>
       <r>   10.0457    0.0000 </r>
       <r>   11.2589    0.0000 </r>
       <r>   11.4899    0.0000 </r>
       <r>   15.6990    0.0000 </r>
       <r>   16.0733    0.0000 </r>
       <r>   17.6616    0.0000 </r>
       <r>   18.1331    0.0000 </r>
      </set>
      <set comment="kpoint 16">
       <r>   -3.3390    1.0000 </r>
       <r>   -0.9590    1.0000 </r>
       <r>    1.7049    1.0000 </r>
       <r>    3.7656    1.0000 </r>
       <r>    7.4700    0.0000 </r>
       <r>   11.0148    0.0000 </r>
       <r>   11.0556    0.0000 </r>
       <r>   12.4964    0.0000 </r>
       <r>   13.5053    0.0000 </r>
       <r>   13.5611    0.0000 </r>
       <r>   18.0922    0.0000 </r>
       <r>   20.2957    0.0000 </r>
      </set>
      <set comment="kpoint 17">
       <r>   -4.1958    1.0000 </r>
       <r>    0.1747    1.0000 </r>
       <r>    1.9456    1.0000 </r>
       <r>    4.3116    1.0000 </r>
       <r>    8.0514    0.0000 </r>
       <r>   10.3615    0.0000 </r>
       <r>   10.6970    0.0000 </r>
       <r>   11.6539    0.0000 </r>
       <r>   12.0678    0.0000 </r>
       <r>   15.1343    0.0000 </r>
       <r>   18.1074    0.0000 </r>
       <r>   18.6419    0.0000 </r>
      </set>
      <set comment="kpoint 18">
       <r>   -3.8488    1.0000 </r>
       <r>   -0.0982    1.0000 </r>
       <r>    3.0616    1.0000 </r>
       <r>    3.0616    1.0000 </r>
       <r>    6.2649    0.0000 </r>
       <r>    7.1904    0.0000 </r>
       <r>   13.5495    0.0000 </r>
       <r>   13.5495    0.0000 </r>
       <r>   15.9958    0.0000 </r>
       <r>   16.0933    0.0000 </r>
       <r>   18.4965    0.0000 </r>
       <r>   18.4969    0.0000 </r>
      </set>
      <set comment="kpoint 19">
       <r>   -2.9698    1.0000 </r>
       <r>   -1.1645    1.0000 </r>
       <r>    2.2564    1.0000 </r>
       <r>    2.9864    1.0000 </r>
       <r>    6.5454    0.0000 </r>
       <r>    7.5993    0.0000 </r>
       <r>   13.7867    0.0000 </r>
       <r>   13.8423    0.0000 </r>
       <r>   16.2306    0.0000 </r>
       <r>   16.3322    0.0000 </r>
       <r>   17.8287    0.0000 </r>
       <r>   18.2489    0.0000 </r>
      </set>
      <set comment="kpoint 20">
       <r>   -2.5467    1.0000 </r>
       <r>   -1.5496    1.0000 </r>
       <r>    1.4145    1.0000 </r>
       <r>    3.2386    1.0000 </r>
       <r>    6.8486    0.0000 </r>
       <r>    9.7260    0.0000 </r>
       <r>   12.9930    0.0000 </r>
       <r>   13.5292    0.0000 </r>
       <r>   13.6945    0.0000 </r>
       <r>   14.0940    0.0000 </r>
       <r>   20.1129    0.0000 </r>
       <r>   20.3782    0.0000 </r>
      </set>
      <set comment="kpoint 21">
       <r>   -2.1318    1.0000 </r>
       <r>   -2.1318    1.0000 </r>
       <r>    2.8201    1.0000 </r>
       <r>    2.8201    1.0000 </r>
       <r>    6.3662    0.0000 </r>
       <r>    6.3662    0.0000 </r>
       <r>   15.5474    0.0000 </r>
       <r>   15.5474    0.0000 </r>
       <r>   16.5205    0.0000 </r>
       <r>   16.5205    0.0000 </r>
       <r>   18.0555    0.0000 </r>
       <r>   18.0555    0.0000 </r>
      </set>
      <set comment="kpoint 22">
       <r>   -4.8948    1.0000 </r>
       <r>    1.3457    1.0000 </r>
       <r>    2.9623    1.0000 </r>
       <r>    4.2138    1.0000 </r>
       <r>    8.0570    0.0000 </r>
       <r>    9.4399    0.0000 </r>
       <r>    9.8172    0.0000 </r>
       <r>   11.0539    0.0000 </r>
       <r>   13.3260    0.0000 </r>
       <r>   15.7176    0.0000 </r>
       <r>   16.5781    0.0000 </r>
       <r>   17.6467    0.0000 </r>
      </set>
      <set comment="kpoint 23">
       <r>   -4.0255    1.0000 </r>
       <r>   -0.1735    1.0000 </r>
       <r>    2.3584    1.0000 </r>
       <r>    3.7266    1.0000 </r>
       <r>    8.4782    0.0000 </r>
       <r>    9.1435    0.0000 </r>
       <r>   10.5913    0.0000 </r>
       <r>   11.4916    0.0000 </r>
       <r>   14.5439    0.0000 </r>
       <r>   15.2399    0.0000 </r>
       <r>   17.5162    0.0000 </r>
       <r>   18.3611    0.0000 </r>
      </set>
      <set comment="kpoint 24">
       <r>   -3.3916    1.0000 </r>
       <r>   -1.0927    1.0000 </r>
       <r>    2.2271    1.0000 </r>
       <r>    3.5036    1.0000 </r>
       <r>    8.6371    0.0000 </r>
       <r>    8.7606    0.0000 </r>
       <r>   11.4599    0.0000 </r>
       <r>   12.6799    0.0000 </r>
       <r>   12.9201    0.0000 </r>
       <r>   16.1214    0.0000 </r>
       <r>   17.1659    0.0000 </r>
       <r>   17.8877    0.0000 </r>
      </set>
      <set comment="kpoint 25">
       <r>   -3.6556    1.0000 </r>
       <r>   -0.3134    1.0000 </r>
       <r>    2.3268    1.0000 </r>
       <r>    2.9185    1.0000 </r>
       <r>    7.5700    0.0000 </r>
       <r>    8.2731    0.0000 </r>
       <r>   11.2982    0.0000 </r>
       <r>   13.5009    0.0000 </r>
       <r>   15.6683    0.0000 </r>
       <r>   15.7229    0.0000 </r>
       <r>   18.2964    0.0000 </r>
       <r>   18.8010    0.0000 </r>
      </set>
      <set comment="kpoint 26">
       <r>   -2.8023    1.0000 </r>
       <r>   -1.2617    1.0000 </r>
       <r>    1.6468    1.0000 </r>
       <r>    2.7226    1.0000 </r>
       <r>    8.0093    0.0000 </r>
       <r>    9.8830    0.0000 </r>
       <r>   10.8257    0.0000 </r>
       <r>   12.9649    0.0000 </r>
       <r>   13.9209    0.0000 </r>
       <r>   16.5730    0.0000 </r>
       <r>   17.6845    0.0000 </r>
       <r>   19.7995    0.0000 </r>
      </set>
      <set comment="kpoint 27">
       <r>   -3.1459    1.0000 </r>
       <r>   -0.9039    1.0000 </r>
       <r>    1.4845    1.0000 </r>
       <r>    3.0891    1.0000 </r>
       <r>    8.4786    0.0000 </r>
       <r>   10.1282    0.0000 </r>
       <r>   10.7795    0.0000 </r>
       <r>   12.5764    0.0000 </r>
       <r>   13.3789    0.0000 </r>
       <r>   14.7596    0.0000 </r>
       <r>   19.5493    0.0000 </r>
       <r>   19.7533    0.0000 </r>
      </set>
      <set comment="kpoint 28">
       <r>   -2.0581    1.0000 </r>
       <r>   -2.0581    1.0000 </r>
       <r>    2.2754    1.0000 </r>
       <r>    2.2754    1.0000 </r>
       <r>    7.6003    0.0000 </r>
       <r>    7.6003    0.0000 </r>
       <r>   13.3646    0.0000 </r>
       <r>   13.3646    0.0000 </r>
       <r>   16.0663    0.0000 </r>
       <r>   16.0663    0.0000 </r>
       <r>   18.3332    0.0000 </r>
       <r>   18.3332    0.0000 </r>
      </set>
      <set comment="kpoint 29">
       <r>   -1.9774    1.0000 </r>
       <r>   -1.9774    1.0000 </r>
       <r>    1.8538    1.0000 </r>
       <r>    1.8538    1.0000 </r>
       <r>    9.8845    0.0000 </r>
       <r>    9.8845    0.0000 </r>
       <r>   10.5443    0.0000 </r>
       <r>   10.5443    0.0000 </r>
       <r>   16.0639    0.0000 </r>
       <r>   16.0639    0.0000 </r>
       <r>   18.4824    0.0000 </r>
       <r>   18.4824    0.0000 </r>
      </set>
     </set>
     <set comment="spin 2">
      <set comment="kpoint 1">
       <r>   -6.1982    1.0000 </r>
       <r>    5.6149    1.0000 </r>
       <r>    5.6149    1.0000 </r>
       <r>    5.6149    1.0000 </r>
       <r>    8.1710    0.0000 </r>
       <r>    8.1710    0.0000 </r>
       <r>    8.1710    0.0000 </r>
       <r>    8.7457    0.0000 </r>
       <r>   13.3229    0.0000 </r>
       <r>   13.3229    0.0000 </r>
       <r>   13.4924    0.0000 </r>
       <r>   16.7955    0.0000 </r>
      </set>
      <set comment="kpoint 2">
       <r>   -5.9978    1.0000 </r>
       <r>    4.0242    1.0000 </r>
       <r>    5.3325    1.0000 </r>
       <r>    5.3325    1.0000 </r>
       <r>    8.0569    0.0000 </r>
       <r>    8.5864    0.0000 </r>
       <r>    8.5864    0.0000 </r>
       <r>   10.1454    0.0000 </r>
       <r>   12.8502    0.0000 </r>
       <r>   12.8502    0.0000 </r>
       <r>   14.2679    0.0000 </r>
       <r>   16.2424    0.0000 </r>
      </set>
      <set comment="kpoint 3">
       <r>   -5.4135    1.0000 </r>
       <r>    1.7290    1.0000 </r>
       <r>    4.8700    1.0000 </r>
       <r>    4.8700    1.0000 </r>
       <r>    7.5732    0.0000 </r>
       <r>    9.1042    0.0000 </r>
       <r>    9.1042    0.0000 </r>
       <r>   12.3641    0.0000 </r>
       <r>   12.8012    0.0000 </r>
       <r>   12.8012    0.0000 </r>
       <r>   14.5443    0.0000 </r>
       <r>   17.3256    0.0000 </r>
      </set>
      <set comment="kpoint 4">
       <r>   -4.5392    1.0000 </r>
       <r>   -0.2549    1.0000 </r>
       <r>    4.5473    1.0000 </r>
       <r>    4.5473    1.0000 </r>
       <r>    7.2087    0.0000 </r>
       <r>    9.0674    0.0000 </r>
       <r>    9.0674    0.0000 </r>
       <r>   13.4523    0.0000 </r>
       <r>   14.1528    0.0000 </r>
       <r>   14.1528    0.0000 </r>
       <r>   15.1254    0.0000 </r>
       <r>   19.2341    0.0000 </r>
      </set>
      <set comment="kpoint 5">
       <r>   -3.9202    1.0000 </r>
       <r>   -1.2526    1.0000 </r>
       <r>    4.4367    1.0000 </r>
       <r>    4.4367    1.0000 </r>
       <r>    7.0805    0.0000 </r>
       <r>    8.9638    0.0000 </r>
       <r>    8.9638    0.0000 </r>
       <r>   13.3170    0.0000 </r>
       <r>   16.1085    0.0000 </r>
       <r>   16.1086    0.0000 </r>
       <r>   16.7954    0.0000 </r>
       <r>   16.8326    0.0000 </r>
      </set>
      <set comment="kpoint 6">
       <r>   -5.9302    1.0000 </r>
       <r>    4.2625    1.0000 </r>
       <r>    4.8285    1.0000 </r>
       <r>    4.8285    1.0000 </r>
       <r>    7.6301    0.0000 </r>
       <r>    9.2858    0.0000 </r>
       <r>    9.2858    0.0000 </r>
       <r>    9.8328    0.0000 </r>
       <r>   12.0982    0.0000 </r>
       <r>   13.6211    0.0000 </r>
       <r>   14.5623    0.0000 </r>
       <r>   17.2619    0.0000 </r>
      </set>
      <set comment="kpoint 7">
       <r>   -5.4702    1.0000 </r>
       <r>    2.4093    1.0000 </r>
       <r>    4.3263    1.0000 </r>
       <r>    4.3899    1.0000 </r>
       <r>    7.7596    0.0000 </r>
       <r>    9.2386    0.0000 </r>
       <r>   10.0413    0.0000 </r>
       <r>   10.3530    0.0000 </r>
       <r>   12.9737    0.0000 </r>
       <r>   13.7822    0.0000 </r>
       <r>   15.5496    0.0000 </r>
       <r>   17.1112    0.0000 </r>
      </set>
      <set comment="kpoint 8">
       <r>   -4.6719    1.0000 </r>
       <r>    0.3879    1.0000 </r>
       <r>    3.8067    1.0000 </r>
       <r>    4.0614    1.0000 </r>
       <r>    7.8426    0.0000 </r>
       <r>    9.2067    0.0000 </r>
       <r>   10.0556    0.0000 </r>
       <r>   11.0537    0.0000 </r>
       <r>   14.8831    0.0000 </r>
       <r>   14.8949    0.0000 </r>
       <r>   15.4039    0.0000 </r>
       <r>   18.8860    0.0000 </r>
      </set>
      <set comment="kpoint 9">
       <r>   -3.8332    1.0000 </r>
       <r>   -1.0421    1.0000 </r>
       <r>    3.3697    1.0000 </r>
       <r>    4.0834    1.0000 </r>
       <r>    7.7774    0.0000 </r>
       <r>    9.1030    0.0000 </r>
       <r>    9.7077    0.0000 </r>
       <r>   12.9185    0.0000 </r>
       <r>   14.5576    0.0000 </r>
       <r>   16.0300    0.0000 </r>
       <r>   17.0150    0.0000 </r>
       <r>   17.1513    0.0000 </r>
      </set>
      <set comment="kpoint 10">
       <r>   -4.0704    1.0000 </r>
       <r>   -0.6810    1.0000 </r>
       <r>    3.1946    1.0000 </r>
       <r>    4.3726    1.0000 </r>
       <r>    7.9267    0.0000 </r>
       <r>    9.2222    0.0000 </r>
       <r>    9.4782    0.0000 </r>
       <r>   13.4415    0.0000 </r>
       <r>   13.6725    0.0000 </r>
       <r>   14.7487    0.0000 </r>
       <r>   16.6904    0.0000 </r>
       <r>   17.8946    0.0000 </r>
      </set>
      <set comment="kpoint 11">
       <r>   -4.9718    1.0000 </r>
       <r>    1.0340    1.0000 </r>
       <r>    3.3489    1.0000 </r>
       <r>    4.8536    1.0000 </r>
       <r>    8.2697    0.0000 </r>
       <r>    9.2756    0.0000 </r>
       <r>    9.4499    0.0000 </r>
       <r>   11.8251    0.0000 </r>
       <r>   12.0902    0.0000 </r>
       <r>   15.3591    0.0000 </r>
       <r>   15.5717    0.0000 </r>
       <r>   17.9161    0.0000 </r>
      </set>
      <set comment="kpoint 12">
       <r>   -5.6678    1.0000 </r>
       <r>    2.9405    1.0000 </r>
       <r>    4.0262    1.0000 </r>
       <r>    5.3252    1.0000 </r>
       <r>    8.5823    0.0000 </r>
       <r>    8.7233    0.0000 </r>
       <r>    8.9452    0.0000 </r>
       <r>   11.0436    0.0000 </r>
       <r>   11.9701    0.0000 </r>
       <r>   13.5792    0.0000 </r>
       <r>   15.2700    0.0000 </r>
       <r>   16.7282    0.0000 </r>
      </set>
      <set comment="kpoint 13">
       <r>   -5.1359    1.0000 </r>
       <r>    2.0965    1.0000 </r>
       <r>    3.7667    1.0000 </r>
       <r>    3.7667    1.0000 </r>
       <r>    6.7664    0.0000 </r>
       <r>    8.7504    0.0000 </r>
       <r>   11.3033    0.0000 </r>
       <r>   11.3033    0.0000 </r>
       <r>   13.4810    0.0000 </r>
       <r>   14.5140    0.0000 </r>
       <r>   16.9154    0.0000 </r>
       <r>   18.5305    0.0000 </r>
      </set>
      <set comment="kpoint 14">
       <r>   -4.4395    1.0000 </r>
       <r>    0.6999    1.0000 </r>
       <r>    3.0009    1.0000 </r>
       <r>    3.4537    1.0000 </r>
       <r>    6.9859    0.0000 </r>
       <r>    8.5178    0.0000 </r>
       <r>   11.5222    0.0000 </r>
       <r>   11.8207    0.0000 </r>
       <r>   15.5370    0.0000 </r>
       <r>   15.5830    0.0000 </r>
       <r>   17.1610    0.0000 </r>
       <r>   18.6989    0.0000 </r>
      </set>
      <set comment="kpoint 15">
       <r>   -3.5349    1.0000 </r>
       <r>   -0.7080    1.0000 </r>
       <r>    2.1532    1.0000 </r>
       <r>    3.4556    1.0000 </r>
       <r>    7.1568    0.0000 </r>
       <r>   10.0464    0.0000 </r>
       <r>   11.2599    0.0000 </r>
       <r>   11.4908    0.0000 </r>
       <r>   15.6998    0.0000 </r>
       <r>   16.0738    0.0000 </r>
       <r>   17.6621    0.0000 </r>
       <r>   18.1341    0.0000 </r>
      </set>
      <set comment="kpoint 16">
       <r>   -3.3378    1.0000 </r>
       <r>   -0.9578    1.0000 </r>
       <r>    1.7059    1.0000 </r>
       <r>    3.7668    1.0000 </r>
       <r>    7.4707    0.0000 </r>
       <r>   11.0156    0.0000 </r>
       <r>   11.0565    0.0000 </r>
       <r>   12.4973    0.0000 </r>
       <r>   13.5063    0.0000 </r>
       <r>   13.5615    0.0000 </r>
       <r>   18.0924    0.0000 </r>
       <r>   20.3005    0.0000 </r>
      </set>
      <set comment="kpoint 17">
       <r>   -4.1946    1.0000 </r>
       <r>    0.1760    1.0000 </r>
       <r>    1.9467    1.0000 </r>
       <r>    4.3129    1.0000 </r>
       <r>    8.0522    0.0000 </r>
       <r>   10.3625    0.0000 </r>
       <r>   10.6977    0.0000 </r>
       <r>   11.6549    0.0000 </r>
       <r>   12.0681    0.0000 </r>
       <r>   15.1351    0.0000 </r>
       <r>   18.1078    0.0000 </r>
       <r>   18.6429    0.0000 </r>
      </set>
      <set comment="kpoint 18">
       <r>   -3.8477    1.0000 </r>
       <r>   -0.0969    1.0000 </r>
       <r>    3.0628    1.0000 </r>
       <r>    3.0628    1.0000 </r>
       <r>    6.2656    0.0000 </r>
       <r>    7.1910    0.0000 </r>
       <r>   13.5505    0.0000 </r>
       <r>   13.5505    0.0000 </r>
       <r>   15.9961    0.0000 </r>
       <r>   16.0946    0.0000 </r>
       <r>   18.4970    0.0000 </r>
       <r>   18.4973    0.0000 </r>
      </set>
      <set comment="kpoint 19">
       <r>   -2.9686    1.0000 </r>
       <r>   -1.1632    1.0000 </r>
       <r>    2.2575    1.0000 </r>
       <r>    2.9876    1.0000 </r>
       <r>    6.5461    0.0000 </r>
       <r>    7.6000    0.0000 </r>
       <r>   13.7876    0.0000 </r>
       <r>   13.8433    0.0000 </r>
       <r>   16.2314    0.0000 </r>
       <r>   16.3327    0.0000 </r>
       <r>   17.8291    0.0000 </r>
       <r>   18.2500    0.0000 </r>
      </set>
      <set comment="kpoint 20">
       <r>   -2.5455    1.0000 </r>
       <r>   -1.5484    1.0000 </r>
       <r>    1.4155    1.0000 </r>
       <r>    3.2397    1.0000 </r>
       <r>    6.8492    0.0000 </r>
       <r>    9.7267    0.0000 </r>
       <r>   12.9940    0.0000 </r>
       <r>   13.5300    0.0000 </r>
       <r>   13.6957    0.0000 </r>
       <r>   14.0943    0.0000 </r>
       <r>   20.1141    0.0000 </r>
       <r>   20.3784    0.0000 </r>
      </set>
      <set comment="kpoint 21">
       <r>   -2.1306    1.0000 </r>
       <r>   -2.1306    1.0000 </r>
       <r>    2.8213    1.0000 </r>
       <r>    2.8213    1.0000 </r>
       <r>    6.3668    0.0000 </r>
       <r>    6.3668    0.0000 </r>
       <r>   15.5488    0.0000 </r>
       <r>   15.5488    0.0000 </r>
       <r>   16.5206    0.0000 </r>
       <r>   16.5206    0.0000 </r>
       <r>   18.0559    0.0000 </r>
       <r>   18.0561    0.0000 </r>
      </set>
      <set comment="kpoint 22">
       <r>   -4.8936    1.0000 </r>
       <r>    1.3469    1.0000 </r>
       <r>    2.9634    1.0000 </r>
       <r>    4.2150    1.0000 </r>
       <r>    8.0578    0.0000 </r>
       <r>    9.4409    0.0000 </r>
       <r>    9.8178    0.0000 </r>
       <r>   11.0549    0.0000 </r>
       <r>   13.3267    0.0000 </r>
       <r>   15.7185    0.0000 </r>
       <r>   16.5787    0.0000 </r>
       <r>   17.6469    0.0000 </r>
      </set>
      <set comment="kpoint 23">
       <r>   -4.0244    1.0000 </r>
       <r>   -0.1723    1.0000 </r>
       <r>    2.3595    1.0000 </r>
       <r>    3.7277    1.0000 </r>
       <r>    8.4790    0.0000 </r>
       <r>    9.1443    0.0000 </r>
       <r>   10.5921    0.0000 </r>
       <r>   11.4924    0.0000 </r>
       <r>   14.5445    0.0000 </r>
       <r>   15.2406    0.0000 </r>
       <r>   17.5166    0.0000 </r>
       <r>   18.3619    0.0000 </r>
      </set>
      <set comment="kpoint 24">
       <r>   -3.3904    1.0000 </r>
       <r>   -1.0915    1.0000 </r>
       <r>    2.2281    1.0000 </r>
       <r>    3.5048    1.0000 </r>
       <r>    8.6380    0.0000 </r>
       <r>    8.7612    0.0000 </r>
       <r>   11.4608    0.0000 </r>
       <r>   12.6805    0.0000 </r>
       <r>   12.9210    0.0000 </r>
       <r>   16.1218    0.0000 </r>
       <r>   17.1666    0.0000 </r>
       <r>   17.8882    0.0000 </r>
      </set>
      <set comment="kpoint 25">
       <r>   -3.6544    1.0000 </r>
       <r>   -0.3121    1.0000 </r>
       <r>    2.3278    1.0000 </r>
       <r>    2.9196    1.0000 </r>
       <r>    7.5707    0.0000 </r>
       <r>    8.2737    0.0000 </r>
       <r>   11.2991    0.0000 </r>
       <r>   13.5019    0.0000 </r>
       <r>   15.6690    0.0000 </r>
       <r>   15.7236    0.0000 </r>
       <r>   18.2974    0.0000 </r>
       <r>   18.8013    0.0000 </r>
      </set>
      <set comment="kpoint 26">
       <r>   -2.8011    1.0000 </r>
       <r>   -1.2604    1.0000 </r>
       <r>    1.6478    1.0000 </r>
       <r>    2.7237    1.0000 </r>
       <r>    8.0100    0.0000 </r>
       <r>    9.8837    0.0000 </r>
       <r>   10.8267    0.0000 </r>
       <r>   12.9657    0.0000 </r>
       <r>   13.9217    0.0000 </r>
       <r>   16.5737    0.0000 </r>
       <r>   17.6853    0.0000 </r>
       <r>   19.7999    0.0000 </r>
      </set>
      <set comment="kpoint 27">
       <r>   -3.1447    1.0000 </r>
       <r>   -0.9027    1.0000 </r>
       <r>    1.4855    1.0000 </r>
       <r>    3.0902    1.0000 </r>
       <r>    8.4793    0.0000 </r>
       <r>   10.1290    0.0000 </r>
       <r>   10.7803    0.0000 </r>
       <r>   12.5772    0.0000 </r>
       <r>   13.3798    0.0000 </r>
       <r>   14.7603    0.0000 </r>
       <r>   19.5497    0.0000 </r>
       <r>   19.7539    0.0000 </r>
      </set>
      <set comment="kpoint 28">
       <r>   -2.0569    1.0000 </r>
       <r>   -2.0569    1.0000 </r>
       <r>    2.2765    1.0000 </r>
       <r>    2.2765    1.0000 </r>
       <r>    7.6010    0.0000 </r>
       <r>    7.6010    0.0000 </r>
       <r>   13.3655    0.0000 </r>
       <r>   13.3655    0.0000 </r>
       <r>   16.0670    0.0000 </r>
       <r>   16.0670    0.0000 </r>
       <r>   18.3339    0.0000 </r>
       <r>   18.3339    0.0000 </r>
      </set>
      <set comment="kpoint 29">
       <r>   -1.9761    1.0000 </r>
       <r>   -1.9761    1.0000 </r>
       <r>    1.8548    1.0000 </r>
       <r>    1.8548    1.0000 </r>
       <r>    9.8851    0.0000 </r>
       <r>    9.8851    0.0000 </r>
       <r>   10.5453    0.0000 </r>
       <r>   10.5453    0.0000 </r>
       <r>   16.0647    0.0000 </r>
       <r>   16.0647    0.0000 </r>
       <r>   18.4832    0.0000 </r>
       <r>   18.4832    0.0000 </r>
      </set>
     </set>
    </set>
   </array>
  </eigenvalues>
  <separator name="orbital magnetization" >
   <v name="MAGDIPOLOUT">      0.00000000      0.00000000      0.00000000</v>
  </separator>
  <dos>
   <i name="efermi">      5.63384050 </i>
   <total>
    <array>
     <dimension dim="1">gridpoints</dimension>
     <dimension dim="2">spin</dimension>
     <field>energy</field>
     <field>total</field>
     <field>integrated</field>
     <set>
      <set comment="spin 1">
       <r>  -7.5282   0.0000   0.0000 </r>
       <r>  -7.4307   0.0000   0.0000 </r>
       <r>  -7.3333   0.0000   0.0000 </r>
       <r>  -7.2358   0.0000   0.0000 </r>
       <r>  -7.1384   0.0000   0.0000 </r>
       <r>  -7.0409   0.0000   0.0000 </r>
       <r>  -6.9435   0.0000   0.0000 </r>
       <r>  -6.8460   0.0000   0.0000 </r>
       <r>  -6.7486   0.0000   0.0000 </r>
       <r>  -6.6511   0.0000   0.0000 </r>
       <r>  -6.5537   0.0000   0.0000 </r>
       <r>  -6.4562   0.0000   0.0000 </r>
       <r>  -6.3588   0.0000   0.0000 </r>
       <r>  -6.2613   0.0000   0.0000 </r>
       <r>  -6.1639   0.0027   0.0000 </r>
       <r>  -6.0664   0.0384   0.0017 </r>
       <r>  -5.9690   0.0773   0.0083 </r>
       <r>  -5.8715   0.0873   0.0160 </r>
       <r>  -5.7741   0.1056   0.0254 </r>
       <r>  -5.6766   0.1254   0.0367 </r>
       <r>  -5.5792   0.1421   0.0498 </r>
       <r>  -5.4817   0.1494   0.0641 </r>
       <r>  -5.3843   0.1587   0.0790 </r>
       <r>  -5.2868   0.1712   0.0951 </r>
       <r>  -5.1894   0.1841   0.1124 </r>
       <r>  -5.0919   0.1975   0.1310 </r>
       <r>  -4.9945   0.2113   0.1509 </r>
       <r>  -4.8970   0.2208   0.1719 </r>
       <r>  -4.7996   0.2321   0.1940 </r>
       <r>  -4.7021   0.2439   0.2172 </r>
       <r>  -4.6047   0.2566   0.2416 </r>
       <r>  -4.5072   0.2716   0.2673 </r>
       <r>  -4.4098   0.2886   0.2946 </r>
       <r>  -4.3123   0.3074   0.3236 </r>
       <r>  -4.2148   0.3277   0.3545 </r>
       <r>  -4.1174   0.3504   0.3875 </r>
       <r>  -4.0199   0.3928   0.4232 </r>
       <r>  -3.9225   0.5187   0.4670 </r>
       <r>  -3.8250   0.4323   0.5165 </r>
       <r>  -3.7276   0.4257   0.5583 </r>
       <r>  -3.6301   0.4202   0.5995 </r>
       <r>  -3.5327   0.4153   0.6402 </r>
       <r>  -3.4352   0.3918   0.6798 </r>
       <r>  -3.3378   0.3567   0.7159 </r>
       <r>  -3.2403   0.3596   0.7509 </r>
       <r>  -3.1429   0.3496   0.7855 </r>
       <r>  -3.0454   0.3330   0.8188 </r>
       <r>  -2.9480   0.3189   0.8504 </r>
       <r>  -2.8505   0.3100   0.8812 </r>
       <r>  -2.7531   0.2785   0.9102 </r>
       <r>  -2.6556   0.2337   0.9351 </r>
       <r>  -2.5582   0.1889   0.9557 </r>
       <r>  -2.4607   0.1456   0.9720 </r>
       <r>  -2.3633   0.1055   0.9842 </r>
       <r>  -2.2658   0.0688   0.9927 </r>
       <r>  -2.1684   0.0353   0.9977 </r>
       <r>  -2.0709   0.0111   0.9998 </r>
       <r>  -1.9735   0.0206   1.0010 </r>
       <r>  -1.8760   0.0505   1.0044 </r>
       <r>  -1.7786   0.0838   1.0110 </r>
       <r>  -1.6811   0.1206   1.0209 </r>
       <r>  -1.5837   0.1610   1.0346 </r>
       <r>  -1.4862   0.2052   1.0524 </r>
       <r>  -1.3888   0.2547   1.0747 </r>
       <r>  -1.2913   0.3096   1.1022 </r>
       <r>  -1.1939   0.4168   1.1369 </r>
       <r>  -1.0964   0.5478   1.1838 </r>
       <r>  -0.9989   0.8745   1.2562 </r>
       <r>  -0.9015   0.6266   1.3302 </r>
       <r>  -0.8040   0.4851   1.3838 </r>
       <r>  -0.7066   0.4114   1.4269 </r>
       <r>  -0.6091   0.3777   1.4653 </r>
       <r>  -0.5117   0.3471   1.5006 </r>
       <r>  -0.4142   0.3190   1.5331 </r>
       <r>  -0.3168   0.2932   1.5629 </r>
       <r>  -0.2193   0.2648   1.5901 </r>
       <r>  -0.1219   0.2371   1.6144 </r>
       <r>  -0.0244   0.2187   1.6366 </r>
       <r>   0.0730   0.2046   1.6572 </r>
       <r>   0.1705   0.1946   1.6766 </r>
       <r>   0.2679   0.1871   1.6952 </r>
       <r>   0.3654   0.1800   1.7131 </r>
       <r>   0.4628   0.1729   1.7303 </r>
       <r>   0.5603   0.1655   1.7468 </r>
       <r>   0.6577   0.1576   1.7625 </r>
       <r>   0.7552   0.1492   1.7775 </r>
       <r>   0.8526   0.1411   1.7916 </r>
       <r>   0.9501   0.1334   1.8050 </r>
       <r>   1.0475   0.1249   1.8176 </r>
       <r>   1.1450   0.1113   1.8291 </r>
       <r>   1.2424   0.1019   1.8395 </r>
       <r>   1.3399   0.0966   1.8491 </r>
       <r>   1.4373   0.1052   1.8584 </r>
       <r>   1.5348   0.3596   1.8793 </r>
       <r>   1.6322   0.6898   1.9302 </r>
       <r>   1.7297   0.6356   1.9974 </r>
       <r>   1.8271   0.5715   2.0556 </r>
       <r>   1.9246   0.5617   2.1107 </r>
       <r>   2.0220   0.5639   2.1654 </r>
       <r>   2.1195   0.5729   2.2208 </r>
       <r>   2.2169   0.5714   2.2769 </r>
       <r>   2.3144   0.5624   2.3404 </r>
       <r>   2.4119   0.5537   2.3939 </r>
       <r>   2.5093   0.5702   2.4486 </r>
       <r>   2.6068   0.6013   2.5055 </r>
       <r>   2.7042   0.6470   2.5663 </r>
       <r>   2.8017   0.7095   2.6323 </r>
       <r>   2.8991   0.7647   2.7042 </r>
       <r>   2.9966   0.9361   2.7868 </r>
       <r>   3.0940   0.7669   2.8656 </r>
       <r>   3.1915   0.7544   2.9397 </r>
       <r>   3.2889   0.7418   3.0126 </r>
       <r>   3.3864   0.7262   3.0843 </r>
       <r>   3.4838   0.7085   3.1539 </r>
       <r>   3.5813   0.7177   3.2234 </r>
       <r>   3.6787   0.7163   3.2934 </r>
       <r>   3.7762   0.7043   3.3627 </r>
       <r>   3.8736   0.6866   3.4305 </r>
       <r>   3.9711   0.6651   3.4964 </r>
       <r>   4.0685   0.6382   3.5599 </r>
       <r>   4.1660   0.6473   3.6225 </r>
       <r>   4.2634   0.6403   3.6854 </r>
       <r>   4.3609   0.5939   3.7462 </r>
       <r>   4.4583   0.4624   3.7984 </r>
       <r>   4.5558   0.3686   3.8380 </r>
       <r>   4.6532   0.3183   3.8715 </r>
       <r>   4.7507   0.2670   3.9001 </r>
       <r>   4.8481   0.2148   3.9235 </r>
       <r>   4.9456   0.1790   3.9426 </r>
       <r>   5.0430   0.1515   3.9586 </r>
       <r>   5.1405   0.1301   3.9723 </r>
       <r>   5.2379   0.1148   3.9842 </r>
       <r>   5.3354   0.0584   3.9946 </r>
       <r>   5.4328   0.0247   3.9985 </r>
       <r>   5.5303   0.0052   3.9999 </r>
       <r>   5.6277   0.0000   4.0000 </r>
       <r>   5.7252   0.0000   4.0000 </r>
       <r>   5.8227   0.0000   4.0000 </r>
       <r>   5.9201   0.0000   4.0000 </r>
       <r>   6.0176   0.0000   4.0000 </r>
       <r>   6.1150   0.0000   4.0000 </r>
       <r>   6.2125   0.0000   4.0000 </r>
       <r>   6.3099   0.0070   4.0001 </r>
       <r>   6.4074   0.0603   4.0032 </r>
       <r>   6.5048   0.0849   4.0107 </r>
       <r>   6.6023   0.0970   4.0191 </r>
       <r>   6.6997   0.1273   4.0300 </r>
       <r>   6.7972   0.1609   4.0441 </r>
       <r>   6.8946   0.1927   4.0613 </r>
       <r>   6.9921   0.2224   4.0815 </r>
       <r>   7.0895   0.2556   4.1048 </r>
       <r>   7.1870   0.2957   4.1316 </r>
       <r>   7.2844   0.3509   4.1630 </r>
       <r>   7.3819   0.4176   4.2003 </r>
       <r>   7.4793   0.4958   4.2448 </r>
       <r>   7.5768   0.5890   4.2975 </r>
       <r>   7.6742   0.7178   4.3611 </r>
       <r>   7.7717   0.8918   4.4391 </r>
       <r>   7.8691   0.9946   4.5320 </r>
       <r>   7.9666   1.0211   4.6306 </r>
       <r>   8.0640   1.0475   4.7307 </r>
       <r>   8.1615   1.0708   4.8353 </r>
       <r>   8.2589   0.8993   4.9331 </r>
       <r>   8.3564   0.6531   5.0080 </r>
       <r>   8.4538   0.4929   5.0632 </r>
       <r>   8.5513   0.2649   5.0980 </r>
       <r>   8.6487   0.2696   5.1226 </r>
       <r>   8.7462   0.3389   5.1522 </r>
       <r>   8.8436   0.4275   5.1892 </r>
       <r>   8.9411   0.5675   5.2372 </r>
       <r>   9.0386   0.8947   5.3049 </r>
       <r>   9.1360   1.6102   5.4272 </r>
       <r>   9.2335   1.6251   5.6048 </r>
       <r>   9.3309   0.8769   5.7141 </r>
       <r>   9.4284   0.7184   5.7896 </r>
       <r>   9.5258   0.7070   5.8593 </r>
       <r>   9.6233   0.6768   5.9268 </r>
       <r>   9.7207   0.6385   5.9908 </r>
       <r>   9.8182   0.6486   6.0531 </r>
       <r>   9.9156   0.9166   6.1278 </r>
       <r>  10.0131   0.6155   6.2015 </r>
       <r>  10.1105   0.4803   6.2531 </r>
       <r>  10.2080   0.4655   6.2991 </r>
       <r>  10.3054   0.4510   6.3438 </r>
       <r>  10.4029   0.4337   6.3869 </r>
       <r>  10.5003   0.4186   6.4284 </r>
       <r>  10.5978   0.4372   6.4690 </r>
       <r>  10.6952   0.6590   6.5227 </r>
       <r>  10.7927   0.9198   6.5993 </r>
       <r>  10.8901   0.7669   6.6781 </r>
       <r>  10.9876   0.7208   6.7508 </r>
       <r>  11.0850   0.6677   6.8180 </r>
       <r>  11.1825   0.6248   6.8813 </r>
       <r>  11.2799   0.5503   6.9387 </r>
       <r>  11.3774   0.4963   6.9892 </r>
       <r>  11.4748   0.5083   7.0377 </r>
       <r>  11.5723   0.4799   7.0863 </r>
       <r>  11.6697   0.4466   7.1314 </r>
       <r>  11.7672   0.4143   7.1733 </r>
       <r>  11.8646   0.3992   7.2124 </r>
       <r>  11.9621   0.4113   7.2519 </r>
       <r>  12.0595   0.4473   7.2933 </r>
       <r>  12.1570   0.5251   7.3414 </r>
       <r>  12.2544   0.5737   7.3950 </r>
       <r>  12.3519   0.6178   7.4531 </r>
       <r>  12.4494   0.6573   7.5152 </r>
       <r>  12.5468   0.6979   7.5811 </r>
       <r>  12.6443   0.7638   7.6528 </r>
       <r>  12.7417   0.7544   7.7271 </r>
       <r>  12.8392   0.7091   7.7989 </r>
       <r>  12.9366   0.6276   7.8640 </r>
       <r>  13.0341   0.6164   7.9235 </r>
       <r>  13.1315   0.6369   7.9846 </r>
       <r>  13.2290   0.6576   8.0476 </r>
       <r>  13.3264   0.6778   8.1127 </r>
       <r>  13.4239   0.6607   8.1783 </r>
       <r>  13.5213   0.7309   8.2455 </r>
       <r>  13.6188   0.7357   8.3167 </r>
       <r>  13.7162   0.7042   8.3880 </r>
       <r>  13.8137   0.5774   8.4503 </r>
       <r>  13.9111   0.5263   8.5033 </r>
       <r>  14.0086   0.5241   8.5543 </r>
       <r>  14.1060   0.5289   8.6056 </r>
       <r>  14.2035   0.5382   8.6575 </r>
       <r>  14.3009   0.5476   8.7105 </r>
       <r>  14.3984   0.5569   8.7643 </r>
       <r>  14.4958   0.5696   8.8191 </r>
       <r>  14.5933   0.5813   8.8753 </r>
       <r>  14.6907   0.5960   8.9326 </r>
       <r>  14.7882   0.6211   8.9918 </r>
       <r>  14.8856   0.6665   9.0543 </r>
       <r>  14.9831   0.7271   9.1222 </r>
       <r>  15.0805   0.7932   9.1962 </r>
       <r>  15.1780   0.8608   9.2769 </r>
       <r>  15.2754   0.9039   9.3631 </r>
       <r>  15.3729   0.9074   9.4520 </r>
       <r>  15.4703   0.8583   9.5379 </r>
       <r>  15.5678   0.8482   9.6203 </r>
       <r>  15.6653   0.9322   9.7089 </r>
       <r>  15.7627   0.7761   9.7900 </r>
       <r>  15.8602   0.7672   9.8651 </r>
       <r>  15.9576   0.7672   9.9398 </r>
       <r>  16.0551   0.7284  10.0144 </r>
       <r>  16.1525   0.6716  10.0802 </r>
       <r>  16.2500   0.6864  10.1474 </r>
       <r>  16.3474   0.5625  10.2096 </r>
       <r>  16.4449   0.3367  10.2524 </r>
       <r>  16.5423   0.2310  10.2792 </r>
       <r>  16.6398   0.2230  10.3004 </r>
       <r>  16.7372   0.2543  10.3233 </r>
       <r>  16.8347   0.3564  10.3527 </r>
       <r>  16.9321   0.4359  10.3916 </r>
       <r>  17.0296   0.4567  10.4359 </r>
       <r>  17.1270   0.4445  10.4797 </r>
       <r>  17.2245   0.4430  10.5225 </r>
       <r>  17.3219   0.4782  10.5672 </r>
       <r>  17.4194   0.5215  10.6159 </r>
       <r>  17.5168   0.5709  10.6691 </r>
       <r>  17.6143   0.5999  10.7264 </r>
       <r>  17.7117   0.6475  10.7859 </r>
       <r>  17.8092   0.7208  10.8532 </r>
       <r>  17.9066   0.8363  10.9285 </r>
       <r>  18.0041   0.9196  11.0150 </r>
       <r>  18.1015   0.9191  11.1043 </r>
       <r>  18.1990   0.9648  11.1953 </r>
       <r>  18.2964   0.9065  11.2909 </r>
       <r>  18.3939   0.8558  11.3757 </r>
       <r>  18.4913   0.8247  11.4576 </r>
       <r>  18.5888   0.8271  11.5384 </r>
       <r>  18.6862   0.6649  11.6127 </r>
       <r>  18.7837   0.4077  11.6631 </r>
       <r>  18.8811   0.3584  11.7000 </r>
       <r>  18.9786   0.3301  11.7335 </r>
       <r>  19.0761   0.3065  11.7645 </r>
       <r>  19.1735   0.2876  11.7934 </r>
       <r>  19.2710   0.2730  11.8207 </r>
       <r>  19.3684   0.2603  11.8466 </r>
       <r>  19.4659   0.2487  11.8714 </r>
       <r>  19.5633   0.2383  11.8952 </r>
       <r>  19.6608   0.2287  11.9179 </r>
       <r>  19.7582   0.2188  11.9398 </r>
       <r>  19.8557   0.1321  11.9551 </r>
       <r>  19.9531   0.1209  11.9675 </r>
       <r>  20.0506   0.1062  11.9786 </r>
       <r>  20.1480   0.0881  11.9881 </r>
       <r>  20.2455   0.0657  11.9956 </r>
       <r>  20.3429   0.0096  11.9999 </r>
       <r>  20.4404   0.0000  12.0000 </r>
       <r>  20.5378   0.0000  12.0000 </r>
       <r>  20.6353   0.0000  12.0000 </r>
       <r>  20.7327   0.0000  12.0000 </r>
       <r>  20.8302   0.0000  12.0000 </r>
       <r>  20.9276   0.0000  12.0000 </r>
       <r>  21.0251   0.0000  12.0000 </r>
       <r>  21.1225   0.0000  12.0000 </r>
       <r>  21.2200   0.0000  12.0000 </r>
       <r>  21.3174   0.0000  12.0000 </r>
       <r>  21.4149   0.0000  12.0000 </r>
       <r>  21.5123   0.0000  12.0000 </r>
       <r>  21.6098   0.0000  12.0000 </r>
       <r>  21.7072   0.0000  12.0000 </r>
      </set>
      <set comment="spin 2">
       <r>  -7.5282   0.0000   0.0000 </r>
       <r>  -7.4307   0.0000   0.0000 </r>
       <r>  -7.3333   0.0000   0.0000 </r>
       <r>  -7.2358   0.0000   0.0000 </r>
       <r>  -7.1384   0.0000   0.0000 </r>
       <r>  -7.0409   0.0000   0.0000 </r>
       <r>  -6.9435   0.0000   0.0000 </r>
       <r>  -6.8460   0.0000   0.0000 </r>
       <r>  -6.7486   0.0000   0.0000 </r>
       <r>  -6.6511   0.0000   0.0000 </r>
       <r>  -6.5537   0.0000   0.0000 </r>
       <r>  -6.4562   0.0000   0.0000 </r>
       <r>  -6.3588   0.0000   0.0000 </r>
       <r>  -6.2613   0.0000   0.0000 </r>
       <r>  -6.1639   0.0026   0.0000 </r>
       <r>  -6.0664   0.0378   0.0017 </r>
       <r>  -5.9690   0.0775   0.0082 </r>
       <r>  -5.8715   0.0870   0.0159 </r>
       <r>  -5.7741   0.1053   0.0253 </r>
       <r>  -5.6766   0.1251   0.0365 </r>
       <r>  -5.5792   0.1420   0.0496 </r>
       <r>  -5.4817   0.1494   0.0639 </r>
       <r>  -5.3843   0.1585   0.0788 </r>
       <r>  -5.2868   0.1711   0.0949 </r>
       <r>  -5.1894   0.1840   0.1122 </r>
       <r>  -5.0919   0.1973   0.1307 </r>
       <r>  -4.9945   0.2111   0.1506 </r>
       <r>  -4.8970   0.2207   0.1717 </r>
       <r>  -4.7996   0.2320   0.1937 </r>
       <r>  -4.7021   0.2438   0.2169 </r>
       <r>  -4.6047   0.2565   0.2413 </r>
       <r>  -4.5072   0.2714   0.2670 </r>
       <r>  -4.4098   0.2883   0.2942 </r>
       <r>  -4.3123   0.3071   0.3232 </r>
       <r>  -4.2148   0.3274   0.3541 </r>
       <r>  -4.1174   0.3501   0.3871 </r>
       <r>  -4.0199   0.3917   0.4228 </r>
       <r>  -3.9225   0.5167   0.4664 </r>
       <r>  -3.8250   0.4324   0.5160 </r>
       <r>  -3.7276   0.4257   0.5578 </r>
       <r>  -3.6301   0.4202   0.5990 </r>
       <r>  -3.5327   0.4153   0.6397 </r>
       <r>  -3.4352   0.3923   0.6794 </r>
       <r>  -3.3378   0.3566   0.7154 </r>
       <r>  -3.2403   0.3596   0.7504 </r>
       <r>  -3.1429   0.3498   0.7851 </r>
       <r>  -3.0454   0.3332   0.8184 </r>
       <r>  -2.9480   0.3189   0.8500 </r>
       <r>  -2.8505   0.3101   0.8808 </r>
       <r>  -2.7531   0.2790   0.9098 </r>
       <r>  -2.6556   0.2342   0.9349 </r>
       <r>  -2.5582   0.1895   0.9555 </r>
       <r>  -2.4607   0.1461   0.9718 </r>
       <r>  -2.3633   0.1060   0.9841 </r>
       <r>  -2.2658   0.0692   0.9926 </r>
       <r>  -2.1684   0.0357   0.9977 </r>
       <r>  -2.0709   0.0112   0.9998 </r>
       <r>  -1.9735   0.0202   1.0010 </r>
       <r>  -1.8760   0.0501   1.0044 </r>
       <r>  -1.7786   0.0834   1.0109 </r>
       <r>  -1.6811   0.1202   1.0207 </r>
       <r>  -1.5837   0.1604   1.0344 </r>
       <r>  -1.4862   0.2046   1.0521 </r>
       <r>  -1.3888   0.2540   1.0744 </r>
       <r>  -1.2913   0.3089   1.1018 </r>
       <r>  -1.1939   0.4154   1.1364 </r>
       <r>  -1.0964   0.5462   1.1831 </r>
       <r>  -0.9989   0.8749   1.2552 </r>
       <r>  -0.9015   0.6286   1.3294 </r>
       <r>  -0.8040   0.4864   1.3832 </r>
       <r>  -0.7066   0.4119   1.4264 </r>
       <r>  -0.6091   0.3780   1.4649 </r>
       <r>  -0.5117   0.3475   1.5002 </r>
       <r>  -0.4142   0.3193   1.5327 </r>
       <r>  -0.3168   0.2935   1.5625 </r>
       <r>  -0.2193   0.2652   1.5898 </r>
       <r>  -0.1219   0.2373   1.6142 </r>
       <r>  -0.0244   0.2189   1.6363 </r>
       <r>   0.0730   0.2047   1.6570 </r>
       <r>   0.1705   0.1947   1.6764 </r>
       <r>   0.2679   0.1872   1.6950 </r>
       <r>   0.3654   0.1800   1.7129 </r>
       <r>   0.4628   0.1730   1.7301 </r>
       <r>   0.5603   0.1656   1.7466 </r>
       <r>   0.6577   0.1577   1.7623 </r>
       <r>   0.7552   0.1493   1.7773 </r>
       <r>   0.8526   0.1412   1.7914 </r>
       <r>   0.9501   0.1335   1.8048 </r>
       <r>   1.0475   0.1251   1.8175 </r>
       <r>   1.1450   0.1115   1.8290 </r>
       <r>   1.2424   0.1020   1.8393 </r>
       <r>   1.3399   0.0966   1.8490 </r>
       <r>   1.4373   0.1042   1.8583 </r>
       <r>   1.5348   0.3564   1.8790 </r>
       <r>   1.6322   0.6862   1.9295 </r>
       <r>   1.7297   0.6366   1.9967 </r>
       <r>   1.8271   0.5717   2.0550 </r>
       <r>   1.9246   0.5616   2.1101 </r>
       <r>   2.0220   0.5638   2.1648 </r>
       <r>   2.1195   0.5727   2.2202 </r>
       <r>   2.2169   0.5717   2.2763 </r>
       <r>   2.3144   0.5656   2.3398 </r>
       <r>   2.4119   0.5536   2.3933 </r>
       <r>   2.5093   0.5699   2.4480 </r>
       <r>   2.6068   0.6008   2.5049 </r>
       <r>   2.7042   0.6463   2.5655 </r>
       <r>   2.8017   0.7087   2.6315 </r>
       <r>   2.8991   0.7640   2.7034 </r>
       <r>   2.9966   0.9419   2.7858 </r>
       <r>   3.0940   0.7670   2.8647 </r>
       <r>   3.1915   0.7545   2.9389 </r>
       <r>   3.2889   0.7419   3.0118 </r>
       <r>   3.3864   0.7264   3.0834 </r>
       <r>   3.4838   0.7083   3.1531 </r>
       <r>   3.5813   0.7176   3.2226 </r>
       <r>   3.6787   0.7163   3.2926 </r>
[...]
        <r>  0.0140  0.0012  0.0023  0.0013  0.0000  0.0000  0.0000  0.0000  0.0000 </r>
       </set>
      </set>
      <set comment="kpoint 23">
       <set comment="band 1">
        <r>  0.2086  0.0016  0.0015  0.0169  0.0000  0.0000  0.0000  0.0000  0.0000 </r>
        <r>  0.2086  0.0016  0.0015  0.0169  0.0000  0.0000  0.0000  0.0000  0.0000 </r>
       </set>
       <set comment="band 2">
        <r>  0.1462  0.0112  0.0037  0.0668  0.0000  0.0000  0.0000  0.0000  0.0000 </r>
        <r>  0.1462  0.0112  0.0037  0.0668  0.0000  0.0000  0.0000  0.0000  0.0000 </r>
       </set>
       <set comment="band 3">
        <r>  0.0274  0.0544  0.0668  0.0323  0.0000  0.0000  0.0000  0.0000  0.0000 </r>
        <r>  0.0274  0.0544  0.0668  0.0323  0.0000  0.0000  0.0000  0.0000  0.0000 </r>
       </set>
       <set comment="band 4">
        <r>  0.0038  0.0851  0.0953  0.0109  0.0000  0.0000  0.0000  0.0000  0.0000 </r>
        <r>  0.0038  0.0851  0.0953  0.0109  0.0000  0.0000  0.0000  0.0000  0.0000 </r>
       </set>
       <set comment="band 5">
        <r>  0.0439  0.0381  0.0351  0.0149  0.0000  0.0000  0.0000  0.0000  0.0000 </r>
        <r>  0.0439  0.0381  0.0351  0.0149  0.0000  0.0000  0.0000  0.0000  0.0000 </r>
       </set>
       <set comment="band 6">
        <r>  0.0407  0.0500  0.0385  0.0028  0.0000  0.0000  0.0000  0.0000  0.0000 </r>
        <r>  0.0407  0.0500  0.0385  0.0028  0.0000  0.0000  0.0000  0.0000  0.0000 </r>
       </set>
       <set comment="band 7">
        <r>  0.0358  0.0480  0.0020  0.0384  0.0000  0.0000  0.0000  0.0000  0.0000 </r>
        <r>  0.0358  0.0480  0.0020  0.0384  0.0000  0.0000  0.0000  0.0000  0.0000 </r>
       </set>
       <set comment="band 8">
        <r>  0.0135  0.0546  0.0661  0.0005  0.0000  0.0000  0.0000  0.0000  0.0000 </r>
        <r>  0.0135  0.0546  0.0661  0.0005  0.0000  0.0000  0.0000  0.0000  0.0000 </r>
       </set>
       <set comment="band 9">
        <r>  0.0232  0.0012  0.0162  0.0610  0.0000  0.0000  0.0000  0.0000  0.0000 </r>
        <r>  0.0232  0.0012  0.0162  0.0610  0.0000  0.0000  0.0000  0.0000  0.0000 </r>
       </set>
       <set comment="band 10">
        <r>  0.0043  0.0115  0.0310  0.0805  0.0000  0.0000  0.0000  0.0000  0.0000 </r>
        <r>  0.0043  0.0115  0.0310  0.0805  0.0000  0.0000  0.0000  0.0000  0.0000 </r>
       </set>
       <set comment="band 11">
        <r>  0.0316  0.0058  0.0054  0.0028  0.0000  0.0000  0.0000  0.0000  0.0000 </r>
        <r>  0.0316  0.0058  0.0054  0.0028  0.0000  0.0000  0.0000  0.0000  0.0000 </r>
       </set>
       <set comment="band 12">
        <r>  0.0291  0.0088  0.0335  0.0856  0.0000  0.0000  0.0000  0.0000  0.0000 </r>
        <r>  0.0291  0.0088  0.0335  0.0856  0.0000  0.0000  0.0000  0.0000  0.0000 </r>
       </set>
      </set>
      <set comment="kpoint 24">
       <set comment="band 1">
        <r>  0.2183  0.0060  0.0020  0.0129  0.0000  0.0000  0.0000  0.0000  0.0000 </r>
        <r>  0.2183  0.0060  0.0020  0.0129  0.0000  0.0000  0.0000  0.0000  0.0000 </r>
       </set>
       <set comment="band 2">
        <r>  0.1350  0.0087  0.0011  0.0687  0.0000  0.0000  0.0000  0.0000  0.0000 </r>
        <r>  0.1350  0.0087  0.0011  0.0687  0.0000  0.0000  0.0000  0.0000  0.0000 </r>
       </set>
       <set comment="band 3">
        <r>  0.0369  0.0836  0.0338  0.0307  0.0000  0.0000  0.0000  0.0000  0.0000 </r>
        <r>  0.0369  0.0836  0.0338  0.0307  0.0000  0.0000  0.0000  0.0000  0.0000 </r>
       </set>
       <set comment="band 4">
        <r>  0.0008  0.0492  0.1317  0.0093  0.0000  0.0000  0.0000  0.0000  0.0000 </r>
        <r>  0.0008  0.0492  0.1317  0.0093  0.0000  0.0000  0.0000  0.0000  0.0000 </r>
       </set>
       <set comment="band 5">
        <r>  0.0808  0.0264  0.0386  0.0163  0.0000  0.0000  0.0000  0.0000  0.0000 </r>
        <r>  0.0808  0.0264  0.0386  0.0163  0.0000  0.0000  0.0000  0.0000  0.0000 </r>
       </set>
       <set comment="band 6">
        <r>  0.0078  0.0385  0.0400  0.0042  0.0000  0.0000  0.0000  0.0000  0.0000 </r>
        <r>  0.0078  0.0385  0.0400  0.0042  0.0000  0.0000  0.0000  0.0000  0.0000 </r>
       </set>
       <set comment="band 7">
        <r>  0.0231  0.0595  0.0572  0.0055  0.0000  0.0000  0.0000  0.0000  0.0000 </r>
        <r>  0.0231  0.0595  0.0572  0.0055  0.0000  0.0000  0.0000  0.0000  0.0000 </r>
       </set>
       <set comment="band 8">
        <r>  0.0137  0.0198  0.0115  0.0434  0.0000  0.0000  0.0000  0.0000  0.0000 </r>
        <r>  0.0137  0.0198  0.0115  0.0434  0.0000  0.0000  0.0000  0.0000  0.0000 </r>
       </set>
       <set comment="band 9">
        <r>  0.0200  0.0531  0.0182  0.0621  0.0000  0.0000  0.0000  0.0000  0.0000 </r>
        <r>  0.0200  0.0531  0.0182  0.0621  0.0000  0.0000  0.0000  0.0000  0.0000 </r>
       </set>
       <set comment="band 10">
        <r>  0.0000  0.0036  0.0010  0.0431  0.0000  0.0000  0.0000  0.0000  0.0000 </r>
        <r>  0.0000  0.0036  0.0010  0.0431  0.0000  0.0000  0.0000  0.0000  0.0000 </r>
       </set>
       <set comment="band 11">
        <r>  0.0149  0.0045  0.0576  0.0588  0.0000  0.0000  0.0000  0.0000  0.0000 </r>
        <r>  0.0149  0.0045  0.0576  0.0588  0.0000  0.0000  0.0000  0.0000  0.0000 </r>
       </set>
       <set comment="band 12">
        <r>  0.0438  0.0068  0.0009  0.0310  0.0000  0.0000  0.0000  0.0000  0.0000 </r>
        <r>  0.0438  0.0068  0.0009  0.0310  0.0000  0.0000  0.0000  0.0000  0.0000 </r>
       </set>
      </set>
      <set comment="kpoint 25">
       <set comment="band 1">
        <r>  0.2035  0.0051  0.0013  0.0193  0.0000  0.0000  0.0000  0.0000  0.0000 </r>
        <r>  0.2035  0.0051  0.0013  0.0193  0.0000  0.0000  0.0000  0.0000  0.0000 </r>
       </set>
       <set comment="band 2">
        <r>  0.1823  0.0143  0.0081  0.0433  0.0000  0.0000  0.0000  0.0000  0.0000 </r>
        <r>  0.1823  0.0143  0.0081  0.0433  0.0000  0.0000  0.0000  0.0000  0.0000 </r>
       </set>
       <set comment="band 3">
        <r>  0.0083  0.0344  0.0752  0.0562  0.0000  0.0000  0.0000  0.0000  0.0000 </r>
        <r>  0.0083  0.0344  0.0752  0.0562  0.0000  0.0000  0.0000  0.0000  0.0000 </r>
       </set>
       <set comment="band 4">
        <r>  0.0007  0.0948  0.0759  0.0097  0.0000  0.0000  0.0000  0.0000  0.0000 </r>
        <r>  0.0007  0.0948  0.0759  0.0097  0.0000  0.0000  0.0000  0.0000  0.0000 </r>
       </set>
       <set comment="band 5">
        <r>  0.0368  0.0484  0.0226  0.0129  0.0000  0.0000  0.0000  0.0000  0.0000 </r>
        <r>  0.0368  0.0484  0.0226  0.0129  0.0000  0.0000  0.0000  0.0000  0.0000 </r>
       </set>
       <set comment="band 6">
        <r>  0.0391  0.0033  0.0157  0.0345  0.0000  0.0000  0.0000  0.0000  0.0000 </r>
        <r>  0.0391  0.0033  0.0157  0.0345  0.0000  0.0000  0.0000  0.0000  0.0000 </r>
       </set>
       <set comment="band 7">
        <r>  0.0339  0.0620  0.0489  0.0073  0.0000  0.0000  0.0000  0.0000  0.0000 </r>
        <r>  0.0339  0.0620  0.0489  0.0073  0.0000  0.0000  0.0000  0.0000  0.0000 </r>
       </set>
       <set comment="band 8">
        <r>  0.0026  0.0670  0.0767  0.0169  0.0000  0.0000  0.0000  0.0000  0.0000 </r>
        <r>  0.0026  0.0670  0.0767  0.0169  0.0000  0.0000  0.0000  0.0000  0.0000 </r>
       </set>
       <set comment="band 9">
        <r>  0.0407  0.0119  0.0031  0.0573  0.0000  0.0000  0.0000  0.0000  0.0000 </r>
        <r>  0.0407  0.0119  0.0031  0.0573  0.0000  0.0000  0.0000  0.0000  0.0000 </r>
       </set>
       <set comment="band 10">
        <r>  0.0065  0.0066  0.0280  0.0768  0.0000  0.0000  0.0000  0.0000  0.0000 </r>
        <r>  0.0065  0.0066  0.0280  0.0768  0.0000  0.0000  0.0000  0.0000  0.0000 </r>
       </set>
       <set comment="band 11">
        <r>  0.0231  0.0157  0.0508  0.0915  0.0000  0.0000  0.0000  0.0000  0.0000 </r>
        <r>  0.0231  0.0157  0.0509  0.0914  0.0000  0.0000  0.0000  0.0000  0.0000 </r>
       </set>
       <set comment="band 12">
        <r>  0.0208  0.0129  0.0082  0.0064  0.0000  0.0000  0.0000  0.0000  0.0000 </r>
        <r>  0.0208  0.0128  0.0082  0.0063  0.0000  0.0000  0.0000  0.0000  0.0000 </r>
       </set>
      </set>
      <set comment="kpoint 26">
       <set comment="band 1">
        <r>  0.2095  0.0094  0.0020  0.0192  0.0000  0.0000  0.0000  0.0000  0.0000 </r>
        <r>  0.2095  0.0094  0.0020  0.0192  0.0000  0.0000  0.0000  0.0000  0.0000 </r>
       </set>
       <set comment="band 2">
        <r>  0.1845  0.0117  0.0028  0.0416  0.0000  0.0000  0.0000  0.0000  0.0000 </r>
        <r>  0.1845  0.0117  0.0028  0.0416  0.0000  0.0000  0.0000  0.0000  0.0000 </r>
       </set>
       <set comment="band 3">
        <r>  0.0069  0.0901  0.0089  0.0551  0.0000  0.0000  0.0000  0.0000  0.0000 </r>
        <r>  0.0069  0.0901  0.0089  0.0551  0.0000  0.0000  0.0000  0.0000  0.0000 </r>
       </set>
       <set comment="band 4">
        <r>  0.0017  0.0217  0.1481  0.0061  0.0000  0.0000  0.0000  0.0000  0.0000 </r>
        <r>  0.0017  0.0217  0.1481  0.0061  0.0000  0.0000  0.0000  0.0000  0.0000 </r>
       </set>
       <set comment="band 5">
        <r>  0.0387  0.0182  0.0388  0.0149  0.0000  0.0000  0.0000  0.0000  0.0000 </r>
        <r>  0.0387  0.0182  0.0388  0.0149  0.0000  0.0000  0.0000  0.0000  0.0000 </r>
       </set>
       <set comment="band 6">
        <r>  0.0166  0.0498  0.0051  0.0300  0.0000  0.0000  0.0000  0.0000  0.0000 </r>
        <r>  0.0166  0.0498  0.0051  0.0300  0.0000  0.0000  0.0000  0.0000  0.0000 </r>
       </set>
       <set comment="band 7">
        <r>  0.0443  0.0549  0.0422  0.0116  0.0000  0.0000  0.0000  0.0000  0.0000 </r>
        <r>  0.0443  0.0549  0.0422  0.0116  0.0000  0.0000  0.0000  0.0000  0.0000 </r>
       </set>
       <set comment="band 8">
        <r>  0.0237  0.0160  0.0429  0.0635  0.0000  0.0000  0.0000  0.0000  0.0000 </r>
        <r>  0.0237  0.0160  0.0429  0.0635  0.0000  0.0000  0.0000  0.0000  0.0000 </r>
       </set>
       <set comment="band 9">
        <r>  0.0114  0.0609  0.0517  0.0069  0.0000  0.0000  0.0000  0.0000  0.0000 </r>
        <r>  0.0114  0.0609  0.0517  0.0069  0.0000  0.0000  0.0000  0.0000  0.0000 </r>
       </set>
       <set comment="band 10">
        <r>  0.0066  0.0115  0.0133  0.0776  0.0000  0.0000  0.0000  0.0000  0.0000 </r>
        <r>  0.0066  0.0115  0.0133  0.0776  0.0000  0.0000  0.0000  0.0000  0.0000 </r>
       </set>
       <set comment="band 11">
        <r>  0.0215  0.0073  0.0335  0.0673  0.0000  0.0000  0.0000  0.0000  0.0000 </r>
        <r>  0.0215  0.0073  0.0335  0.0673  0.0000  0.0000  0.0000  0.0000  0.0000 </r>
       </set>
       <set comment="band 12">
        <r>  0.0071  0.0532  0.0168  0.0076  0.0000  0.0000  0.0000  0.0000  0.0000 </r>
        <r>  0.0071  0.0532  0.0168  0.0076  0.0000  0.0000  0.0000  0.0000  0.0000 </r>
       </set>
      </set>
      <set comment="kpoint 27">
       <set comment="band 1">
        <r>  0.2104  0.0140  0.0022  0.0109  0.0000  0.0000  0.0000  0.0000  0.0000 </r>
        <r>  0.2104  0.0140  0.0022  0.0109  0.0000  0.0000  0.0000  0.0000  0.0000 </r>
       </set>
       <set comment="band 2">
        <r>  0.1799  0.0278  0.0023  0.0312  0.0000  0.0000  0.0000  0.0000  0.0000 </r>
        <r>  0.1799  0.0278  0.0023  0.0312  0.0000  0.0000  0.0000  0.0000  0.0000 </r>
       </set>
       <set comment="band 3">
        <r>  0.0060  0.0786  0.0009  0.0723  0.0000  0.0000  0.0000  0.0000  0.0000 </r>
        <r>  0.0060  0.0786  0.0009  0.0723  0.0000  0.0000  0.0000  0.0000  0.0000 </r>
       </set>
       <set comment="band 4">
        <r>  0.0034  0.0066  0.1600  0.0130  0.0000  0.0000  0.0000  0.0000  0.0000 </r>
        <r>  0.0034  0.0066  0.1600  0.0130  0.0000  0.0000  0.0000  0.0000  0.0000 </r>
       </set>
       <set comment="band 5">
        <r>  0.0389  0.0141  0.0396  0.0236  0.0000  0.0000  0.0000  0.0000  0.0000 </r>
        <r>  0.0389  0.0141  0.0396  0.0236  0.0000  0.0000  0.0000  0.0000  0.0000 </r>
       </set>
       <set comment="band 6">
        <r>  0.0181  0.0106  0.0776  0.0193  0.0000  0.0000  0.0000  0.0000  0.0000 </r>
        <r>  0.0181  0.0106  0.0776  0.0193  0.0000  0.0000  0.0000  0.0000  0.0000 </r>
       </set>
       <set comment="band 7">
        <r>  0.0437  0.0462  0.0009  0.0362  0.0000  0.0000  0.0000  0.0000  0.0000 </r>
        <r>  0.0437  0.0462  0.0009  0.0362  0.0000  0.0000  0.0000  0.0000  0.0000 </r>
       </set>
       <set comment="band 8">
        <r>  0.0187  0.0601  0.0045  0.0385  0.0000  0.0000  0.0000  0.0000  0.0000 </r>
        <r>  0.0187  0.0601  0.0045  0.0385  0.0000  0.0000  0.0000  0.0000  0.0000 </r>
       </set>
       <set comment="band 9">
        <r>  0.0124  0.0316  0.0622  0.0585  0.0000  0.0000  0.0000  0.0000  0.0000 </r>
        <r>  0.0124  0.0316  0.0622  0.0585  0.0000  0.0000  0.0000  0.0000  0.0000 </r>
       </set>
       <set comment="band 10">
        <r>  0.0284  0.0435  0.0113  0.0251  0.0000  0.0000  0.0000  0.0000  0.0000 </r>
        <r>  0.0284  0.0435  0.0113  0.0251  0.0000  0.0000  0.0000  0.0000  0.0000 </r>
       </set>
       <set comment="band 11">
        <r>  0.0115  0.0214  0.0057  0.0339  0.0000  0.0000  0.0000  0.0000  0.0000 </r>
        <r>  0.0114  0.0214  0.0055  0.0337  0.0000  0.0000  0.0000  0.0000  0.0000 </r>
       </set>
       <set comment="band 12">
        <r>  0.0064  0.0445  0.0003  0.0554  0.0000  0.0000  0.0000  0.0000  0.0000 </r>
        <r>  0.0062  0.0444  0.0003  0.0556  0.0000  0.0000  0.0000  0.0000  0.0000 </r>
       </set>
      </set>
      <set comment="kpoint 28">
       <set comment="band 1">
        <r>  0.1981  0.0136  0.0028  0.0262  0.0000  0.0000  0.0000  0.0000  0.0000 </r>
        <r>  0.1981  0.0136  0.0028  0.0262  0.0000  0.0000  0.0000  0.0000  0.0000 </r>
       </set>
       <set comment="band 2">
        <r>  0.1981  0.0148  0.0019  0.0259  0.0000  0.0000  0.0000  0.0000  0.0000 </r>
        <r>  0.1981  0.0148  0.0019  0.0259  0.0000  0.0000  0.0000  0.0000  0.0000 </r>
       </set>
       <set comment="band 3">
        <r>  0.0025  0.1096  0.0239  0.0369  0.0000  0.0000  0.0000  0.0000  0.0000 </r>
        <r>  0.0025  0.1096  0.0239  0.0369  0.0000  0.0000  0.0000  0.0000  0.0000 </r>
       </set>
       <set comment="band 4">
        <r>  0.0025  0.0041  0.1299  0.0365  0.0000  0.0000  0.0000  0.0000  0.0000 </r>
        <r>  0.0025  0.0041  0.1299  0.0365  0.0000  0.0000  0.0000  0.0000  0.0000 </r>
       </set>
       <set comment="band 5">
        <r>  0.0396  0.0356  0.0006  0.0301  0.0000  0.0000  0.0000  0.0000  0.0000 </r>
        <r>  0.0396  0.0356  0.0006  0.0301  0.0000  0.0000  0.0000  0.0000  0.0000 </r>
       </set>
       <set comment="band 6">
        <r>  0.0396  0.0086  0.0393  0.0183  0.0000  0.0000  0.0000  0.0000  0.0000 </r>
        <r>  0.0396  0.0086  0.0393  0.0183  0.0000  0.0000  0.0000  0.0000  0.0000 </r>
       </set>
       <set comment="band 7">
        <r>  0.0210  0.0092  0.0571  0.0597  0.0000  0.0000  0.0000  0.0000  0.0000 </r>
        <r>  0.0210  0.0092  0.0571  0.0597  0.0000  0.0000  0.0000  0.0000  0.0000 </r>
       </set>
       <set comment="band 8">
        <r>  0.0210  0.0748  0.0408  0.0104  0.0000  0.0000  0.0000  0.0000  0.0000 </r>
        <r>  0.0210  0.0748  0.0408  0.0104  0.0000  0.0000  0.0000  0.0000  0.0000 </r>
       </set>
       <set comment="band 9">
        <r>  0.0005  0.0202  0.0564  0.0467  0.0000  0.0000  0.0000  0.0000  0.0000 </r>
        <r>  0.0005  0.0202  0.0565  0.0467  0.0000  0.0000  0.0000  0.0000  0.0000 </r>
       </set>
       <set comment="band 10">
        <r>  0.0005  0.0621  0.0456  0.0158  0.0000  0.0000  0.0000  0.0000  0.0000 </r>
        <r>  0.0005  0.0620  0.0456  0.0158  0.0000  0.0000  0.0000  0.0000  0.0000 </r>
       </set>
       <set comment="band 11">
        <r>  0.0244  0.0301  0.0080  0.0550  0.0000  0.0000  0.0000  0.0000  0.0000 </r>
        <r>  0.0244  0.0300  0.0080  0.0549  0.0000  0.0000  0.0000  0.0000  0.0000 </r>
       </set>
       <set comment="band 12">
        <r>  0.0244  0.0319  0.0067  0.0542  0.0000  0.0000  0.0000  0.0000  0.0000 </r>
        <r>  0.0244  0.0320  0.0068  0.0544  0.0000  0.0000  0.0000  0.0000  0.0000 </r>
       </set>
      </set>
      <set comment="kpoint 29">
       <set comment="band 1">
        <r>  0.2042  0.0136  0.0102  0.0170  0.0000  0.0000  0.0000  0.0000  0.0000 </r>
        <r>  0.2042  0.0136  0.0102  0.0170  0.0000  0.0000  0.0000  0.0000  0.0000 </r>
       </set>
       <set comment="band 2">
        <r>  0.2042  0.0136  0.0102  0.0170  0.0000  0.0000  0.0000  0.0000  0.0000 </r>
        <r>  0.2042  0.0136  0.0102  0.0170  0.0000  0.0000  0.0000  0.0000  0.0000 </r>
       </set>
       <set comment="band 3">
        <r>  0.0000  0.0467  0.1014  0.0117  0.0000  0.0000  0.0000  0.0000  0.0000 </r>
        <r>  0.0000  0.0467  0.1014  0.0117  0.0000  0.0000  0.0000  0.0000  0.0000 </r>
       </set>
       <set comment="band 4">
        <r>  0.0000  0.0598  0.0130  0.0870  0.0000  0.0000  0.0000  0.0000  0.0000 </r>
        <r>  0.0000  0.0598  0.0130  0.0870  0.0000  0.0000  0.0000  0.0000  0.0000 </r>
       </set>
       <set comment="band 5">
        <r>  0.0000  0.0290  0.0412  0.0154  0.0000  0.0000  0.0000  0.0000  0.0000 </r>
        <r>  0.0000  0.0290  0.0412  0.0154  0.0000  0.0000  0.0000  0.0000  0.0000 </r>
       </set>
       <set comment="band 6">
        <r>  0.0000  0.0281  0.0443  0.0132  0.0000  0.0000  0.0000  0.0000  0.0000 </r>
        <r>  0.0000  0.0281  0.0443  0.0132  0.0000  0.0000  0.0000  0.0000  0.0000 </r>
       </set>
       <set comment="band 7">
        <r>  0.0616  0.0351  0.0264  0.0439  0.0000  0.0000  0.0000  0.0000  0.0000 </r>
        <r>  0.0616  0.0351  0.0264  0.0439  0.0000  0.0000  0.0000  0.0000  0.0000 </r>
       </set>
       <set comment="band 8">
        <r>  0.0616  0.0351  0.0264  0.0439  0.0000  0.0000  0.0000  0.0000  0.0000 </r>
        <r>  0.0616  0.0351  0.0264  0.0439  0.0000  0.0000  0.0000  0.0000  0.0000 </r>
       </set>
       <set comment="band 9">
        <r>  0.0000  0.0535  0.0073  0.0745  0.0000  0.0000  0.0000  0.0000  0.0000 </r>
        <r>  0.0000  0.0535  0.0073  0.0746  0.0000  0.0000  0.0000  0.0000  0.0000 </r>
       </set>
       <set comment="band 10">
        <r>  0.0000  0.0367  0.0798  0.0188  0.0000  0.0000  0.0000  0.0000  0.0000 </r>
        <r>  0.0000  0.0367  0.0798  0.0188  0.0000  0.0000  0.0000  0.0000  0.0000 </r>
       </set>
       <set comment="band 11">
        <r>  0.0254  0.0344  0.0258  0.0430  0.0000  0.0000  0.0000  0.0000  0.0000 </r>
        <r>  0.0254  0.0344  0.0258  0.0430  0.0000  0.0000  0.0000  0.0000  0.0000 </r>
       </set>
       <set comment="band 12">
        <r>  0.0254  0.0344  0.0258  0.0430  0.0000  0.0000  0.0000  0.0000  0.0000 </r>
        <r>  0.0254  0.0344  0.0258  0.0430  0.0000  0.0000  0.0000  0.0000  0.0000 </r>
       </set>
      </set>
     </set>
    </set>
   </array>
  </projected>
 </calculation>
 <structure name="finalpos" >
  <crystal>
   <varray name="basis" >
    <v>       3.34923553      -0.00000000       1.93368206 </v>
    <v>       1.11641151       3.15768944       1.93368206 </v>
    <v>       0.00000000       0.00000000       3.86736311 </v>
   </varray>
   <i name="volume">     40.90063542 </i>
   <varray name="rec_basis" >
    <v>       0.29857560      -0.10556239      -0.00000000 </v>
    <v>       0.00000000       0.31668725      -0.00000000 </v>
    <v>      -0.14928784      -0.10556246       0.25857412 </v>
   </varray>
  </crystal>
  <varray name="positions" >
   <v>       0.87500000       0.87500000       0.87500000 </v>
   <v>       0.12500000       0.12500000       0.12500000 </v>
  </varray>
 </structure>
</modeling>
