 running on   16 nodes
 distr:  one band on    4 nodes,    4 groups
 vasp.5.2.2 15Apr09 complex
 POSCAR found type information on POSCAR  Si
 POSCAR found :  1 types and    2 ions

 -----------------------------------------------------------------------------
|                                                                             |
|  ADVICE TO THIS USER RUNNING 'VASP/VAMP'   (HEAR YOUR MASTER'S VOICE ...):  |
|                                                                             |
|      You have a (more or less) 'small supercell' and for smaller cells      |
|      it is recommended  to use the reciprocal-space projection scheme!      |
|      The real space optimization is not  efficient for small cells and it   |
|      is also less accurate ...                                              |
|      Therefore set LREAL=.FALSE. in the  INCAR file                         |
|                                                                             |
 -----------------------------------------------------------------------------

 LDA part: xc-table for Pade appr. of Perdew
 POSCAR, INCAR and KPOINTS ok, starting setup
 FFT: planning ...(           1 )
 reading WAVECAR
 WARNING: chargedensity file is incomplete
 entering main loop
       N       E                     dE             d eps       ncg     rms          rms(c)
DAV:   1     0.540451207195E+01    0.54045E+01   -0.29684E+03  1392   0.504E+02
DAV:   2    -0.103423334105E+02   -0.15747E+02   -0.15256E+02  1816   0.759E+01
DAV:   3    -0.108318752569E+02   -0.48954E+00   -0.48845E+00  1808   0.113E+01
DAV:   4    -0.108355308299E+02   -0.36556E-02   -0.36551E-02  1656   0.126E+00
DAV:   5    -0.108355683459E+02   -0.37516E-04   -0.37515E-04  1792   0.120E-01    0.373E+00
RMM:   6    -0.108852090233E+02   -0.49641E-01   -0.56915E-02  1392   0.123E+00    0.190E+00
RMM:   7    -0.108241710337E+02    0.61038E-01   -0.54872E-02  1392   0.122E+00    0.103E+00
RMM:   8    -0.108421691934E+02   -0.17998E-01   -0.11501E-02  1392   0.645E-01    0.175E-01
RMM:   9    -0.108417527250E+02    0.41647E-03   -0.43190E-04  1281   0.119E-01    0.973E-02
RMM:  10    -0.108416974263E+02    0.55299E-04   -0.40649E-04  1297   0.107E-01
   1 F= -.10841697E+02 E0= -.10841697E+02  d E =-.108417E+02  mag=     0.0007
 curvature:   0.00 expect dE= 0.000E+00 dE for cont linesearch  0.000E+00
 trial: gam= 0.00000 g(F)=  0.188E-43 g(S)=  0.176E-01 ort = 0.000E+00 (trialstep = 0.100E+01)
 search vector abs. value=  0.176E-01
 bond charge predicted
       N       E                     dE             d eps       ncg     rms          rms(c)
DAV:   1    -0.108513076119E+02   -0.95549E-02   -0.23785E-01  1536   0.196E+00    0.328E-01
RMM:   2    -0.108468816599E+02    0.44260E-02   -0.41634E-03  1392   0.343E-01    0.190E-01
RMM:   3    -0.108444781695E+02    0.24035E-02   -0.28295E-03  1392   0.222E-01    0.263E-02
RMM:   4    -0.108444892825E+02   -0.11113E-04   -0.55474E-05   857   0.485E-02
   2 F= -.10844489E+02 E0= -.10844489E+02  d E =-.279186E-02  mag=    -0.0001
 trial-energy change:   -0.002792  1 .order   -0.002945   -0.017579    0.011688
 step:   0.6006(harm=  0.6006)  dis= 0.00000  next Energy=   -10.846977 (dE=-0.528E-02)
 bond charge predicted
       N       E                     dE             d eps       ncg     rms          rms(c)
DAV:   1    -0.108478508707E+02   -0.33727E-02   -0.38472E-02  1612   0.796E-01    0.131E-01
RMM:   2    -0.108471654203E+02    0.68545E-03   -0.66474E-04  1387   0.136E-01    0.758E-02
RMM:   3    -0.108468084210E+02    0.35700E-03   -0.43565E-04  1378   0.869E-02    0.117E-02
RMM:   4    -0.108468105573E+02   -0.21364E-05   -0.82533E-06   716   0.185E-02
   3 F= -.10846811E+02 E0= -.10846811E+02  d E =-.511313E-02  mag=     0.0000
 curvature:  -0.30 expect dE=-0.187E-05 dE for cont linesearch -0.187E-05
 trial: gam= 0.00000 g(F)=  0.460E-44 g(S)=  0.623E-05 ort =-0.331E-03 (trialstep = 0.920E+00)
 search vector abs. value=  0.623E-05
 reached required accuracy - stopping structural energy minimisation
