 vasp.6.3.0 20Jan22 (build Feb 02 2022 18:12:33) complex                        
  
 executed on             LinuxIFC date 2022.04.15  08:36:39
 running on  144 total cores
 distrk:  each k-point on  144 cores,    1 groups
 distr:  one band on NCORE=   1 cores,  144 groups


--------------------------------------------------------------------------------------------------------


 INCAR:
   ALGO = Fast
   EDIFF = 1e-05
   EDIFFG = -0.05
   ENAUG = 1360
   ENCUT = 500
   GGA = Ps
   IBRION = 2
   ISIF = 2
   ISMEAR = 0
   ISPIN = 2
   LAECHG = False
   LASPH = True
   LCHARG = False
   LELF = False
   LMIXTAU = True
   LORBIT = 11
   LREAL = False
   LVTOT = True
   LWAVE = True
   MAGMOM = 7*0.6
   NELECT = 27.0
   NELM = 200
   NELMIN = 6
   NSW = 99
   PREC = Accurate
   SIGMA = 0.05

 POTCAR:    PAW_PBE Si 05Jan2001                  
 WARNING: For LVTOT=.TRUE., VASP.5.x writes the TOTAL local potential to the
     file LOCPOT. If you want only the Hartree contributions, use LVHAR=.TRUE.
     instead. 

 -----------------------------------------------------------------------------
|                                                                             |
|           W    W    AA    RRRRR   N    N  II  N    N   GGGG   !!!           |
|           W    W   A  A   R    R  NN   N  II  NN   N  G    G  !!!           |
|           W    W  A    A  R    R  N N  N  II  N N  N  G       !!!           |
|           W WW W  AAAAAA  RRRRR   N  N N  II  N  N N  G  GGG   !            |
|           WW  WW  A    A  R   R   N   NN  II  N   NN  G    G                |
|           W    W  A    A  R    R  N    N  II  N    N   GGGG   !!!           |
|                                                                             |
|     For optimal performance we recommend to set                             |
|       NCORE = 2 up to number-of-cores-per-socket                            |
|     NCORE specifies how many cores store one orbital (NPAR=cpu/NCORE).      |
|     This setting can greatly improve the performance of VASP for DFT.       |
|     The default, NCORE=1 might be grossly inefficient on modern             |
|     multi-core architectures or massively parallel machines. Do your        |
|     own testing! More info at https://www.vasp.at/wiki/index.php/NCORE      |
|     Unfortunately you need to use the default for GW and RPA                |
|     calculations (for HF NCORE is supported but not extensively tested      |
|     yet).                                                                   |
|                                                                             |
 -----------------------------------------------------------------------------

 POTCAR:    PAW_PBE Si 05Jan2001                  
   VRHFIN =Si: s2p2                                                                                 
   LEXCH  = PE                                                                                      
   EATOM  =   103.0669 eV,    7.5752 Ry                                                             
                                                                                                    
   TITEL  = PAW_PBE Si 05Jan2001                                                                    
   LULTRA =        F    use ultrasoft PP ?                                                          
   IUNSCR =        1    unscreen: 0-lin 1-nonlin 2-no                                               
   RPACOR =    1.500    partial core radius                                                         
   POMASS =   28.085; ZVAL   =    4.000    mass and valenz                                          
   RCORE  =    1.900    outmost cutoff radius                                                       
   RWIGS  =    2.480; RWIGS  =    1.312    wigner-seitz radius (au A)                               
   ENMAX  =  245.345; ENMIN  =  184.009 eV                                                          
   ICORE  =        2    local potential                                                             
   LCOR   =        T    correct aug charges                                                         
   LPAW   =        T    paw PP                                                                      
   EAUG   =  322.069                                                                                
   DEXC   =    0.000                                                                                
   RMAX   =    1.950    core radius for proj-oper                                                   
   RAUG   =    1.300    factor for augmentation sphere                                              
   RDEP   =    1.993    radius for radial grids                                                     
   RDEPT  =    1.837    core radius for aug-charge                                                  
                                                                                                    
   Atomic configuration                                                                             
    6 entries                                                                                       
     n  l   j            E        occ.                                                              
     1  0  0.50     -1785.8828   2.0000                                                             
     2  0  0.50      -139.4969   2.0000                                                             
     2  1  1.50       -95.5546   6.0000                                                             
     3  0  0.50       -10.8127   2.0000                                                             
     3  1  0.50        -4.0811   2.0000                                                             
     3  2  1.50        -4.0817   0.0000                                                             
   Description                                                                                      
     l       E           TYP  RCUT    TYP  RCUT                                                     
     0    -10.8127223     23  1.900                                                                 
     0     -7.6451159     23  1.900                                                                 
     1     -4.0811372     23  1.900                                                                 
     1      2.4879257     23  1.900                                                                 
     2     -4.0817478      7  1.900                                                                 
  local pseudopotential read in
  partial core-charges read in
  partial kinetic energy density read in
  atomic valenz-charges read in
  non local Contribution for L=           0  read in
    real space projection operators read in
  non local Contribution for L=           0  read in
    real space projection operators read in
  non local Contribution for L=           1  read in
    real space projection operators read in
  non local Contribution for L=           1  read in
    real space projection operators read in
    PAW grid and wavefunctions read in
 
   number of l-projection  operators is LMAX  =           4
   number of lm-projection operators is LMMAX =           8
 
 -----------------------------------------------------------------------------
|                                                                             |
|               ----> ADVICE to this user running VASP <----                  |
|                                                                             |
|     You enforced a specific xc type in the INCAR file but a different       |
|     type was found in the POTCAR file.                                      |
|     I HOPE YOU KNOW WHAT YOU ARE DOING!                                     |
|                                                                             |
 -----------------------------------------------------------------------------

  PAW_PBE Si 05Jan2001                  :
 energy of atom  1       EATOM= -103.0669
 kinetic energy error for atom=    0.0006 (will be added to EATOM!!)
 
 
 POSCAR: Si7
  positions in direct lattice
  No initial velocities read in
 exchange correlation table for  LEXCH =       14
   RHO(1)=    0.500       N(1)  =     2000
   RHO(2)= 2000.500       N(2)  =     4000
 


--------------------------------------------------------------------------------------------------------


 ion  position               nearest neighbor table
   1  0.254  0.746  0.254-   2 2.37   4 2.37   6 2.37
   2  0.000  0.000  0.500-   1 2.37   3 2.37   5 2.37   7 2.37
   3  0.254  0.254  0.746-   2 2.37   4 2.37   6 2.37
   4  0.000  0.500  0.000-   1 2.37   3 2.37   5 2.37   7 2.37
   5  0.746  0.746  0.746-   2 2.37   4 2.37   6 2.37
   6  0.500  0.000  0.000-   1 2.37   3 2.37   5 2.37   7 2.37
   7  0.746  0.254  0.254-   2 2.37   4 2.37   6 2.37
 
  LATTYP: Found a simple cubic cell.
 ALAT       =     5.4378483500
  
  Lattice vectors:
  
 A1 = (   5.4378483500,   0.0000000000,   0.0000000000)
 A2 = (   0.0000000000,   5.4378483500,   0.0000000000)
 A3 = (   0.0000000000,   0.0000000000,   5.4378483500)


Analysis of symmetry for initial positions (statically):
=====================================================================
 Subroutine PRICEL returns:
 Original cell was already a primitive cell.
 

 Routine SETGRP: Setting up the symmetry group for a 
 simple cubic supercell.


 Subroutine GETGRP returns: Found 24 space group operations
 (whereof 24 operations were pure point group operations)
 out of a pool of 48 trial point group operations.


The static configuration has the point symmetry T_d .


Analysis of symmetry for dynamics (positions and initial velocities):
=====================================================================
 Subroutine PRICEL returns:
 Original cell was already a primitive cell.
 

 Routine SETGRP: Setting up the symmetry group for a 
 simple cubic supercell.


 Subroutine GETGRP returns: Found 24 space group operations
 (whereof 24 operations were pure point group operations)
 out of a pool of 48 trial point group operations.


The dynamic configuration has the point symmetry T_d .


Analysis of structural, dynamic, and magnetic symmetry:
=====================================================================
 Subroutine PRICEL returns:
 Original cell was already a primitive cell.
 

 Routine SETGRP: Setting up the symmetry group for a 
 simple cubic supercell.


 Subroutine GETGRP returns: Found 24 space group operations
 (whereof 24 operations were pure point group operations)
 out of a pool of 48 trial point group operations.


The overall configuration has the point symmetry T_d .


 Subroutine INISYM returns: Found 24 space group operations
 (whereof 24 operations are pure point group operations),
 and found     1 'primitive' translations


----------------------------------------------------------------------------------------

                                     Primitive cell                                     

  volume of cell :     160.7982

  direct lattice vectors                    reciprocal lattice vectors
     5.437848350  0.000000000  0.000000000     0.183896265  0.000000000  0.000000000
     0.000000000  5.437848350  0.000000000     0.000000000  0.183896265  0.000000000
     0.000000000  0.000000000  5.437848350     0.000000000  0.000000000  0.183896265

  length of vectors
     5.437848350  5.437848350  5.437848350     0.183896265  0.183896265  0.183896265

  position of ions in fractional coordinates (direct lattice)
     0.254342927  0.745657073  0.254342927
     0.000000000  0.000000000  0.500000000
     0.254342927  0.254342927  0.745657073
     0.000000000  0.500000000  0.000000000
     0.745657073  0.745657073  0.745657073
     0.500000000  0.000000000  0.000000000
     0.745657073  0.254342927  0.254342927

  ion indices of the primitive-cell ions
   primitive index   ion index
                 1           1
                 2           2
                 3           3
                 4           4
                 5           5
                 6           6
                 7           7

----------------------------------------------------------------------------------------

 
 
 KPOINTS: pymatgen with grid density = 691 / numbe

Automatic generation of k-mesh.
 Grid dimensions read from file:
 generate k-points for:    4    4    4

 Generating k-lattice:

  Cartesian coordinates                     Fractional coordinates (reciprocal lattice)
     0.045974066  0.000000000  0.000000000     0.250000000  0.000000000  0.000000000
     0.000000000  0.045974066  0.000000000     0.000000000  0.250000000  0.000000000
     0.000000000  0.000000000  0.045974066     0.000000000  0.000000000  0.250000000

  Length of vectors
     0.045974066  0.045974066  0.045974066

  Shift w.r.t. Gamma in fractional coordinates (k-lattice)
     0.000000000  0.000000000  0.000000000

 
 Subroutine IBZKPT returns following result:
 ===========================================
 
 Found     10 irreducible k-points:
 
 Following reciprocal coordinates:
            Coordinates               Weight
  0.000000  0.000000  0.000000      1.000000
  0.250000  0.000000  0.000000      6.000000
  0.500000  0.000000  0.000000      3.000000
  0.250000  0.250000  0.000000     12.000000
  0.500000  0.250000  0.000000     12.000000
  0.500000  0.500000  0.000000      3.000000
  0.250000  0.250000  0.250000      8.000000
  0.500000  0.250000  0.250000     12.000000
  0.500000  0.500000  0.250000      6.000000
  0.500000  0.500000  0.500000      1.000000
 
 Following cartesian coordinates:
            Coordinates               Weight
  0.000000  0.000000  0.000000      1.000000
  0.045974  0.000000  0.000000      6.000000
  0.091948  0.000000  0.000000      3.000000
  0.045974  0.045974  0.000000     12.000000
  0.091948  0.045974  0.000000     12.000000
  0.091948  0.091948  0.000000      3.000000
  0.045974  0.045974  0.045974      8.000000
  0.091948  0.045974  0.045974     12.000000
  0.091948  0.091948  0.045974      6.000000
  0.091948  0.091948  0.091948      1.000000
 


--------------------------------------------------------------------------------------------------------




 Dimension of arrays:
   k-points           NKPTS =     10   k-points in BZ     NKDIM =     10   number of bands    NBANDS=    144
   number of dos      NEDOS =    301   number of ions     NIONS =      7
   non local maximal  LDIM  =      4   non local SUM 2l+1 LMDIM =      8
   total plane-waves  NPLWV =  64000
   max r-space proj   IRMAX =      1   max aug-charges    IRDMAX=  13506
   dimension x,y,z NGX =    40 NGY =   40 NGZ =   40
   dimension x,y,z NGXF=    80 NGYF=   80 NGZF=   80
   support grid    NGXF=    80 NGYF=   80 NGZF=   80
   ions per type =               7
   NGX,Y,Z   is equivalent  to a cutoff of  12.23, 12.23, 12.23 a.u.
   NGXF,Y,Z  is equivalent  to a cutoff of  24.46, 24.46, 24.46 a.u.

 SYSTEM =  unknown system                          
 POSCAR =  Si7                                     

 Startparameter for this run:
   NWRITE =      2    write-flag & timer
   PREC   = accura    normal or accurate (medium, high low for compatibility)
   ISTART =      0    job   : 0-new  1-cont  2-samecut
   ICHARG =      2    charge: 1-file 2-atom 10-const
   ISPIN  =      2    spin polarized calculation?
   LNONCOLLINEAR =      F non collinear calculations
   LSORBIT =      F    spin-orbit coupling
   INIWAV =      1    electr: 0-lowe 1-rand  2-diag
   LASPH  =      T    aspherical Exc in radial PAW
 Electronic Relaxation 1
   ENCUT  =  500.0 eV  36.75 Ry    6.06 a.u.   9.91  9.91  9.91*2*pi/ulx,y,z
   ENINI  =  500.0     initial cutoff
   ENAUG  = 1360.0 eV  augmentation charge cutoff
   NELM   =    200;   NELMIN=  6; NELMDL= -5     # of ELM steps 
   EDIFF  = 0.1E-04   stopping-criterion for ELM
   LREAL  =      F    real-space projection
   NLSPLINE    = F    spline interpolate recip. space projectors
   LCOMPAT=      F    compatible to vasp.4.4
   GGA_COMPAT  = T    GGA compatible to vasp.4.4-vasp.4.6
   LMAXPAW     = -100 max onsite density
   LMAXMIX     =    2 max onsite mixed and CHGCAR
   VOSKOWN=      0    Vosko Wilk Nusair interpolation
   ROPT   =    0.00000
 Ionic relaxation
   EDIFFG = -.5E-01   stopping-criterion for IOM
   NSW    =     99    number of steps for IOM
   NBLOCK =      1;   KBLOCK =     99    inner block; outer block 
   IBRION =      2    ionic relax: 0-MD 1-quasi-New 2-CG
   NFREE  =      1    steps in history (QN), initial steepest desc. (CG)
   ISIF   =      2    stress and relaxation
   IWAVPR =     11    prediction:  0-non 1-charg 2-wave 3-comb
   ISYM   =      2    0-nonsym 1-usesym 2-fastsym
   LCORR  =      T    Harris-Foulkes like correction to forces

   POTIM  = 0.5000    time-step for ionic-motion
   TEIN   =    0.0    initial temperature
   TEBEG  =    0.0;   TEEND  =   0.0 temperature during run
   SMASS  =  -3.00    Nose mass-parameter (am)
   estimated Nose-frequenzy (Omega)   =  0.10E-29 period in steps = 0.13E+47 mass=  -0.676E-27a.u.
   SCALEE = 1.0000    scale energy and forces
   NPACO  =    256;   APACO  = 10.0  distance and # of slots for P.C.
   PSTRESS=    0.0 pullay stress

  Mass of Ions in am
   POMASS =  28.09
  Ionic Valenz
   ZVAL   =   4.00
  Atomic Wigner-Seitz radii
   RWIGS  =  -1.00
  virtual crystal weights 
   VCA    =   1.00
   NELECT =      27.0000    total number of electrons
   NUPDOWN=      -1.0000    fix difference up-down

 DOS related values:
   EMIN   =  10.00;   EMAX   =-10.00  energy-range for DOS
   EFERMI =   0.00
   ISMEAR =     0;   SIGMA  =   0.05  broadening in eV -4-tet -1-fermi 0-gaus

 Electronic relaxation 2 (details)
   IALGO  =     68    algorithm
   LDIAG  =      T    sub-space diagonalisation (order eigenvalues)
   LSUBROT=      F    optimize rotation matrix (better conditioning)
   TURBO    =      0    0=normal 1=particle mesh
   IRESTART =      0    0=no restart 2=restart with 2 vectors
   NREBOOT  =      0    no. of reboots
   NMIN     =      0    reboot dimension
   EREF     =   0.00    reference energy to select bands
   IMIX   =      4    mixing-type and parameters
     AMIX     =   0.40;   BMIX     =  1.00
     AMIX_MAG =   1.60;   BMIX_MAG =  1.00
     AMIN     =   0.10
     WC   =   100.;   INIMIX=   1;  MIXPRE=   1;  MAXMIX= -45

 Intra band minimization:
   WEIMIN = 0.0010     energy-eigenvalue tresh-hold
   EBREAK =  0.17E-07  absolut break condition
   DEPER  =   0.30     relativ break condition  

   TIME   =   0.40     timestep for ELM

  volume/ion in A,a.u.               =      22.97       155.02
  Fermi-wavevector in a.u.,A,eV,Ry     =   0.903169  1.706742 11.098465  0.815714
  Thomas-Fermi vector in A             =   2.026462
 
 Write flags
   LWAVE        =      T    write WAVECAR
   LDOWNSAMPLE  =      F    k-point downsampling of WAVECAR
   LCHARG       =      F    write CHGCAR
   LVTOT        =      T    write LOCPOT, total local potential
   LVHAR        =      F    write LOCPOT, Hartree potential only
   LELF         =      F    write electronic localiz. function (ELF)
   LORBIT       =     11    0 simple, 1 ext, 2 COOP (PROOUT), +10 PAW based schemes


 Dipole corrections
   LMONO  =      F    monopole corrections only (constant potential shift)
   LDIPOL =      F    correct potential (dipole corrections)
   IDIPOL =      0    1-x, 2-y, 3-z, 4-all directions 
   EPSILON=  1.0000000 bulk dielectric constant

 Exchange correlation treatment:
   GGA     =    PS    GGA type
   LEXCH   =    14    internal setting for exchange type
   LIBXC   =     F    Libxc                    
   VOSKOWN =     0    Vosko Wilk Nusair interpolation
   LHFCALC =     F    Hartree Fock is set to
   LHFONE  =     F    Hartree Fock one center treatment
   AEXX    =    0.0000 exact exchange contribution

 Linear response parameters
   LEPSILON=     F    determine dielectric tensor
   LRPA    =     F    only Hartree local field effects (RPA)
   LNABLA  =     F    use nabla operator in PAW spheres
   LVEL    =     F    velocity operator in full k-point grid
   CSHIFT  =0.1000    complex shift for real part using Kramers Kronig
   OMEGAMAX=  -1.0    maximum frequency
   DEG_THRESHOLD= 0.2000000E-02 threshold for treating states as degnerate
   RTIME   =   -0.100 relaxation time in fs
  (WPLASMAI=    0.000 imaginary part of plasma frequency in eV, 0.658/RTIME)
   DFIELD  = 0.0000000 0.0000000 0.0000000 field for delta impulse in time
 
  Optional k-point grid parameters
   LKPOINTS_OPT  =     F    use optional k-point grid
   KPOINTS_OPT_MODE=     1    mode for optional k-point grid
 
 Orbital magnetization related:
   ORBITALMAG=     F  switch on orbital magnetization
   LCHIMAG   =     F  perturbation theory with respect to B field
   DQ        =  0.001000  dq finite difference perturbation B field
   LLRAUG    =     F  two centre corrections for induced B field



--------------------------------------------------------------------------------------------------------


 conjugate gradient relaxation of ions
 charge density and potential will be updated during run
 spin polarized calculation
 RMM-DIIS sequential band-by-band and
  variant of blocked Davidson during initial phase
 perform sub-space diagonalisation
    before iterative eigenvector-optimisation
 modified Broyden-mixing scheme, WC =      100.0
 initial mixing is a Kerker type mixing with AMIX =  0.4000 and BMIX =      1.0000
 Hartree-type preconditioning will be used
 using additional bands          130
 reciprocal scheme for non local part
 use partial core corrections
 calculate Harris-corrections to forces 
   (improved forces if not selfconsistent)
 use gradient corrections 
 use of overlap-Matrix (Vanderbilt PP)
 Gauss-broadening in eV      SIGMA  =   0.05


--------------------------------------------------------------------------------------------------------


  energy-cutoff  :      500.00
  volume of cell :      160.80
      direct lattice vectors                 reciprocal lattice vectors
     5.437848350  0.000000000  0.000000000     0.183896265  0.000000000  0.000000000
     0.000000000  5.437848350  0.000000000     0.000000000  0.183896265  0.000000000
     0.000000000  0.000000000  5.437848350     0.000000000  0.000000000  0.183896265

  length of vectors
     5.437848350  5.437848350  5.437848350     0.183896265  0.183896265  0.183896265


 
 k-points in units of 2pi/SCALE and weight: pymatgen with grid density = 691 / numbe
   0.00000000  0.00000000  0.00000000       0.016
   0.04597407  0.00000000  0.00000000       0.094
   0.09194813  0.00000000  0.00000000       0.047
   0.04597407  0.04597407  0.00000000       0.188
   0.09194813  0.04597407  0.00000000       0.188
   0.09194813  0.09194813  0.00000000       0.047
   0.04597407  0.04597407  0.04597407       0.125
   0.09194813  0.04597407  0.04597407       0.188
   0.09194813  0.09194813  0.04597407       0.094
   0.09194813  0.09194813  0.09194813       0.016
 
 k-points in reciprocal lattice and weights: pymatgen with grid density = 691 / numbe
   0.00000000  0.00000000  0.00000000       0.016
   0.25000000  0.00000000  0.00000000       0.094
   0.50000000  0.00000000  0.00000000       0.047
   0.25000000  0.25000000  0.00000000       0.188
   0.50000000  0.25000000  0.00000000       0.188
   0.50000000  0.50000000  0.00000000       0.047
   0.25000000  0.25000000  0.25000000       0.125
   0.50000000  0.25000000  0.25000000       0.188
   0.50000000  0.50000000  0.25000000       0.094
   0.50000000  0.50000000  0.50000000       0.016
 
 position of ions in fractional coordinates (direct lattice) 
   0.25434293  0.74565707  0.25434293
   0.00000000  0.00000000  0.50000000
   0.25434293  0.25434293  0.74565707
   0.00000000  0.50000000  0.00000000
   0.74565707  0.74565707  0.74565707
   0.50000000  0.00000000  0.00000000
   0.74565707  0.25434293  0.25434293
 
 position of ions in cartesian coordinates  (Angst):
   1.38307826  4.05477009  1.38307826
   0.00000000  0.00000000  2.71892418
   1.38307826  1.38307826  4.05477009
   0.00000000  2.71892418  0.00000000
   4.05477009  4.05477009  4.05477009
   2.71892418  0.00000000  0.00000000
   4.05477009  1.38307826  1.38307826
 


--------------------------------------------------------------------------------------------------------


 k-point   1 :   0.0000 0.0000 0.0000  plane waves:    4067
 k-point   2 :   0.2500 0.0000 0.0000  plane waves:    4072
 k-point   3 :   0.5000 0.0000 0.0000  plane waves:    4116
 k-point   4 :   0.2500 0.2500 0.0000  plane waves:    4080
 k-point   5 :   0.5000 0.2500 0.0000  plane waves:    4072
 k-point   6 :   0.5000 0.5000 0.0000  plane waves:    4076
 k-point   7 :   0.2500 0.2500 0.2500  plane waves:    4094
 k-point   8 :   0.5000 0.2500 0.2500  plane waves:    4076
 k-point   9 :   0.5000 0.5000 0.2500  plane waves:    4092
 k-point  10 :   0.5000 0.5000 0.5000  plane waves:    4032

 maximum and minimum number of plane-waves per node :      4116     4032

 maximum number of plane-waves:      4116
 maximum index in each direction: 
   IXMAX=    9   IYMAX=    9   IZMAX=    9
   IXMIN=  -10   IYMIN=  -10   IZMIN=  -10


 serial   3D FFT for wavefunctions
 parallel 3D FFT for charge:
    minimum data exchange during FFTs selected (reduces bandwidth)


 total amount of memory used by VASP MPI-rank0    40713. kBytes
=======================================================================

   base      :      30000. kBytes
   nonl-proj :       3140. kBytes
   fftplans  :        508. kBytes
   grid      :       5640. kBytes
   one-center:         43. kBytes
   wavefun   :       1382. kBytes
 
     INWAV:  cpu time      0.0000: real time      0.0000
 Broyden mixing: mesh for mixing (old mesh)
   NGX = 19   NGY = 19   NGZ = 19
  (NGX  = 80   NGY  = 80   NGZ  = 80)
  gives a total of   6859 points

 initial charge density was supplied:
 charge density of overlapping atoms calculated
 number of electron      28.0000000 magnetization       4.2000000
 keeping initial charge density in first step


--------------------------------------------------------------------------------------------------------


 Maximum index for augmentation-charges          665 (set IRDMAX)


--------------------------------------------------------------------------------------------------------


 First call to EWALD:  gamma=   0.326
 Maximum number of real-space cells 3x 3x 3
 Maximum number of reciprocal cells 3x 3x 3

    FEWALD:  cpu time      0.0027: real time      0.0029


--------------------------------------- Iteration      1(   1)  ---------------------------------------


    POTLOK:  cpu time      0.0258: real time      0.0300
    SETDIJ:  cpu time      0.2000: real time      0.2000
     EDDAV:  cpu time      5.2004: real time      5.2011
       DOS:  cpu time      0.0024: real time      0.0024
    --------------------------------------------
      LOOP:  cpu time      5.4287: real time      5.4336

 eigenvalue-minimisations  :  5760
 total energy-change (2. order) :-0.2373560E+02  (-0.1087851E+04)
 number of electron      28.0000000 magnetization       4.2000000
 augmentation part       28.0000000 magnetization       4.2000000

 Free energy of the ion-electron system (eV)
  ---------------------------------------------------
  alpha Z        PSCENC =        10.25815623
  Ewald energy   TEWEN  =      -749.89178961
  -Hartree energ DENC   =       -55.71548376
  -exchange      EXHF   =         0.00000000
  -V(xc)+E(xc)   XCENC  =       -62.36059601
  PAW double counting   =       612.14459606     -491.11706165
  entropy T*S    EENTRO =        -0.00000681
  eigenvalues    EBANDS =        -5.08153151
  atomic energy  EATOM  =       718.02812073
  Solvation  Ediel_sol  =         0.00000000
  ---------------------------------------------------
  free energy    TOTEN  =       -23.73559633 eV

  energy without entropy =      -23.73558952  energy(sigma->0) =      -23.73559292


--------------------------------------------------------------------------------------------------------




--------------------------------------- Iteration      1(   2)  ---------------------------------------


     EDDAV:  cpu time     12.3788: real time     12.3970
       DOS:  cpu time      0.0025: real time      0.0054
    --------------------------------------------
      LOOP:  cpu time     12.3813: real time     12.4024

 eigenvalue-minimisations  :  8640
 total energy-change (2. order) :-0.1788714E+02  (-0.1788712E+02)
 number of electron      28.0000000 magnetization       4.2000000
 augmentation part       28.0000000 magnetization       4.2000000

 Free energy of the ion-electron system (eV)
  ---------------------------------------------------
  alpha Z        PSCENC =        10.25815623
  Ewald energy   TEWEN  =      -749.89178961
  -Hartree energ DENC   =       -55.71548376
  -exchange      EXHF   =         0.00000000
  -V(xc)+E(xc)   XCENC  =       -62.36059601
  PAW double counting   =       612.14459606     -491.11706165
  entropy T*S    EENTRO =        -0.00010627
  eigenvalues    EBANDS =       -22.96856892
  atomic energy  EATOM  =       718.02812073
  Solvation  Ediel_sol  =         0.00000000
  ---------------------------------------------------
  free energy    TOTEN  =       -41.62273320 eV

  energy without entropy =      -41.62262693  energy(sigma->0) =      -41.62268007


--------------------------------------------------------------------------------------------------------




--------------------------------------- Iteration      1(   3)  ---------------------------------------


     EDDAV:  cpu time      5.3468: real time      5.3648
       DOS:  cpu time      0.0027: real time      0.0049
    --------------------------------------------
      LOOP:  cpu time      5.3495: real time      5.3697

 eigenvalue-minimisations  :  5760
 total energy-change (2. order) :-0.1408106E-01  (-0.1408106E-01)
 number of electron      28.0000000 magnetization       4.2000000
 augmentation part       28.0000000 magnetization       4.2000000

 Free energy of the ion-electron system (eV)
  ---------------------------------------------------
  alpha Z        PSCENC =        10.25815623
  Ewald energy   TEWEN  =      -749.89178961
  -Hartree energ DENC   =       -55.71548376
  -exchange      EXHF   =         0.00000000
  -V(xc)+E(xc)   XCENC  =       -62.36059601
  PAW double counting   =       612.14459606     -491.11706165
  entropy T*S    EENTRO =        -0.00010762
  eigenvalues    EBANDS =       -22.98264864
  atomic energy  EATOM  =       718.02812073
  Solvation  Ediel_sol  =         0.00000000
  ---------------------------------------------------
  free energy    TOTEN  =       -41.63681427 eV

  energy without entropy =      -41.63670665  energy(sigma->0) =      -41.63676046


--------------------------------------------------------------------------------------------------------




--------------------------------------- Iteration      1(   4)  ---------------------------------------


     EDDAV:  cpu time     25.4763: real time     25.4936
       DOS:  cpu time      0.0026: real time      0.0052
    --------------------------------------------
      LOOP:  cpu time     25.4789: real time     25.4988

 eigenvalue-minimisations  : 11520
 total energy-change (2. order) :-0.7133772E-05  (-0.7133631E-05)
 number of electron      28.0000000 magnetization       4.2000000
 augmentation part       28.0000000 magnetization       4.2000000

 Free energy of the ion-electron system (eV)
  ---------------------------------------------------
  alpha Z        PSCENC =        10.25815623
  Ewald energy   TEWEN  =      -749.89178961
  -Hartree energ DENC   =       -55.71548376
  -exchange      EXHF   =         0.00000000
  -V(xc)+E(xc)   XCENC  =       -62.36059601
  PAW double counting   =       612.14459606     -491.11706165
  entropy T*S    EENTRO =        -0.00010762
  eigenvalues    EBANDS =       -22.98265577
  atomic energy  EATOM  =       718.02812073
  Solvation  Ediel_sol  =         0.00000000
  ---------------------------------------------------
  free energy    TOTEN  =       -41.63682140 eV

  energy without entropy =      -41.63671378  energy(sigma->0) =      -41.63676759


--------------------------------------------------------------------------------------------------------




--------------------------------------- Iteration      1(   5)  ---------------------------------------


     EDDAV:  cpu time      5.7090: real time      5.7256
       DOS:  cpu time      0.0025: real time      0.0025
    CHARGE:  cpu time      0.0397: real time      0.0397
    MIXING:  cpu time      0.0020: real time      0.0022
    --------------------------------------------
      LOOP:  cpu time      5.7533: real time      5.7702

 eigenvalue-minimisations  :  5760
 total energy-change (2. order) : 0.1704166E-09  (-0.2572105E-11)
 number of electron      27.0000001 magnetization       0.5302984
 augmentation part       -1.6311761 magnetization       0.3396866

 Broyden mixing:
  rms(total) = 0.90648E+00    rms(broyden)= 0.90304E+00
  rms(prec ) = 0.13029E+01
  weight for this iteration     100.00

 Free energy of the ion-electron system (eV)
  ---------------------------------------------------
  alpha Z        PSCENC =        10.25815623
  Ewald energy   TEWEN  =      -749.89178961
  -Hartree energ DENC   =       -55.71548376
  -exchange      EXHF   =         0.00000000
  -V(xc)+E(xc)   XCENC  =       -62.36059601
  PAW double counting   =       612.14459606     -491.11706165
  entropy T*S    EENTRO =        -0.00010762
  eigenvalues    EBANDS =       -22.98265577
  atomic energy  EATOM  =       718.02812073
  Solvation  Ediel_sol  =         0.00000000
  ---------------------------------------------------
  free energy    TOTEN  =       -41.63682140 eV

  energy without entropy =      -41.63671378  energy(sigma->0) =      -41.63676759


--------------------------------------------------------------------------------------------------------




--------------------------------------- Iteration      1(   6)  ---------------------------------------


    POTLOK:  cpu time      0.0286: real time      0.0425
    SETDIJ:  cpu time      0.2001: real time      0.2001
    EDDIAG:  cpu time      0.8295: real time      0.8300
  RMM-DIIS:  cpu time      0.1798: real time      0.1804
    ORTHCH:  cpu time      0.1145: real time      0.1145
       DOS:  cpu time      0.0024: real time      0.0024
    CHARGE:  cpu time      0.0380: real time      0.0380
    MIXING:  cpu time      0.0006: real time      0.0006
    --------------------------------------------
      LOOP:  cpu time      1.3934: real time      1.4085

 eigenvalue-minimisations  :  5760
 total energy-change (2. order) : 0.1910759E-02  (-0.3450678E-02)
 number of electron      27.0000001 magnetization      -0.0473997
 augmentation part       -1.6344904 magnetization      -0.1872325

 Broyden mixing:
  rms(total) = 0.47110E+00    rms(broyden)= 0.47110E+00
  rms(prec ) = 0.65648E+00
  weight for this iteration     100.00

 eigenvalues of (default mixing * dielectric matrix)
  average eigenvalue GAMMA=   1.1982
  1.1982

 Free energy of the ion-electron system (eV)
  ---------------------------------------------------
  alpha Z        PSCENC =        10.25815623
  Ewald energy   TEWEN  =      -749.89178961
  -Hartree energ DENC   =       -60.20900307
  -exchange      EXHF   =         0.00000000
  -V(xc)+E(xc)   XCENC  =       -64.67538811
  PAW double counting   =      1170.69828244    -1049.84425646
  entropy T*S    EENTRO =        -0.00254898
  eigenvalues    EBANDS =       -15.99648382
  atomic energy  EATOM  =       718.02812073
  Solvation  Ediel_sol  =         0.00000000
  ---------------------------------------------------
  free energy    TOTEN  =       -41.63491064 eV

  energy without entropy =      -41.63236166  energy(sigma->0) =      -41.63363615


--------------------------------------------------------------------------------------------------------




--------------------------------------- Iteration      1(   7)  ---------------------------------------


    POTLOK:  cpu time      0.0250: real time      0.0413
    SETDIJ:  cpu time      0.1999: real time      0.2000
    EDDIAG:  cpu time      0.7903: real time      0.7903
  RMM-DIIS:  cpu time      0.1689: real time      0.1689
    ORTHCH:  cpu time      0.1119: real time      0.1119
       DOS:  cpu time      0.0026: real time      0.0026
    CHARGE:  cpu time      0.0373: real time      0.0373
    MIXING:  cpu time      0.0004: real time      0.0004
    --------------------------------------------
      LOOP:  cpu time      1.3364: real time      1.3527

 eigenvalue-minimisations  :  5760
 total energy-change (2. order) : 0.1543328E+00  (-0.2211157E-02)
 number of electron      27.0000001 magnetization       0.0037510
 augmentation part       -1.6292267 magnetization      -0.0626450

 Broyden mixing:
  rms(total) = 0.18268E+00    rms(broyden)= 0.18268E+00
  rms(prec ) = 0.22087E+00
  weight for this iteration     100.00

 eigenvalues of (default mixing * dielectric matrix)
  average eigenvalue GAMMA=   1.2812
  0.7543  1.8081

 Free energy of the ion-electron system (eV)
  ---------------------------------------------------
  alpha Z        PSCENC =        10.25815623
  Ewald energy   TEWEN  =      -749.89178961
  -Hartree energ DENC   =       -64.39014681
  -exchange      EXHF   =         0.00000000
  -V(xc)+E(xc)   XCENC  =       -64.10249588
  PAW double counting   =      1908.53424811    -1787.82910335
  entropy T*S    EENTRO =        -0.00487457
  eigenvalues    EBANDS =       -12.08269269
  atomic energy  EATOM  =       718.02812073
  Solvation  Ediel_sol  =         0.00000000
  ---------------------------------------------------
  free energy    TOTEN  =       -41.48057783 eV

  energy without entropy =      -41.47570326  energy(sigma->0) =      -41.47814054


--------------------------------------------------------------------------------------------------------




--------------------------------------- Iteration      1(   8)  ---------------------------------------


    POTLOK:  cpu time      0.0242: real time      0.0405
    SETDIJ:  cpu time      0.1998: real time      0.1999
    EDDIAG:  cpu time      0.7774: real time      0.7774
  RMM-DIIS:  cpu time      0.1706: real time      0.1706
    ORTHCH:  cpu time      0.1115: real time      0.1115
       DOS:  cpu time      0.0024: real time      0.0024
    CHARGE:  cpu time      0.0368: real time      0.0368
    MIXING:  cpu time      0.0004: real time      0.0004
    --------------------------------------------
      LOOP:  cpu time      1.3231: real time      1.3395

 eigenvalue-minimisations  :  5760
 total energy-change (2. order) : 0.1595236E-02  (-0.7399012E-03)
 number of electron      27.0000001 magnetization       0.0396725
 augmentation part       -1.6293424 magnetization       0.0035085

 Broyden mixing:
  rms(total) = 0.78461E-01    rms(broyden)= 0.78461E-01
  rms(prec ) = 0.95956E-01
  weight for this iteration     100.00

 eigenvalues of (default mixing * dielectric matrix)
  average eigenvalue GAMMA=   1.2961
  2.2707  0.9794  0.6381

 Free energy of the ion-electron system (eV)
  ---------------------------------------------------
  alpha Z        PSCENC =        10.25815623
  Ewald energy   TEWEN  =      -749.89178961
  -Hartree energ DENC   =       -65.16428374
  -exchange      EXHF   =         0.00000000
  -V(xc)+E(xc)   XCENC  =       -63.94638664
  PAW double counting   =      2158.49165574    -2037.82257185
  entropy T*S    EENTRO =        -0.00514480
  eigenvalues    EBANDS =       -11.42673865
  atomic energy  EATOM  =       718.02812073
  Solvation  Ediel_sol  =         0.00000000
  ---------------------------------------------------
  free energy    TOTEN  =       -41.47898259 eV

  energy without entropy =      -41.47383779  energy(sigma->0) =      -41.47641019


--------------------------------------------------------------------------------------------------------




--------------------------------------- Iteration      1(   9)  ---------------------------------------


    POTLOK:  cpu time      0.0225: real time      0.0411
    SETDIJ:  cpu time      0.2000: real time      0.2000
    EDDIAG:  cpu time      0.7751: real time      0.7752
  RMM-DIIS:  cpu time      0.1695: real time      0.1695
    ORTHCH:  cpu time      0.1115: real time      0.1115
       DOS:  cpu time      0.0023: real time      0.0023
    CHARGE:  cpu time      0.0367: real time      0.0367
    MIXING:  cpu time      0.0004: real time      0.0004
    --------------------------------------------
      LOOP:  cpu time      1.3180: real time      1.3366

 eigenvalue-minimisations  :  5760
 total energy-change (2. order) : 0.2616246E-02  (-0.8842963E-04)
 number of electron      27.0000001 magnetization       0.0207137
 augmentation part       -1.6300883 magnetization       0.0010764

 Broyden mixing:
  rms(total) = 0.19056E-01    rms(broyden)= 0.19056E-01
  rms(prec ) = 0.28015E-01
  weight for this iteration     100.00

 eigenvalues of (default mixing * dielectric matrix)
  average eigenvalue GAMMA=   1.2406
  2.2797  1.1015  0.9554  0.6256

 Free energy of the ion-electron system (eV)
  ---------------------------------------------------
  alpha Z        PSCENC =        10.25815623
  Ewald energy   TEWEN  =      -749.89178961
  -Hartree energ DENC   =       -65.32384816
  -exchange      EXHF   =         0.00000000
  -V(xc)+E(xc)   XCENC  =       -63.88207913
  PAW double counting   =      2257.63717817    -2136.97629359
  entropy T*S    EENTRO =        -0.00524338
  eigenvalues    EBANDS =       -11.32056761
  atomic energy  EATOM  =       718.02812073
  Solvation  Ediel_sol  =         0.00000000
  ---------------------------------------------------
  free energy    TOTEN  =       -41.47636635 eV

  energy without entropy =      -41.47112296  energy(sigma->0) =      -41.47374466


--------------------------------------------------------------------------------------------------------




--------------------------------------- Iteration      1(  10)  ---------------------------------------


    POTLOK:  cpu time      0.0206: real time      0.0388
    SETDIJ:  cpu time      0.2000: real time      0.2000
    EDDIAG:  cpu time      0.7685: real time      0.7685
  RMM-DIIS:  cpu time      0.1703: real time      0.1703
    ORTHCH:  cpu time      0.1142: real time      0.1142
       DOS:  cpu time      0.0025: real time      0.0025
    CHARGE:  cpu time      0.0364: real time      0.0364
    MIXING:  cpu time      0.0005: real time      0.0004
    --------------------------------------------
      LOOP:  cpu time      1.3129: real time      1.3312

 eigenvalue-minimisations  :  5760
 total energy-change (2. order) : 0.2291017E-04  (-0.2746401E-04)
 number of electron      27.0000001 magnetization       0.0116939
 augmentation part       -1.6307368 magnetization      -0.0033936

 Broyden mixing:
  rms(total) = 0.99803E-02    rms(broyden)= 0.99803E-02
  rms(prec ) = 0.13203E-01
  weight for this iteration     100.00

 eigenvalues of (default mixing * dielectric matrix)
  average eigenvalue GAMMA=   1.2259
  2.2205  1.3870  1.0444  0.8546  0.6231

 Free energy of the ion-electron system (eV)
  ---------------------------------------------------
  alpha Z        PSCENC =        10.25815623
  Ewald energy   TEWEN  =      -749.89178961
  -Hartree energ DENC   =       -65.32840094
  -exchange      EXHF   =         0.00000000
  -V(xc)+E(xc)   XCENC  =       -63.86201740
  PAW double counting   =      2274.86875800    -2154.20710769
  entropy T*S    EENTRO =        -0.00526450
  eigenvalues    EBANDS =       -11.33679826
  atomic energy  EATOM  =       718.02812073
  Solvation  Ediel_sol  =         0.00000000
  ---------------------------------------------------
  free energy    TOTEN  =       -41.47634344 eV

  energy without entropy =      -41.47107894  energy(sigma->0) =      -41.47371119


--------------------------------------------------------------------------------------------------------




--------------------------------------- Iteration      1(  11)  ---------------------------------------


    POTLOK:  cpu time      0.0187: real time      0.0382
    SETDIJ:  cpu time      0.2001: real time      0.2002
    EDDIAG:  cpu time      0.7651: real time      0.7651
  RMM-DIIS:  cpu time      0.1688: real time      0.1688
    ORTHCH:  cpu time      0.1106: real time      0.1106
       DOS:  cpu time      0.0025: real time      0.0025
    CHARGE:  cpu time      0.0366: real time      0.0366
    MIXING:  cpu time      0.0005: real time      0.0005
    --------------------------------------------
      LOOP:  cpu time      1.3029: real time      1.3225

 eigenvalue-minimisations  :  5760
 total energy-change (2. order) :-0.2178814E-04  (-0.1034597E-04)
 number of electron      27.0000001 magnetization       0.0047983
 augmentation part       -1.6310742 magnetization      -0.0033963

 Broyden mixing:
  rms(total) = 0.58681E-02    rms(broyden)= 0.58681E-02
  rms(prec ) = 0.69327E-02
  weight for this iteration     100.00

 eigenvalues of (default mixing * dielectric matrix)
  average eigenvalue GAMMA=   1.3782
  2.3828  2.3828  1.1899  0.9551  0.7330  0.6255

 Free energy of the ion-electron system (eV)
  ---------------------------------------------------
  alpha Z        PSCENC =        10.25815623
  Ewald energy   TEWEN  =      -749.89178961
  -Hartree energ DENC   =       -65.31889697
  -exchange      EXHF   =         0.00000000
  -V(xc)+E(xc)   XCENC  =       -63.85616116
  PAW double counting   =      2265.17340631    -2144.51029096
  entropy T*S    EENTRO =        -0.00528172
  eigenvalues    EBANDS =       -11.35362807
  atomic energy  EATOM  =       718.02812073
  Solvation  Ediel_sol  =         0.00000000
  ---------------------------------------------------
  free energy    TOTEN  =       -41.47636522 eV

  energy without entropy =      -41.47108350  energy(sigma->0) =      -41.47372436


--------------------------------------------------------------------------------------------------------




--------------------------------------- Iteration      1(  12)  ---------------------------------------


    POTLOK:  cpu time      0.0195: real time      0.0387
    SETDIJ:  cpu time      0.2001: real time      0.2001
    EDDIAG:  cpu time      0.7605: real time      0.7606
  RMM-DIIS:  cpu time      0.1691: real time      0.1691
    ORTHCH:  cpu time      0.1113: real time      0.1113
       DOS:  cpu time      0.0025: real time      0.0025
    CHARGE:  cpu time      0.0364: real time      0.0364
    MIXING:  cpu time      0.0005: real time      0.0005
    --------------------------------------------
      LOOP:  cpu time      1.3000: real time      1.3193

 eigenvalue-minimisations  :  5760
 total energy-change (2. order) :-0.2504944E-04  (-0.2125952E-05)
 number of electron      27.0000001 magnetization       0.0034590
 augmentation part       -1.6312532 magnetization      -0.0010771

 Broyden mixing:
  rms(total) = 0.22096E-02    rms(broyden)= 0.22096E-02
  rms(prec ) = 0.25408E-02
  weight for this iteration     100.00

 eigenvalues of (default mixing * dielectric matrix)
  average eigenvalue GAMMA=   1.3879
  2.5895  2.5895  1.3220  0.9547  0.9547  0.6308  0.6742

 Free energy of the ion-electron system (eV)
  ---------------------------------------------------
  alpha Z        PSCENC =        10.25815623
  Ewald energy   TEWEN  =      -749.89178961
  -Hartree energ DENC   =       -65.32053478
  -exchange      EXHF   =         0.00000000
  -V(xc)+E(xc)   XCENC  =       -63.85205458
  PAW double counting   =      2255.21583223    -2134.55203872
  entropy T*S    EENTRO =        -0.00528702
  eigenvalues    EBANDS =       -11.35679475
  atomic energy  EATOM  =       718.02812073
  Solvation  Ediel_sol  =         0.00000000
  ---------------------------------------------------
  free energy    TOTEN  =       -41.47639027 eV

  energy without entropy =      -41.47110325  energy(sigma->0) =      -41.47374676


--------------------------------------------------------------------------------------------------------




--------------------------------------- Iteration      1(  13)  ---------------------------------------


    POTLOK:  cpu time      0.0191: real time      0.0381
    SETDIJ:  cpu time      0.2001: real time      0.2001
    EDDIAG:  cpu time      0.7569: real time      0.7569
  RMM-DIIS:  cpu time      0.1675: real time      0.1675
    ORTHCH:  cpu time      0.1108: real time      0.1108
       DOS:  cpu time      0.0025: real time      0.0025
    --------------------------------------------
      LOOP:  cpu time      1.2569: real time      1.2760

 eigenvalue-minimisations  :  4986
 total energy-change (2. order) :-0.2480695E-05  (-0.2725103E-06)
 number of electron      27.0000001 magnetization       0.0034590
 augmentation part       -1.6312532 magnetization      -0.0010771

 Free energy of the ion-electron system (eV)
  ---------------------------------------------------
  alpha Z        PSCENC =        10.25815623
  Ewald energy   TEWEN  =      -749.89178961
  -Hartree energ DENC   =       -65.32966847
  -exchange      EXHF   =         0.00000000
  -V(xc)+E(xc)   XCENC  =       -63.85037320
  PAW double counting   =      2251.28780002    -2130.62420051
  entropy T*S    EENTRO =        -0.00528873
  eigenvalues    EBANDS =       -11.34914922
  atomic energy  EATOM  =       718.02812073
  Solvation  Ediel_sol  =         0.00000000
  ---------------------------------------------------
  free energy    TOTEN  =       -41.47639275 eV

  energy without entropy =      -41.47110403  energy(sigma->0) =      -41.47374839


--------------------------------------------------------------------------------------------------------




 average (electrostatic) potential at core
  the test charge radii are     0.9892
  (the norm of the test charge is              1.0000)
       1 -84.8876       2 -84.4266       3 -84.8876       4 -84.4266       5 -84.8876
       6 -84.4266       7 -84.8876
 
 
 
 E-fermi :   3.9470     XC(G=0):  -8.9500     alpha+bet :-10.4276

 Fermi energy:         3.9470351432

 spin component 1

 k-point     1 :       0.0000    0.0000    0.0000
  band No.  band energies     occupation 
      1      -6.8315      1.00000
      2      -3.1405      1.00000
      3      -3.1405      1.00000
      4      -2.8468      1.00000
      5      -2.8468      1.00000
      6      -2.8468      1.00000
      7       1.2143      1.00000
      8       1.7901      1.00000
      9       1.7901      1.00000
     10       1.7901      1.00000
     11       3.0043      1.00000
     12       3.0043      1.00000
     13       3.0043      1.00000
     14       5.6784      0.00000
     15       5.6784      0.00000
     16       5.6784      0.00000
     17       5.7055      0.00000
     18       5.7055      0.00000
     19       6.2167      0.00000
     20       6.2167      0.00000
     21       6.2167      0.00000
     22       6.4139      0.00000
     23       8.5976      0.00000
     24       8.5976      0.00000
     25       8.5976      0.00000
     26      10.1993      0.00000
     27      13.0507      0.00000
     28      13.0507      0.00000
     29      13.2899      0.00000
     30      14.6523      0.00000
     31      14.6523      0.00000
     32      14.6523      0.00000
     33      15.7313      0.00000
     34      15.7313      0.00000
     35      15.7313      0.00000
     36      15.8311      0.00000
     37      15.8311      0.00000
     38      15.8311      0.00000
     39      16.3849      0.00000
     40      16.3849      0.00000
     41      16.3849      0.00000
     42      17.1540      0.00000
     43      17.5103      0.00000
     44      17.5103      0.00000
     45      17.5361      0.00000
     46      17.5361      0.00000
     47      17.5361      0.00000
     48      18.2240      0.00000
     49      18.2240      0.00000
     50      18.2240      0.00000
     51      19.2412      0.00000
     52      19.2792      0.00000
     53      19.2792      0.00000
     54      20.4554      0.00000
     55      21.0134      0.00000
     56      21.0134      0.00000
     57      21.0134      0.00000
     58      23.7209      0.00000
     59      23.7927      0.00000
     60      23.7927      0.00000
     61      23.7927      0.00000
     62      24.5616      0.00000
     63      24.5616      0.00000
     64      24.5616      0.00000
     65      24.9755      0.00000
     66      24.9755      0.00000
     67      24.9755      0.00000
     68      25.1246      0.00000
     69      25.1246      0.00000
     70      25.1246      0.00000
     71      25.4173      0.00000
     72      25.4173      0.00000
     73      26.2480      0.00000
     74      26.2480      0.00000
     75      26.3483      0.00000
     76      26.3483      0.00000
     77      26.3483      0.00000
     78      27.2386      0.00000
     79      27.2386      0.00000
     80      27.2386      0.00000
     81      27.6247      0.00000
     82      28.5860      0.00000
     83      28.5860      0.00000
     84      28.5860      0.00000
     85      29.4505      0.00000
     86      29.4505      0.00000
     87      30.8602      0.00000
     88      31.7698      0.00000
     89      31.7698      0.00000
     90      31.7698      0.00000
     91      33.0096      0.00000
     92      33.0096      0.00000
     93      33.1829      0.00000
     94      33.1829      0.00000
     95      33.1829      0.00000
     96      33.9891      0.00000
     97      33.9891      0.00000
     98      33.9891      0.00000
     99      35.0995      0.00000
    100      35.0995      0.00000
    101      35.0995      0.00000
    102      37.6590      0.00000
    103      37.6590      0.00000
    104      37.6590      0.00000
    105      39.0402      0.00000
    106      39.0402      0.00000
    107      39.0402      0.00000
    108      39.1916      0.00000
    109      39.1916      0.00000
    110      39.1916      0.00000
    111      39.3568      0.00000
    112      39.3568      0.00000
    113      39.5001      0.00000
    114      40.3267      0.00000
    115      40.4856      0.00000
    116      40.4856      0.00000
    117      40.4856      0.00000
    118      40.9830      0.00000
    119      40.9830      0.00000
    120      40.9830      0.00000
    121      41.8943      0.00000
    122      41.8943      0.00000
    123      41.8943      0.00000
    124      42.3726      0.00000
    125      42.3728      0.00000
    126      42.6415      0.00000
    127      42.9652      0.00000
    128      43.0719      0.00000
    129      43.0719      0.00000
    130      43.3415      0.00000
    131      43.3415      0.00000
    132      43.3415      0.00000
    133      44.3943      0.00000
    134      44.3943      0.00000
    135      44.3943      0.00000
    136      44.9472      0.00000
    137      44.9491      0.00000
    138      45.2838      0.00000
    139      45.2838      0.00000
    140      45.2839      0.00000
    141      45.9466      0.00000
    142      45.9466      0.00000
    143      45.9467      0.00000
    144      46.3401      0.00000

 k-point     2 :       0.2500    0.0000    0.0000
  band No.  band energies     occupation 
      1      -6.5868      1.00000
      2      -4.5042      1.00000
      3      -3.0694      1.00000
      4      -2.7824      1.00000
      5      -2.7824      1.00000
      6      -1.4472      1.00000
      7       1.2935      1.00000
      8       1.5420      1.00000
      9       1.5581      1.00000
     10       1.5581      1.00000
     11       2.2630      1.00000
     12       2.8197      1.00000
     13       2.8197      1.00000
     14       4.8955      0.00000
     15       5.3090      0.00000
     16       5.3090      0.00000
     17       5.8171      0.00000
     18       6.5324      0.00000
     19       6.8970      0.00000
     20       7.1617      0.00000
     21       7.1617      0.00000
     22       7.6214      0.00000
     23       8.1725      0.00000
     24       9.6271      0.00000
     25       9.6271      0.00000
     26      10.8037      0.00000
     27      12.0445      0.00000
     28      12.5031      0.00000
     29      12.6006      0.00000
     30      12.6006      0.00000
     31      13.4068      0.00000
     32      13.7102      0.00000
     33      14.3650      0.00000
     34      14.3650      0.00000
     35      14.3917      0.00000
     36      15.2043      0.00000
     37      15.9883      0.00000
     38      16.0725      0.00000
     39      16.0725      0.00000
     40      16.8121      0.00000
     41      16.9252      0.00000
     42      16.9252      0.00000
     43      17.0776      0.00000
     44      17.6144      0.00000
     45      17.7693      0.00000
     46      18.4461      0.00000
     47      18.4461      0.00000
     48      19.0546      0.00000
     49      19.0546      0.00000
     50      19.5020      0.00000
     51      19.9921      0.00000
     52      20.0399      0.00000
     53      20.7329      0.00000
     54      21.2065      0.00000
     55      21.5564      0.00000
     56      21.5564      0.00000
     57      21.7107      0.00000
     58      22.2137      0.00000
     59      22.3405      0.00000
     60      22.3405      0.00000
     61      23.0412      0.00000
     62      23.3596      0.00000
     63      23.3596      0.00000
     64      23.5763      0.00000
     65      24.0093      0.00000
     66      24.4356      0.00000
     67      24.4356      0.00000
     68      24.6434      0.00000
     69      24.9531      0.00000
     70      25.9140      0.00000
     71      25.9140      0.00000
     72      26.4479      0.00000
     73      26.9181      0.00000
     74      27.0945      0.00000
     75      27.0945      0.00000
     76      27.6337      0.00000
     77      28.2221      0.00000
     78      28.3246      0.00000
     79      28.4524      0.00000
     80      28.6503      0.00000
     81      28.7370      0.00000
     82      28.7370      0.00000
     83      29.4222      0.00000
     84      29.5553      0.00000
     85      29.5553      0.00000
     86      30.0358      0.00000
     87      30.2443      0.00000
     88      30.8372      0.00000
     89      31.1802      0.00000
     90      31.1802      0.00000
     91      31.5023      0.00000
     92      32.9033      0.00000
     93      32.9033      0.00000
     94      32.9696      0.00000
     95      33.9904      0.00000
     96      34.7334      0.00000
     97      34.7334      0.00000
     98      34.8340      0.00000
     99      35.2968      0.00000
    100      36.2130      0.00000
    101      36.2130      0.00000
    102      36.4736      0.00000
    103      36.4736      0.00000
    104      36.8614      0.00000
    105      36.9882      0.00000
    106      37.0974      0.00000
    107      37.6636      0.00000
    108      37.6636      0.00000
    109      37.7097      0.00000
    110      38.3077      0.00000
    111      38.3077      0.00000
    112      38.4032      0.00000
    113      38.7951      0.00000
    114      39.8748      0.00000
    115      39.8748      0.00000
    116      40.0758      0.00000
    117      40.5802      0.00000
    118      40.6670      0.00000
    119      40.6670      0.00000
    120      40.8250      0.00000
    121      41.0803      0.00000
    122      41.4645      0.00000
    123      41.9501      0.00000
    124      42.1921      0.00000
    125      42.4850      0.00000
    126      42.4850      0.00000
    127      42.9753      0.00000
    128      43.4788      0.00000
    129      43.4788      0.00000
    130      43.5362      0.00000
    131      44.2438      0.00000
    132      44.2789      0.00000
    133      44.5849      0.00000
    134      44.8252      0.00000
    135      44.8252      0.00000
    136      45.0058      0.00000
    137      45.1831      0.00000
    138      45.1831      0.00000
    139      45.3290      0.00000
    140      45.4493      0.00000
    141      45.7511      0.00000
    142      45.7511      0.00000
    143      46.1018      0.00000
    144      46.1022      0.00000

 k-point     3 :       0.5000    0.0000    0.0000
  band No.  band energies     occupation 
      1      -6.0866      1.00000
      2      -5.4488      1.00000
      3      -2.9920      1.00000
      4      -2.7131      1.00000
      5      -2.7131      1.00000
      6      -0.5308      1.00000
      7       0.8966      1.00000
      8       1.0566      1.00000
      9       1.2744      1.00000
     10       1.2744      1.00000
     11       2.8576      1.00000
     12       2.8576      1.00000
     13       2.9171      1.00000
     14       3.5057      1.00000
     15       4.8133      0.00000
     16       4.8133      0.00000
     17       6.2667      0.00000
     18       6.5303      0.00000
     19       8.3316      0.00000
     20       8.8868      0.00000
     21       9.2956      0.00000
     22       9.3025      0.00000
     23       9.3025      0.00000
     24       9.6247      0.00000
     25       9.9517      0.00000
     26       9.9517      0.00000
     27      10.5984      0.00000
     28      10.7874      0.00000
     29      11.0569      0.00000
     30      11.0569      0.00000
     31      12.8885      0.00000
     32      12.8885      0.00000
     33      13.7333      0.00000
     34      13.7627      0.00000
     35      14.8808      0.00000
     36      15.0426      0.00000
     37      15.2243      0.00000
     38      16.0582      0.00000
     39      16.0582      0.00000
     40      16.3776      0.00000
     41      16.7103      0.00000
     42      17.6450      0.00000
     43      17.7373      0.00000
     44      17.7373      0.00000
     45      18.3050      0.00000
     46      18.5308      0.00000
     47      18.6215      0.00000
     48      18.6215      0.00000
     49      19.3419      0.00000
     50      19.4797      0.00000
     51      19.4797      0.00000
     52      20.4497      0.00000
     53      21.4623      0.00000
     54      21.4876      0.00000
     55      21.4876      0.00000
     56      21.7817      0.00000
     57      22.6820      0.00000
     58      22.6820      0.00000
     59      22.7533      0.00000
     60      22.7533      0.00000
     61      23.2088      0.00000
     62      23.2322      0.00000
     63      23.6208      0.00000
     64      23.6289      0.00000
     65      23.6289      0.00000
     66      24.0502      0.00000
     67      24.2739      0.00000
     68      24.3402      0.00000
     69      24.8736      0.00000
     70      25.8368      0.00000
     71      26.1558      0.00000
     72      26.1558      0.00000
     73      26.5627      0.00000
     74      26.7004      0.00000
     75      26.7004      0.00000
     76      26.9751      0.00000
     77      27.0503      0.00000
     78      27.7446      0.00000
     79      28.9085      0.00000
     80      29.6986      0.00000
     81      29.8608      0.00000
     82      29.8608      0.00000
     83      30.0841      0.00000
     84      31.4348      0.00000
     85      31.8594      0.00000
     86      31.8594      0.00000
     87      31.9747      0.00000
     88      32.1075      0.00000
     89      32.2648      0.00000
     90      32.4883      0.00000
     91      32.4883      0.00000
     92      32.5666      0.00000
     93      32.6458      0.00000
     94      32.6458      0.00000
     95      33.7228      0.00000
     96      34.0210      0.00000
     97      34.0210      0.00000
     98      34.1883      0.00000
     99      34.4359      0.00000
    100      34.6548      0.00000
    101      34.9070      0.00000
    102      34.9459      0.00000
    103      34.9459      0.00000
    104      35.3813      0.00000
    105      35.3813      0.00000
    106      35.9344      0.00000
    107      36.0108      0.00000
    108      36.0108      0.00000
    109      36.6481      0.00000
    110      37.9873      0.00000
    111      38.4997      0.00000
    112      38.7298      0.00000
    113      38.7298      0.00000
    114      39.9051      0.00000
    115      39.9971      0.00000
    116      40.2015      0.00000
    117      40.5052      0.00000
    118      40.5053      0.00000
    119      40.5277      0.00000
    120      41.5626      0.00000
    121      41.7642      0.00000
    122      41.7642      0.00000
    123      41.7846      0.00000
    124      42.0541      0.00000
    125      42.0541      0.00000
    126      42.5640      0.00000
    127      42.5700      0.00000
    128      42.5701      0.00000
    129      42.5913      0.00000
    130      42.8119      0.00000
    131      43.2919      0.00000
    132      43.2919      0.00000
    133      44.5875      0.00000
    134      44.9015      0.00000
    135      44.9017      0.00000
    136      44.9862      0.00000
    137      45.3158      0.00000
    138      45.5045      0.00000
    139      45.5083      0.00000
    140      45.5087      0.00000
    141      45.6463      0.00000
    142      46.0352      0.00000
    143      46.5962      0.00000
    144      46.7136      0.00000

 k-point     4 :       0.2500    0.2500    0.0000
  band No.  band energies     occupation 
      1      -6.3466      1.00000
      2      -4.5642      1.00000
      3      -4.0852      1.00000
      4      -2.8764      1.00000
      5      -1.9268      1.00000
      6      -1.0747      1.00000
      7       0.6164      1.00000
      8       1.3657      1.00000
      9       1.5612      1.00000
     10       1.9517      1.00000
     11       1.9641      1.00000
     12       2.8819      1.00000
     13       3.0244      1.00000
     14       3.9465      0.50575
     15       4.7428      0.00000
     16       5.7705      0.00000
     17       6.3384      0.00000
     18       6.9030      0.00000
     19       7.3186      0.00000
     20       7.5980      0.00000
     21       7.7291      0.00000
     22       9.1037      0.00000
     23       9.1751      0.00000
     24       9.3812      0.00000
     25       9.5020      0.00000
     26      10.4433      0.00000
     27      11.5740      0.00000
     28      11.6437      0.00000
     29      12.0374      0.00000
     30      12.5065      0.00000
     31      12.7479      0.00000
     32      13.3107      0.00000
     33      13.4069      0.00000
     34      14.0408      0.00000
     35      14.1960      0.00000
     36      14.8838      0.00000
     37      15.1008      0.00000
     38      15.6782      0.00000
     39      15.9031      0.00000
     40      16.1681      0.00000
     41      16.4366      0.00000
     42      16.8003      0.00000
     43      17.6155      0.00000
     44      18.2557      0.00000
     45      18.6808      0.00000
     46      18.6946      0.00000
     47      19.0685      0.00000
     48      19.3535      0.00000
     49      19.6317      0.00000
     50      19.6776      0.00000
     51      19.8308      0.00000
     52      20.0009      0.00000
     53      20.4767      0.00000
     54      20.7835      0.00000
     55      21.2436      0.00000
     56      21.3807      0.00000
     57      21.4953      0.00000
     58      22.3781      0.00000
     59      22.4406      0.00000
     60      22.7828      0.00000
     61      23.0482      0.00000
     62      23.1878      0.00000
     63      23.3436      0.00000
     64      23.9266      0.00000
     65      24.5486      0.00000
     66      24.7798      0.00000
     67      25.0198      0.00000
     68      25.1886      0.00000
     69      26.0717      0.00000
     70      26.1841      0.00000
     71      26.3273      0.00000
     72      26.4668      0.00000
     73      26.5556      0.00000
     74      27.0735      0.00000
     75      27.1575      0.00000
     76      27.3112      0.00000
     77      27.4721      0.00000
     78      27.8802      0.00000
     79      28.4290      0.00000
     80      28.6816      0.00000
     81      28.7500      0.00000
     82      29.1391      0.00000
     83      29.3572      0.00000
     84      30.0301      0.00000
     85      30.3352      0.00000
     86      30.6109      0.00000
     87      31.0029      0.00000
     88      31.1486      0.00000
     89      32.0423      0.00000
     90      32.2895      0.00000
     91      32.6527      0.00000
     92      32.8668      0.00000
     93      33.1172      0.00000
     94      33.4374      0.00000
     95      33.4868      0.00000
     96      33.6957      0.00000
     97      34.3601      0.00000
     98      34.6691      0.00000
     99      34.7896      0.00000
    100      35.1771      0.00000
    101      35.6347      0.00000
    102      35.6841      0.00000
    103      36.2126      0.00000
    104      36.4037      0.00000
    105      37.0753      0.00000
    106      37.2002      0.00000
    107      37.4338      0.00000
    108      37.7298      0.00000
    109      37.8491      0.00000
    110      37.8927      0.00000
    111      38.0449      0.00000
    112      38.4470      0.00000
    113      38.6210      0.00000
    114      38.8600      0.00000
    115      39.0119      0.00000
    116      39.3316      0.00000
    117      39.5744      0.00000
    118      39.6738      0.00000
    119      40.1797      0.00000
    120      40.2568      0.00000
    121      40.5600      0.00000
    122      41.0314      0.00000
    123      41.5618      0.00000
    124      42.0930      0.00000
    125      42.1874      0.00000
    126      42.3700      0.00000
    127      42.5552      0.00000
    128      43.1149      0.00000
    129      43.1920      0.00000
    130      43.4267      0.00000
    131      43.5378      0.00000
    132      43.5822      0.00000
    133      44.2711      0.00000
    134      44.4212      0.00000
    135      44.7321      0.00000
    136      44.8874      0.00000
    137      44.9544      0.00000
    138      45.0461      0.00000
    139      45.4193      0.00000
    140      45.8789      0.00000
    141      45.9071      0.00000
    142      46.2057      0.00000
    143      46.4166      0.00000
    144      46.6407      0.00000

 k-point     5 :       0.5000    0.2500    0.0000
  band No.  band energies     occupation 
      1      -5.8450      1.00000
      2      -5.3031      1.00000
      3      -4.0872      1.00000
      4      -3.0298      1.00000
      5      -1.6563      1.00000
      6      -0.6099      1.00000
      7       0.4773      1.00000
      8       0.7139      1.00000
      9       1.5036      1.00000
     10       1.8893      1.00000
     11       2.5103      1.00000
     12       2.6736      1.00000
     13       3.0410      1.00000
     14       3.4316      1.00000
     15       4.9276      0.00000
     16       4.9376      0.00000
     17       7.4899      0.00000
     18       7.7133      0.00000
     19       7.8900      0.00000
     20       7.9912      0.00000
     21       9.1094      0.00000
     22       9.4636      0.00000
     23       9.4854      0.00000
     24       9.8459      0.00000
     25       9.9261      0.00000
     26       9.9923      0.00000
     27      10.4136      0.00000
     28      10.7121      0.00000
     29      11.4792      0.00000
     30      12.0794      0.00000
     31      12.4524      0.00000
     32      12.5629      0.00000
     33      12.9570      0.00000
     34      13.0851      0.00000
     35      13.7097      0.00000
     36      14.2395      0.00000
     37      15.0703      0.00000
     38      15.3871      0.00000
     39      16.0644      0.00000
     40      16.3539      0.00000
     41      16.8788      0.00000
     42      16.9810      0.00000
     43      17.1906      0.00000
     44      17.7302      0.00000
     45      18.8307      0.00000
     46      19.0653      0.00000
     47      19.1812      0.00000
     48      19.3917      0.00000
     49      19.7543      0.00000
     50      19.7899      0.00000
     51      19.8953      0.00000
     52      20.3011      0.00000
     53      20.3797      0.00000
     54      20.4693      0.00000
     55      21.1346      0.00000
     56      21.4418      0.00000
     57      22.0337      0.00000
     58      22.0676      0.00000
     59      22.2858      0.00000
     60      23.0515      0.00000
     61      23.2618      0.00000
     62      23.8285      0.00000
     63      23.9355      0.00000
     64      24.0335      0.00000
     65      24.5816      0.00000
     66      24.5986      0.00000
     67      25.4050      0.00000
     68      25.5153      0.00000
     69      25.6385      0.00000
     70      26.0509      0.00000
     71      26.2776      0.00000
     72      26.6027      0.00000
     73      27.0843      0.00000
     74      27.2925      0.00000
     75      27.4818      0.00000
     76      27.4858      0.00000
     77      27.9189      0.00000
     78      28.4123      0.00000
     79      28.6179      0.00000
     80      29.0841      0.00000
     81      29.2020      0.00000
     82      29.6789      0.00000
     83      29.7269      0.00000
     84      30.1487      0.00000
     85      30.8842      0.00000
     86      30.9558      0.00000
     87      31.5273      0.00000
     88      31.8996      0.00000
     89      32.1992      0.00000
     90      32.2436      0.00000
     91      32.5385      0.00000
     92      32.8266      0.00000
     93      32.8577      0.00000
     94      33.4545      0.00000
     95      33.4574      0.00000
     96      33.8670      0.00000
     97      33.9783      0.00000
     98      34.3040      0.00000
     99      34.6478      0.00000
    100      34.8008      0.00000
    101      35.1495      0.00000
    102      35.1567      0.00000
    103      35.6997      0.00000
    104      36.2856      0.00000
    105      36.3133      0.00000
    106      36.3238      0.00000
    107      36.5594      0.00000
    108      37.0637      0.00000
    109      37.3097      0.00000
    110      37.4084      0.00000
    111      37.4893      0.00000
    112      38.2257      0.00000
    113      38.2507      0.00000
    114      38.4273      0.00000
    115      38.8304      0.00000
    116      39.1066      0.00000
    117      39.3542      0.00000
    118      39.5740      0.00000
    119      40.3444      0.00000
    120      40.5238      0.00000
    121      40.7342      0.00000
    122      40.8913      0.00000
    123      41.3272      0.00000
    124      41.6010      0.00000
    125      41.9182      0.00000
    126      42.1097      0.00000
    127      42.2586      0.00000
    128      42.5542      0.00000
    129      42.7796      0.00000
    130      43.0678      0.00000
    131      43.3060      0.00000
    132      43.7303      0.00000
    133      43.9615      0.00000
    134      44.2136      0.00000
    135      44.3712      0.00000
    136      44.8187      0.00000
    137      45.0985      0.00000
    138      45.3482      0.00000
    139      45.4639      0.00000
    140      45.5335      0.00000
    141      45.8948      0.00000
    142      46.0534      0.00000
    143      46.3143      0.00000
    144      46.7888      0.00000

 k-point     6 :       0.5000    0.5000    0.0000
  band No.  band energies     occupation 
      1      -5.1777      1.00000
      2      -5.1138      1.00000
      3      -5.1138      1.00000
      4      -3.3947      1.00000
      5      -0.5605      1.00000
      6      -0.5605      1.00000
      7      -0.4591      1.00000
      8       0.8445      1.00000
      9       1.3311      1.00000
     10       1.3311      1.00000
     11       2.6259      1.00000
     12       3.0140      1.00000
     13       3.3678      1.00000
     14       3.3775      1.00000
     15       5.3958      0.00000
     16       5.3958      0.00000
     17       7.1521      0.00000
     18       7.1521      0.00000
     19       8.5190      0.00000
     20       8.5426      0.00000
     21       9.4582      0.00000
     22       9.6081      0.00000
     23       9.9204      0.00000
     24       9.9204      0.00000
     25      10.1145      0.00000
     26      10.3235      0.00000
     27      10.3235      0.00000
     28      10.7044      0.00000
     29      11.1614      0.00000
     30      11.9003      0.00000
     31      11.9003      0.00000
     32      12.5960      0.00000
     33      12.7268      0.00000
     34      12.7268      0.00000
     35      12.7918      0.00000
     36      13.0426      0.00000
     37      14.6305      0.00000
     38      15.5435      0.00000
     39      15.5435      0.00000
     40      15.7331      0.00000
     41      17.5741      0.00000
     42      17.6918      0.00000
     43      17.6918      0.00000
     44      18.2828      0.00000
     45      18.3607      0.00000
     46      18.3607      0.00000
     47      18.5938      0.00000
     48      18.9467      0.00000
     49      19.1341      0.00000
     50      19.1341      0.00000
     51      19.1843      0.00000
     52      20.6245      0.00000
     53      21.4713      0.00000
     54      21.8347      0.00000
     55      21.8347      0.00000
     56      21.8941      0.00000
     57      21.9627      0.00000
     58      21.9627      0.00000
     59      22.0013      0.00000
     60      22.5306      0.00000
     61      23.1913      0.00000
     62      23.4017      0.00000
     63      23.6494      0.00000
     64      23.6494      0.00000
     65      24.4659      0.00000
     66      25.2970      0.00000
     67      26.4013      0.00000
     68      26.4013      0.00000
     69      26.5901      0.00000
     70      26.5901      0.00000
     71      26.8995      0.00000
     72      26.9729      0.00000
     73      26.9729      0.00000
     74      27.5007      0.00000
     75      27.6169      0.00000
     76      27.8279      0.00000
     77      29.0008      0.00000
     78      29.0563      0.00000
     79      29.0563      0.00000
     80      29.6972      0.00000
     81      29.8092      0.00000
     82      29.9336      0.00000
     83      29.9336      0.00000
     84      31.1839      0.00000
     85      31.2471      0.00000
     86      31.2796      0.00000
     87      31.3948      0.00000
     88      31.3948      0.00000
     89      31.4809      0.00000
     90      31.8071      0.00000
     91      32.1311      0.00000
     92      32.1311      0.00000
     93      32.7998      0.00000
     94      32.7998      0.00000
     95      32.9091      0.00000
     96      32.9377      0.00000
     97      32.9377      0.00000
     98      33.4528      0.00000
     99      33.9210      0.00000
    100      34.1835      0.00000
    101      34.2378      0.00000
    102      34.6410      0.00000
    103      35.5443      0.00000
    104      35.6728      0.00000
    105      35.6728      0.00000
    106      36.3222      0.00000
    107      36.7062      0.00000
    108      36.7062      0.00000
    109      37.2544      0.00000
    110      37.2544      0.00000
    111      37.7491      0.00000
    112      38.5009      0.00000
    113      39.1240      0.00000
    114      39.1240      0.00000
    115      39.2104      0.00000
    116      39.9779      0.00000
    117      40.5065      0.00000
    118      40.8502      0.00000
    119      40.9442      0.00000
    120      40.9442      0.00000
    121      41.0283      0.00000
    122      41.5282      0.00000
    123      41.8786      0.00000
    124      41.9979      0.00000
    125      41.9979      0.00000
    126      42.3780      0.00000
    127      42.6290      0.00000
    128      42.7748      0.00000
    129      42.9043      0.00000
    130      42.9043      0.00000
    131      42.9320      0.00000
    132      42.9320      0.00000
    133      43.0808      0.00000
    134      43.1699      0.00000
    135      43.1699      0.00000
[...]
     48      18.7840      0.00000
     49      19.0357      0.00000
     50      19.2248      0.00000
     51      19.2248      0.00000
     52      19.5922      0.00000
     53      20.5431      0.00000
     54      21.7455      0.00000
     55      21.7455      0.00000
     56      22.0790      0.00000
     57      22.4259      0.00000
     58      22.7179      0.00000
     59      22.7179      0.00000
     60      22.7500      0.00000
     61      23.9687      0.00000
     62      23.9994      0.00000
     63      23.9994      0.00000
     64      25.3008      0.00000
     65      25.7086      0.00000
     66      25.7817      0.00000
     67      25.9975      0.00000
     68      25.9975      0.00000
     69      26.9408      0.00000
     70      26.9408      0.00000
     71      27.2048      0.00000
     72      27.2222      0.00000
     73      27.5861      0.00000
     74      27.7453      0.00000
     75      27.7453      0.00000
     76      28.6587      0.00000
     77      28.9383      0.00000
     78      28.9383      0.00000
     79      29.2204      0.00000
     80      29.2588      0.00000
     81      29.8315      0.00000
     82      30.4086      0.00000
     83      30.4086      0.00000
     84      30.5650      0.00000
     85      30.8263      0.00000
     86      30.8263      0.00000
     87      30.9098      0.00000
     88      31.3506      0.00000
     89      32.2539      0.00000
     90      32.2539      0.00000
     91      32.3504      0.00000
     92      32.4090      0.00000
     93      33.1323      0.00000
     94      33.3671      0.00000
     95      33.3671      0.00000
     96      33.4754      0.00000
     97      33.8422      0.00000
     98      33.8422      0.00000
     99      33.8630      0.00000
    100      34.3038      0.00000
    101      34.8575      0.00000
    102      35.3964      0.00000
    103      35.3964      0.00000
    104      35.4988      0.00000
    105      36.1577      0.00000
    106      36.3039      0.00000
    107      36.3039      0.00000
    108      36.4630      0.00000
    109      37.0675      0.00000
    110      37.5217      0.00000
    111      37.5217      0.00000
    112      37.6245      0.00000
    113      37.7215      0.00000
    114      38.5935      0.00000
    115      38.5935      0.00000
    116      38.6674      0.00000
    117      39.3600      0.00000
    118      39.3830      0.00000
    119      39.3830      0.00000
    120      39.4012      0.00000
    121      39.8631      0.00000
    122      39.8631      0.00000
    123      40.1417      0.00000
    124      40.8856      0.00000
    125      41.0475      0.00000
    126      41.6085      0.00000
    127      41.6085      0.00000
    128      41.7737      0.00000
    129      42.2650      0.00000
    130      42.8937      0.00000
    131      43.3094      0.00000
    132      43.3629      0.00000
    133      43.3629      0.00000
    134      43.6322      0.00000
    135      44.2986      0.00000
    136      44.2986      0.00000
    137      44.5629      0.00000
    138      45.3485      0.00000
    139      45.3485      0.00000
    140      45.5888      0.00000
    141      45.7515      0.00000
    142      45.7732      0.00000
    143      45.7732      0.00000
    144      46.3610      0.00000

 k-point    10 :       0.5000    0.5000    0.5000
  band No.  band energies     occupation 
      1      -5.0824      1.00000
      2      -5.0824      1.00000
      3      -5.0824      1.00000
      4      -3.7077      1.00000
      5      -1.8543      1.00000
      6      -1.8543      1.00000
      7      -1.8543      1.00000
      8       1.0139      1.00000
      9       3.1234      1.00000
     10       3.1234      1.00000
     11       3.3188      1.00000
     12       3.3188      1.00000
     13       3.3188      1.00000
     14       5.9713      0.00000
     15       5.9713      0.00000
     16       5.9713      0.00000
     17       6.2807      0.00000
     18       6.2807      0.00000
     19       6.2807      0.00000
     20       7.8463      0.00000
     21       7.8463      0.00000
     22       7.8463      0.00000
     23       9.0786      0.00000
     24       9.0786      0.00000
     25       9.9612      0.00000
     26       9.9612      0.00000
     27       9.9612      0.00000
     28      10.0745      0.00000
     29      12.4029      0.00000
     30      13.1376      0.00000
     31      13.1376      0.00000
     32      13.1376      0.00000
     33      15.1056      0.00000
     34      15.1056      0.00000
     35      15.1056      0.00000
     36      15.2752      0.00000
     37      15.2752      0.00000
     38      15.6539      0.00000
     39      15.6539      0.00000
     40      15.6539      0.00000
     41      16.4133      0.00000
     42      16.6419      0.00000
     43      16.6419      0.00000
     44      16.6419      0.00000
     45      16.6696      0.00000
     46      16.6696      0.00000
     47      16.6696      0.00000
     48      17.7661      0.00000
     49      17.7661      0.00000
     50      17.7661      0.00000
     51      18.2796      0.00000
     52      18.2796      0.00000
     53      19.5397      0.00000
     54      21.1446      0.00000
     55      21.1446      0.00000
     56      21.1446      0.00000
     57      24.5810      0.00000
     58      25.0955      0.00000
     59      25.0955      0.00000
     60      25.0955      0.00000
     61      25.4043      0.00000
     62      25.4043      0.00000
     63      25.4043      0.00000
     64      25.8867      0.00000
     65      26.1110      0.00000
     66      26.1110      0.00000
     67      26.2878      0.00000
     68      26.2878      0.00000
     69      26.2878      0.00000
     70      26.6744      0.00000
     71      26.6744      0.00000
     72      26.6744      0.00000
     73      26.8536      0.00000
     74      26.8536      0.00000
     75      26.8536      0.00000
     76      28.3476      0.00000
     77      28.3476      0.00000
     78      28.3476      0.00000
     79      30.1389      0.00000
     80      30.1389      0.00000
     81      30.2943      0.00000
     82      30.6550      0.00000
     83      30.6550      0.00000
     84      30.6550      0.00000
     85      31.5856      0.00000
     86      31.5856      0.00000
     87      31.5856      0.00000
     88      31.7431      0.00000
     89      31.7431      0.00000
     90      32.2336      0.00000
     91      32.2336      0.00000
     92      32.2336      0.00000
     93      32.7027      0.00000
     94      32.7027      0.00000
     95      32.7027      0.00000
     96      33.1746      0.00000
     97      33.1746      0.00000
     98      33.1746      0.00000
     99      33.9226      0.00000
    100      33.9226      0.00000
    101      34.1852      0.00000
    102      35.3578      0.00000
    103      36.7001      0.00000
    104      36.7001      0.00000
    105      36.7001      0.00000
    106      37.0403      0.00000
    107      37.0403      0.00000
    108      37.0403      0.00000
    109      37.1566      0.00000
    110      37.1566      0.00000
    111      37.1566      0.00000
    112      37.5983      0.00000
    113      37.5983      0.00000
    114      38.0420      0.00000
    115      38.0420      0.00000
    116      38.0420      0.00000
    117      38.2430      0.00000
    118      38.2430      0.00000
    119      38.2430      0.00000
    120      38.7092      0.00000
    121      39.4770      0.00000
    122      39.4770      0.00000
    123      39.4770      0.00000
    124      41.3376      0.00000
    125      41.3376      0.00000
    126      41.3822      0.00000
    127      41.7703      0.00000
    128      41.7703      0.00000
    129      41.7703      0.00000
    130      41.8558      0.00000
    131      41.9835      0.00000
    132      41.9835      0.00000
    133      41.9835      0.00000
    134      42.5288      0.00000
    135      42.5288      0.00000
    136      42.5288      0.00000
    137      45.3885      0.00000
    138      45.3885      0.00000
    139      45.9884      0.00000
    140      45.9884      0.00000
    141      45.9884      0.00000
    142      47.5782      0.00000
    143      47.5785      0.00000
    144      47.5787      0.00000


--------------------------------------------------------------------------------------------------------


 soft charge-density along one line, spin component           1
         0         1         2         3         4         5         6         7         8         9
 total charge-density along one line
 
 soft charge-density along one line, spin component           2
         0         1         2         3         4         5         6         7         8         9
 total charge-density along one line
 
 pseudopotential strength for first ion, spin component:           1
 18.588  25.933  -0.003   0.003   0.003  -0.006   0.006   0.006
 25.933  36.186  -0.005   0.005   0.005  -0.009   0.009   0.009
 -0.003  -0.005   4.196  -0.002  -0.002   7.819  -0.003  -0.003
  0.003   0.005  -0.002   4.196   0.002  -0.003   7.819   0.003
  0.003   0.005  -0.002   0.002   4.196  -0.003   0.003   7.819
 -0.006  -0.009   7.819  -0.003  -0.003  14.581  -0.006  -0.006
  0.006   0.009  -0.003   7.819   0.003  -0.006  14.581   0.006
  0.006   0.009  -0.003   0.003   7.819  -0.006   0.006  14.581
 pseudopotential strength for first ion, spin component:           2
 18.588  25.933  -0.003   0.003   0.003  -0.006   0.006   0.006
 25.933  36.186  -0.005   0.005   0.005  -0.009   0.009   0.009
 -0.003  -0.005   4.196  -0.002  -0.002   7.819  -0.003  -0.003
  0.003   0.005  -0.002   4.196   0.002  -0.003   7.819   0.003
  0.003   0.005  -0.002   0.002   4.196  -0.003   0.003   7.819
 -0.006  -0.009   7.819  -0.003  -0.003  14.581  -0.006  -0.006
  0.006   0.009  -0.003   7.819   0.003  -0.006  14.581   0.006
  0.006   0.009  -0.003   0.003   7.819  -0.006   0.006  14.581
 total augmentation occupancy for first ion, spin component:           1
  4.813  -1.669   0.479  -0.479  -0.479  -0.156   0.156   0.156
 -1.669   0.755  -0.292   0.292   0.292   0.075  -0.075  -0.075
  0.479  -0.292   2.254   0.472   0.472  -0.470  -0.116  -0.116
 -0.479   0.292   0.472   2.254  -0.472  -0.116  -0.470   0.116
 -0.479   0.292   0.472  -0.472   2.254  -0.116   0.116  -0.470
 -0.156   0.075  -0.470  -0.116  -0.116   0.106   0.028   0.028
  0.156  -0.075  -0.116  -0.470   0.116   0.028   0.106  -0.028
  0.156  -0.075  -0.116   0.116  -0.470   0.028  -0.028   0.106
 total augmentation occupancy for first ion, spin component:           2
  0.000  -0.000  -0.000   0.000   0.000   0.000  -0.000  -0.000
 -0.000   0.000   0.000  -0.000  -0.000  -0.000   0.000   0.000
 -0.000   0.000   0.000  -0.000  -0.000  -0.000   0.000   0.000
  0.000  -0.000  -0.000   0.000   0.000   0.000  -0.000  -0.000
  0.000  -0.000  -0.000   0.000   0.000   0.000  -0.000  -0.000
  0.000  -0.000  -0.000   0.000   0.000   0.000   0.000   0.000
 -0.000   0.000   0.000  -0.000  -0.000   0.000   0.000  -0.000
 -0.000   0.000   0.000  -0.000  -0.000   0.000  -0.000   0.000


------------------------ aborting loop because EDIFF is reached ----------------------------------------





 total charge

# of ion       s       p       d       tot
------------------------------------------
    1        0.801   0.786   0.000   1.587
    2        0.752   0.904   0.000   1.656
    3        0.801   0.786   0.000   1.587
    4        0.752   0.904   0.000   1.656
    5        0.801   0.786   0.000   1.587
    6        0.752   0.904   0.000   1.656
    7        0.801   0.786   0.000   1.587
--------------------------------------------------
tot          5.462   5.854   0.000  11.316



 magnetization (x)

# of ion       s       p       d       tot
------------------------------------------
    1        0.000   0.000   0.000   0.000
    2        0.000  -0.000   0.000  -0.000
    3        0.000   0.000   0.000   0.000
    4        0.000  -0.000   0.000  -0.000
    5        0.000   0.000   0.000   0.000
    6        0.000  -0.000   0.000  -0.000
    7        0.000   0.000   0.000   0.000
--------------------------------------------------
tot          0.000   0.000   0.000   0.000
 
    CHARGE:  cpu time      0.0384: real time      0.0385
    FORLOC:  cpu time      0.0002: real time      0.0002
    FORNL :  cpu time      0.0346: real time      0.0346
    STRESS:  cpu time      0.2405: real time      0.2406
    FORCOR:  cpu time      0.0132: real time      0.0132
    FORHAR:  cpu time      0.0014: real time      0.0014
    MIXING:  cpu time      0.0004: real time      0.0004
    OFIELD:  cpu time      0.0000: real time      0.0000

  FORCE on cell =-STRESS in cart. coord.  units (eV):
  Direction    XX          YY          ZZ          XY          YZ          ZX
  --------------------------------------------------------------------------------------
  Alpha Z    10.25816    10.25816    10.25816
  Ewald    -245.80104  -245.80104  -245.80104     0.00000    -0.00000    -0.00000
  Hartree    25.03021    25.03021    25.03021    -0.00000    -0.00000    -0.00000
  E(xc)     -84.33433   -84.33433   -84.33433    -0.00000     0.00000     0.00000
  Local    -125.14765  -125.14765  -125.14765    -0.00000    -0.00000     0.00000
  n-local   267.59787   268.45983   266.43326    -0.34249    -0.82033    -0.13249
  augment   -41.08005   -41.08005   -41.08005    -0.00000    -0.00000     0.00000
  Kinetic   175.73076   183.52609   189.45566     0.28159     0.20984     0.38819
  Fock        0.00000     0.00000     0.00000     0.00000     0.00000     0.00000
  -------------------------------------------------------------------------------------
  Total     -10.67354   -10.67354   -10.67354    -0.00000    -0.00000     0.00000
  in kB    -106.35009  -106.35009  -106.35009    -0.00000    -0.00000     0.00000
  external pressure =     -106.35 kB  Pullay stress =        0.00 kB


 VOLUME and BASIS-vectors are now :
 -----------------------------------------------------------------------------
  energy-cutoff  :      500.00
  volume of cell :      160.80
      direct lattice vectors                 reciprocal lattice vectors
     5.437848350  0.000000000  0.000000000     0.183896265  0.000000000  0.000000000
     0.000000000  5.437848350  0.000000000     0.000000000  0.183896265  0.000000000
     0.000000000  0.000000000  5.437848350     0.000000000  0.000000000  0.183896265

  length of vectors
     5.437848350  5.437848350  5.437848350     0.183896265  0.183896265  0.183896265


 FORCES acting on ions
    electron-ion (+dipol)            ewald-force                    non-local-force                 convergence-correction
 -----------------------------------------------------------------------------------------------
   -.213E+02 0.213E+02 -.213E+02   0.195E+02 -.195E+02 0.195E+02   0.173E+01 -.173E+01 0.173E+01   -.520E-03 0.520E-03 -.520E-03
   -.634E-13 -.515E-14 0.704E-14   0.000E+00 -.107E-13 0.355E-14   -.257E-16 -.213E-16 0.756E-17   0.244E-14 -.557E-14 -.106E-14
   -.213E+02 -.213E+02 0.213E+02   0.195E+02 0.195E+02 -.195E+02   0.173E+01 0.173E+01 -.173E+01   -.520E-03 -.520E-03 0.520E-03
   -.183E-13 0.396E-14 -.326E-14   -.355E-14 -.355E-14 -.355E-14   -.137E-16 -.189E-16 -.294E-16   0.484E-14 -.103E-13 -.310E-14
   0.213E+02 0.213E+02 0.213E+02   -.195E+02 -.195E+02 -.195E+02   -.173E+01 -.173E+01 -.173E+01   0.520E-03 0.520E-03 0.520E-03
   0.143E-12 -.225E-14 -.144E-12   -.711E-14 0.355E-14 0.355E-14   -.337E-17 -.101E-16 -.348E-17   -.959E-14 0.108E-13 0.260E-15
   0.213E+02 -.213E+02 -.213E+02   -.195E+02 0.195E+02 0.195E+02   -.173E+01 0.173E+01 0.173E+01   0.520E-03 -.520E-03 -.520E-03
 -----------------------------------------------------------------------------------------------
   -.967E-09 -.966E-09 0.139E-08   -.711E-14 0.000E+00 0.000E+00   0.000E+00 0.222E-15 0.222E-15   -.957E-14 -.123E-13 -.118E-13
 
 
 POSITION                                       TOTAL-FORCE (eV/Angst)
 -----------------------------------------------------------------------------------
      1.32691      4.11094      1.32691         0.005986     -0.005986      0.005986
      0.00000      0.00000      2.71892        -0.000000      0.000000     -0.000000
      1.32691      1.32691      4.11094         0.005986      0.005986     -0.005986
      0.00000      2.71892     -0.00000        -0.000000      0.000000     -0.000000
      4.11094      4.11094      4.11094        -0.005986     -0.005986     -0.005986
      2.71892      0.00000     -0.00000        -0.000000      0.000000     -0.000000
      4.11094      1.32691      1.32691        -0.005986      0.005986      0.005986
 -----------------------------------------------------------------------------------
    total drift:                               -0.000000     -0.000000      0.000000


--------------------------------------------------------------------------------------------------------



  FREE ENERGIE OF THE ION-ELECTRON SYSTEM (eV)
  ---------------------------------------------------
  free  energy   TOTEN  =       -41.57565184 eV

  energy  without entropy=      -41.57036256  energy(sigma->0) =      -41.57300720
 
 d Force = 0.5412320E-01[-0.300E-02, 0.111E+00]  d Energy = 0.5426318E-01-0.140E-03
 d Force =-0.9415844E+01[-0.979E+01,-0.904E+01]  d Ewald  =-0.9421159E+01 0.531E-02


--------------------------------------------------------------------------------------------------------


    POTLOK:  cpu time      0.2254: real time      0.2254


--------------------------------------------------------------------------------------------------------




--------------------------------------------------------------------------------------------------------


  
 reached required accuracy - stopping structural energy minimisation
 writing wavefunctions
     LOOP+:  cpu time     13.8553: real time     14.0086
    4ORBIT:  cpu time      0.0000: real time      0.0000



 total charge

# of ion       s       p       d       tot
------------------------------------------
    1        0.801   0.786   0.000   1.587
    2        0.752   0.904   0.000   1.656
    3        0.801   0.786   0.000   1.587
    4        0.752   0.904   0.000   1.656
    5        0.801   0.786   0.000   1.587
    6        0.752   0.904   0.000   1.656
    7        0.801   0.786   0.000   1.587
--------------------------------------------------
tot          5.462   5.854   0.000  11.316



 magnetization (x)

# of ion       s       p       d       tot
------------------------------------------
    1        0.000   0.000   0.000   0.000
    2        0.000  -0.000   0.000  -0.000
    3        0.000   0.000   0.000   0.000
    4        0.000  -0.000   0.000  -0.000
    5        0.000   0.000   0.000   0.000
    6        0.000  -0.000   0.000  -0.000
    7        0.000   0.000   0.000   0.000
--------------------------------------------------
tot          0.000   0.000   0.000   0.000
 

 total amount of memory used by VASP MPI-rank0    40713. kBytes
=======================================================================

   base      :      30000. kBytes
   nonl-proj :       3140. kBytes
   fftplans  :        508. kBytes
   grid      :       5640. kBytes
   one-center:         43. kBytes
   wavefun   :       1382. kBytes
 
  
  
 General timing and accounting informations for this job:
 ========================================================
  
                  Total CPU time used (sec):       99.736
                            User time (sec):       97.047
                          System time (sec):        2.689
                         Elapsed time (sec):      101.839
  
                   Maximum memory used (kb):      195676.
                   Average memory used (kb):          N/A
  
                          Minor page faults:       150919
                          Major page faults:            0
                 Voluntary context switches:         4393
