<?xml version="1.0" encoding="ISO-8859-1"?>
<modeling>
 <generator>
  <i name="program" type="string">vasp </i>
  <i name="version" type="string">6.3.0  </i>
  <i name="subversion" type="string">20Jan22 (build Feb 02 2022 18:12:33) complex                          parallel </i>
  <i name="platform" type="string">LinuxIFC </i>
  <i name="date" type="string">2022 04 15 </i>
  <i name="time" type="string">08:36:39 </i>
 </generator>
 <incar>
  <i type="string" name="PREC">Accurate</i>
  <i type="string" name="ALGO">Fast</i>
  <i type="int" name="ISPIN">     2</i>
  <i type="int" name="NELM">   200</i>
  <i type="int" name="NELMIN">     6</i>
  <i type="int" name="IBRION">     2</i>
  <i name="EDIFF">      0.00001000</i>
  <i name="EDIFFG">     -0.05000000</i>
  <i type="int" name="NSW">    99</i>
  <i type="int" name="ISIF">     2</i>
  <i name="ENCUT">    500.00000000</i>
  <i name="ENAUG">   1360.00000000</i>
  <v name="MAGMOM">      0.60000000      0.60000000      0.60000000      0.60000000      0.60000000      0.60000000      0.60000000</v>
  <i name="NELECT">     27.00000000</i>
  <i type="logical" name="LREAL"> F  </i>
  <i type="int" name="ISMEAR">     0</i>
  <i name="SIGMA">      0.05000000</i>
  <i type="logical" name="LWAVE"> T  </i>
  <i type="logical" name="LCHARG"> F  </i>
  <i type="logical" name="LVTOT"> T  </i>
  <i type="int" name="LORBIT">    11</i>
  <i type="logical" name="LELF"> F  </i>
  <i type="logical" name="LASPH"> T  </i>
  <i type="logical" name="LAECHG"> F  </i>
  <i type="string" name="GGA">Ps</i>
  <i type="logical" name="LMIXTAU"> T  </i>
 </incar>
 <primitive_cell>
  <structure name="primitive_cell" >
   <crystal>
    <varray name="basis" >
     <v>       5.43784835       0.00000000       0.00000000 </v>
     <v>       0.00000000       5.43784835       0.00000000 </v>
     <v>       0.00000000       0.00000000       5.43784835 </v>
    </varray>
    <i name="volume">    160.79823434 </i>
    <varray name="rec_basis" >
     <v>       0.18389626       0.00000000       0.00000000 </v>
     <v>       0.00000000       0.18389626       0.00000000 </v>
     <v>       0.00000000       0.00000000       0.18389626 </v>
    </varray>
   </crystal>
   <varray name="positions" >
    <v>       0.25434293       0.74565707       0.25434293 </v>
    <v>       0.00000000       0.00000000       0.50000000 </v>
    <v>       0.25434293       0.25434293       0.74565707 </v>
    <v>       0.00000000       0.50000000       0.00000000 </v>
    <v>       0.74565707       0.74565707       0.74565707 </v>
    <v>       0.50000000       0.00000000       0.00000000 </v>
    <v>       0.74565707       0.25434293       0.25434293 </v>
   </varray>
  </structure>
  <varray name="primitive_index" >
   <v type="int" >        1 </v>
   <v type="int" >        2 </v>
   <v type="int" >        3 </v>
   <v type="int" >        4 </v>
   <v type="int" >        5 </v>
   <v type="int" >        6 </v>
   <v type="int" >        7 </v>
  </varray>
 </primitive_cell>
 <kpoints>
  <generation param="Gamma">
   <v type="int" name="divisions">       4        4        4 </v>
   <v name="usershift">      0.00000000       0.00000000       0.00000000 </v>
   <v name="genvec1">      0.25000000       0.00000000       0.00000000 </v>
   <v name="genvec2">      0.00000000       0.25000000       0.00000000 </v>
   <v name="genvec3">      0.00000000       0.00000000       0.25000000 </v>
   <v name="shift">      0.00000000       0.00000000       0.00000000 </v>
  </generation>
  <varray name="kpointlist" >
   <v>       0.00000000       0.00000000       0.00000000 </v>
   <v>       0.25000000       0.00000000       0.00000000 </v>
   <v>       0.50000000       0.00000000       0.00000000 </v>
   <v>       0.25000000       0.25000000       0.00000000 </v>
   <v>       0.50000000       0.25000000       0.00000000 </v>
   <v>       0.50000000       0.50000000       0.00000000 </v>
   <v>       0.25000000       0.25000000       0.25000000 </v>
   <v>       0.50000000       0.25000000       0.25000000 </v>
   <v>       0.50000000       0.50000000       0.25000000 </v>
   <v>       0.50000000       0.50000000       0.50000000 </v>
  </varray>
  <varray name="weights" >
   <v>       0.01562500 </v>
   <v>       0.09375000 </v>
   <v>       0.04687500 </v>
   <v>       0.18750000 </v>
   <v>       0.18750000 </v>
   <v>       0.04687500 </v>
   <v>       0.12500000 </v>
   <v>       0.18750000 </v>
   <v>       0.09375000 </v>
   <v>       0.01562500 </v>
  </varray>
 </kpoints>
 <parameters>
  <separator name="general" >
   <i type="string" name="SYSTEM">unknown system</i>
   <i type="logical" name="LCOMPAT"> F  </i>
  </separator>
  <separator name="electronic" >
   <i type="string" name="PREC">accura</i>
   <i name="ENMAX">    500.00000000</i>
   <i name="ENAUG">   1360.00000000</i>
   <i name="EDIFF">      0.00001000</i>
   <i type="int" name="IALGO">    68</i>
   <i type="int" name="IWAVPR">    11</i>
   <i type="int" name="NBANDS">   144</i>
   <i type="int" name="NBANDSLOW">    -1</i>
   <i type="int" name="NBANDSHIGH">    -1</i>
   <i name="NELECT">     27.00000000</i>
   <i type="int" name="TURBO">     0</i>
   <i type="int" name="IRESTART">     0</i>
   <i type="int" name="NREBOOT">     0</i>
   <i type="int" name="NMIN">     0</i>
   <i name="EREF">      0.00000000</i>
   <separator name="electronic smearing" >
    <i type="int" name="ISMEAR">     0</i>
    <i name="SIGMA">      0.05000000</i>
    <i name="KSPACING">      0.50000000</i>
    <i type="logical" name="KGAMMA"> T  </i>
    <i type="logical" name="KBLOWUP"> T  </i>
   </separator>
   <separator name="electronic projectors" >
    <i type="logical" name="LREAL"> F  </i>
    <v name="ROPT">      0.00000000</v>
    <i type="int" name="LMAXPAW">  -100</i>
    <i type="int" name="LMAXMIX">     2</i>
    <i type="logical" name="NLSPLINE"> F  </i>
   </separator>
   <separator name="electronic startup" >
    <i type="int" name="ISTART">     0</i>
    <i type="int" name="ICHARG">     2</i>
    <i type="int" name="INIWAV">     1</i>
   </separator>
   <separator name="electronic spin" >
    <i type="int" name="ISPIN">     2</i>
    <i type="logical" name="LNONCOLLINEAR"> F  </i>
    <v name="MAGMOM">      0.60000000      0.60000000      0.60000000      0.60000000      0.60000000      0.60000000      0.60000000</v>
    <i name="NUPDOWN">     -1.00000000</i>
    <i type="logical" name="LSORBIT"> F  </i>
    <v name="SAXIS">      0.00000000      0.00000000      1.00000000</v>
    <i type="logical" name="LSPIRAL"> F  </i>
    <v name="QSPIRAL">      0.00000000      0.00000000      0.00000000</v>
    <i type="logical" name="LZEROZ"> F  </i>
   </separator>
   <separator name="electronic exchange-correlation" >
    <i type="logical" name="LASPH"> T  </i>
    <i type="logical" name="LMETAGGA"> F  </i>
   </separator>
   <separator name="electronic convergence" >
    <i type="int" name="NELM">   200</i>
    <i type="int" name="NELMDL">    -5</i>
    <i type="int" name="NELMIN">     6</i>
    <i name="ENINI">    500.00000000</i>
    <separator name="electronic convergence detail" >
     <i type="logical" name="LDIAG"> T  </i>
     <i type="logical" name="LSUBROT"> F  </i>
     <i name="WEIMIN">      0.00100000</i>
     <i name="EBREAK">      0.00000002</i>
     <i name="DEPER">      0.30000000</i>
     <i type="int" name="NRMM">     4</i>
     <i name="TIME">      0.40000000</i>
    </separator>
   </separator>
   <separator name="electronic mixer" >
    <i name="AMIX">      0.40000000</i>
    <i name="BMIX">      1.00000000</i>
    <i name="AMIN">      0.10000000</i>
    <i name="AMIX_MAG">      1.60000000</i>
    <i name="BMIX_MAG">      1.00000000</i>
    <separator name="electronic mixer details" >
     <i type="int" name="IMIX">     4</i>
     <i type="logical" name="MIXFIRST"> F  </i>
     <i type="int" name="MAXMIX">   -45</i>
     <i name="WC">    100.00000000</i>
     <i type="int" name="INIMIX">     1</i>
     <i type="int" name="MIXPRE">     1</i>
     <i type="int" name="MREMOVE">     5</i>
    </separator>
   </separator>
   <separator name="electronic dipolcorrection" >
    <i type="logical" name="LDIPOL"> F  </i>
    <i type="logical" name="LMONO"> F  </i>
    <i type="int" name="IDIPOL">     0</i>
    <i name="EPSILON">      1.00000000</i>
    <v name="DIPOL">   -100.00000000   -100.00000000   -100.00000000</v>
    <i name="EFIELD">      0.00000000</i>
   </separator>
  </separator>
  <separator name="grids" >
   <i type="int" name="NGX">    40</i>
   <i type="int" name="NGY">    40</i>
   <i type="int" name="NGZ">    40</i>
   <i type="int" name="NGXF">    80</i>
   <i type="int" name="NGYF">    80</i>
   <i type="int" name="NGZF">    80</i>
   <i type="logical" name="ADDGRID"> F  </i>
  </separator>
  <separator name="ionic" >
   <i type="int" name="NSW">    99</i>
   <i type="int" name="IBRION">     2</i>
   <i type="int" name="MDALGO">     0</i>
   <i type="int" name="ISIF">     2</i>
   <i name="PSTRESS">      0.00000000</i>
   <i name="EDIFFG">     -0.05000000</i>
   <i type="int" name="NFREE">     1</i>
   <i name="POTIM">      0.50000000</i>
   <i name="SMASS">     -3.00000000</i>
   <i name="SCALEE">      1.00000000</i>
  </separator>
  <separator name="ionic md" >
   <i name="TEBEG">      0.00010000</i>
   <i name="TEEND">      0.00010000</i>
   <i type="int" name="NBLOCK">     1</i>
   <i type="int" name="KBLOCK">    99</i>
   <i type="int" name="NPACO">   256</i>
   <i name="APACO">     10.00000000</i>
  </separator>
  <separator name="symmetry" >
   <i type="int" name="ISYM">     2</i>
   <i name="SYMPREC">      0.00001000</i>
  </separator>
  <separator name="dos" >
   <i type="int" name="LORBIT">    11</i>
   <v name="RWIGS">     -1.00000000</v>
   <i type="int" name="NEDOS">   301</i>
   <i name="EMIN">     10.00000000</i>
   <i name="EMAX">    -10.00000000</i>
   <i name="EFERMI">      0.00000000</i>
  </separator>
  <separator name="writing" >
   <i type="int" name="NWRITE">     2</i>
   <i type="logical" name="LWAVE"> T  </i>
   <i type="logical" name="LDOWNSAMPLE"> F  </i>
   <i type="logical" name="LCHARG"> F  </i>
   <i type="logical" name="LPARD"> F  </i>
   <i type="logical" name="LVTOT"> T  </i>
   <i type="logical" name="LVHAR"> F  </i>
   <i type="logical" name="LELF"> F  </i>
   <i type="logical" name="LOPTICS"> F  </i>
   <v name="STM">      0.00000000      0.00000000      0.00000000      0.00000000      0.00000000      0.00000000      0.00000000</v>
  </separator>
  <separator name="performance" >
   <i type="int" name="NPAR">   144</i>
   <i type="int" name="NSIM">     4</i>
   <i type="int" name="NBLK">    -1</i>
   <i type="logical" name="LPLANE"> T  </i>
   <i type="logical" name="LSCALAPACK"> T  </i>
   <i type="logical" name="LSCAAWARE"> T  </i>
   <i type="logical" name="LSCALU"> F  </i>
   <i type="logical" name="LASYNC"> F  </i>
   <i type="logical" name="LORBITALREAL"> F  </i>
  </separator>
  <separator name="miscellaneous" >
   <i type="int" name="IDIOT">     3</i>
   <i type="int" name="PHON_NSTRUCT">    -1</i>
   <i type="logical" name="LMUSIC"> F  </i>
   <v name="POMASS">     28.08500000</v>
   <v name="DARWINR">      0.00000000</v>
   <v name="DARWINV">      1.00000000</v>
   <i type="logical" name="LCORR"> T  </i>
  </separator>
  <i type="logical" name="GGA_COMPAT"> T  </i>
  <i type="logical" name="LBERRY"> F  </i>
  <i type="int" name="ICORELEVEL">     0</i>
  <i type="logical" name="LDAU"> F  </i>
  <i type="int" name="I_CONSTRAINED_M">     0</i>
  <separator name="electronic exchange-correlation" >
   <i type="string" name="GGA">PS</i>
   <i type="int" name="VOSKOWN">     0</i>
   <i type="logical" name="LHFCALC"> F  </i>
   <i type="string" name="PRECFOCK"></i>
   <i type="logical" name="LSYMGRAD"> F  </i>
   <i type="logical" name="LHFONE"> F  </i>
   <i type="logical" name="LRHFCALC"> F  </i>
   <i type="logical" name="LTHOMAS"> F  </i>
   <i type="logical" name="LMODELHF"> F  </i>
   <i type="logical" name="LFOCKACE"> F  </i>
   <i name="ENCUT4O">     -1.00000000</i>
   <i type="int" name="EXXOEP">     0</i>
   <i type="int" name="FOURORBIT">     0</i>
   <i name="AEXX">      0.00000000</i>
   <i name="HFALPHA">      0.00000000</i>
   <i name="MCALPHA">      0.00000000</i>
   <i name="ALDAX">      1.00000000</i>
   <i name="AGGAX">      1.00000000</i>
   <i name="ALDAC">      1.00000000</i>
   <i name="AGGAC">      1.00000000</i>
   <i type="int" name="NKREDX">     1</i>
   <i type="int" name="NKREDY">     1</i>
   <i type="int" name="NKREDZ">     1</i>
   <i type="logical" name="SHIFTRED"> F  </i>
   <i type="logical" name="ODDONLY"> F  </i>
   <i type="logical" name="EVENONLY"> F  </i>
   <i type="int" name="LMAXFOCK">     0</i>
   <i type="int" name="NMAXFOCKAE">     0</i>
   <i type="logical" name="LFOCKAEDFT"> F  </i>
   <i name="HFSCREEN">      0.00000000</i>
   <i name="HFSCREENC">      0.00000000</i>
   <i type="int" name="NBANDSGWLOW">     0</i>
  </separator>
  <separator name="vdW DFT" >
   <i type="logical" name="LUSE_VDW"> F  </i>
   <i name="Zab_VDW">     -0.84910000</i>
   <i name="PARAM1">      0.12340000</i>
   <i name="PARAM2">      1.00000000</i>
   <i name="PARAM3">      0.00000000</i>
  </separator>
  <separator name="model GW" >
   <i type="int" name="MODEL_GW">     0</i>
   <i name="MODEL_EPS0">     13.78270580</i>
   <i name="MODEL_ALPHA">      1.00000000</i>
  </separator>
  <separator name="linear response parameters" >
   <i type="logical" name="LEPSILON"> F  </i>
   <i type="logical" name="LRPA"> F  </i>
   <i type="logical" name="LNABLA"> F  </i>
   <i type="logical" name="LVEL"> F  </i>
   <i name="CSHIFT">      0.10000000</i>
   <i name="OMEGAMAX">     -1.00000000</i>
   <i name="DEG_THRESHOLD">      0.00200000</i>
   <i name="RTIME">     -0.10000000</i>
   <i name="WPLASMAI">      0.00000000</i>
   <v name="DFIELD">      0.00000000      0.00000000      0.00000000</v>
   <v name="WPLASMA">      0.00000000      0.00000000      0.00000000      0.00000000      0.00000000      0.00000000      0.00000000      0.00000000      0.00000000</v>
  </separator>
  <separator name="orbital magnetization" >
   <i type="logical" name="NUCIND"> F  </i>
   <v name="MAGPOS">      0.00000000      0.00000000      0.00000000</v>
   <i type="logical" name="LNICSALL"> T  </i>
   <i type="logical" name="ORBITALMAG"> F  </i>
   <i type="logical" name="LMAGBLOCH"> F  </i>
   <i type="logical" name="LCHIMAG"> F  </i>
   <i type="logical" name="LGAUGE"> T  </i>
   <i type="int" name="MAGATOM">     0</i>
   <v name="MAGDIPOL">      0.00000000      0.00000000      0.00000000</v>
   <v name="AVECCONST">      0.00000000      0.00000000      0.00000000</v>
  </separator>
  <separator name="response functions" >
   <i type="logical" name="LFINITE_TEMPERATURE"> F  </i>
   <i type="logical" name="LADDER"> F  </i>
   <i type="logical" name="LRPAFORCE"> F  </i>
   <i type="logical" name="LFXC"> F  </i>
   <i type="logical" name="LHARTREE"> T  </i>
   <i type="int" name="IBSE">     0</i>
   <v type="int" name="KPOINT">    -1     0     0     0</v>
   <i type="logical" name="LTCTC"> F  </i>
   <i type="logical" name="LTCTE"> F  </i>
   <i type="logical" name="LTETE"> F  </i>
   <i type="logical" name="LTRIPLET"> F  </i>
   <i type="logical" name="LFXCEPS"> F  </i>
   <i type="logical" name="LFXHEG"> F  </i>
   <i type="int" name="NATURALO">     2</i>
   <i type="logical" name="LHOLEGF"> F  </i>
   <i type="logical" name="L2ORDER"> F  </i>
   <i type="logical" name="LDMP1"> F  </i>
   <i type="logical" name="LMP2LT"> F  </i>
   <i type="logical" name="LSMP2LT"> F  </i>
   <i type="logical" name="LGWLF"> F  </i>
   <i name="ENCUTGW">     -2.00000000</i>
   <i name="ENCUTGWSOFT">     -2.00000000</i>
   <i name="ENCUTLF">     -1.00000000</i>
   <i type="logical" name="LESF_SPLINES"> F  </i>
   <i type="int" name="LMAXMP2">    -1</i>
   <i name="SCISSOR">      0.00000000</i>
   <i type="int" name="NOMEGA">     0</i>
   <i type="int" name="NOMEGAR">     0</i>
   <i type="int" name="NBANDSGW">    -1</i>
   <i type="int" name="NBANDSO">    -1</i>
   <i type="int" name="NBANDSV">    -1</i>
   <i type="int" name="NELMGW">     1</i>
   <i type="int" name="NELMHF">     1</i>
   <i type="int" name="DIM">     3</i>
   <i type="int" name="IESPILON">     4</i>
   <i type="int" name="ANTIRES">     0</i>
   <i name="OMEGAMAX">    -30.00000000</i>
   <i name="OMEGAMIN">    -30.00000000</i>
   <i name="OMEGATL">   -200.00000000</i>
   <i type="int" name="OMEGAGRID">     0</i>
   <i name="CSHIFT">     -0.10000000</i>
   <i type="logical" name="LSELFENERGY"> F  </i>
   <i type="logical" name="LSPECTRAL"> F  </i>
   <i type="logical" name="LSPECTRALGW"> F  </i>
   <i type="logical" name="LSINGLES"> F  </i>
   <i type="logical" name="LFERMIGW"> F  </i>
   <i type="logical" name="ODDONLYGW"> F  </i>
   <i type="logical" name="EVENONLYGW"> F  </i>
   <i type="int" name="NKREDLFX">     1</i>
   <i type="int" name="NKREDLFY">     1</i>
   <i type="int" name="NKREDLFZ">     1</i>
   <i type="int" name="MAXMEM">  2800</i>
   <i type="int" name="TELESCOPE">     0</i>
   <i type="int" name="NTAUPAR">    -1</i>
   <i type="int" name="NOMEGAPAR">    -1</i>
   <i name="DAMP_NEWTON">      0.80000001</i>
   <i name="LAMBDA">      1.00000000</i>
  </separator>
  <separator name="External order field" >
   <i name="OFIELD_KAPPA">      0.00000000</i>
   <v name="OFIELD_K">      0.00000000      0.00000000      0.00000000</v>
   <i name="OFIELD_Q6_NEAR">      0.00000000</i>
   <i name="OFIELD_Q6_FAR">      0.00000000</i>
   <i name="OFIELD_A">      0.00000000</i>
  </separator>
  <separator name="optional k-points parameters" >
   <i type="int" name="KPOINTS_OPT_MODE">     1</i>
   <i type="logical" name="LKPOINTS_OPT"> F  </i>
  </separator>
 </parameters>
 <atominfo>
  <atoms>       7 </atoms>
  <types>       1 </types>
  <array name="atoms" >
   <dimension dim="1">ion</dimension>
   <field type="string">element</field>
   <field type="int">atomtype</field>
   <set>
    <rc><c>Si</c><c>   1</c></rc>
    <rc><c>Si</c><c>   1</c></rc>
    <rc><c>Si</c><c>   1</c></rc>
    <rc><c>Si</c><c>   1</c></rc>
    <rc><c>Si</c><c>   1</c></rc>
    <rc><c>Si</c><c>   1</c></rc>
    <rc><c>Si</c><c>   1</c></rc>
   </set>
  </array>
  <array name="atomtypes" >
   <dimension dim="1">type</dimension>
   <field type="int">atomspertype</field>
   <field type="string">element</field>
   <field>mass</field>
   <field>valence</field>
   <field type="string">pseudopotential</field>
   <set>
    <rc><c>   7</c><c>Si</c><c>     28.08500000</c><c>      4.00000000</c><c>  PAW_PBE Si 05Jan2001                  </c></rc>
   </set>
  </array>
 </atominfo>
 <structure name="initialpos" >
  <crystal>
   <varray name="basis" >
    <v>       5.43784835       0.00000000       0.00000000 </v>
    <v>       0.00000000       5.43784835       0.00000000 </v>
    <v>       0.00000000       0.00000000       5.43784835 </v>
   </varray>
   <i name="volume">    160.79823434 </i>
   <varray name="rec_basis" >
    <v>       0.18389626       0.00000000       0.00000000 </v>
    <v>       0.00000000       0.18389626       0.00000000 </v>
    <v>       0.00000000       0.00000000       0.18389626 </v>
   </varray>
  </crystal>
  <varray name="positions" >
   <v>       0.25434293       0.74565707       0.25434293 </v>
   <v>       0.00000000       0.00000000       0.50000000 </v>
   <v>       0.25434293       0.25434293       0.74565707 </v>
   <v>       0.00000000       0.50000000       0.00000000 </v>
   <v>       0.74565707       0.74565707       0.74565707 </v>
   <v>       0.50000000       0.00000000       0.00000000 </v>
   <v>       0.74565707       0.25434293       0.25434293 </v>
  </varray>
 </structure>
 <calculation>
  <scstep>
   <time name="dav">    5.20    5.20</time>
   <time name="total">    5.43    5.43</time>
   <energy>
    <i name="alphaZ">     10.25815623 </i>
    <i name="ewald">   -749.89178961 </i>
    <i name="hartreedc">    -55.71548376 </i>
    <i name="XCdc">    -62.36059601 </i>
    <i name="pawpsdc">    612.14459606 </i>
    <i name="pawaedc">   -491.11706165 </i>
    <i name="eentropy">     -0.00000681 </i>
    <i name="bandstr">     -5.08153151 </i>
    <i name="atom">    718.02812073 </i>
    <i name="e_fr_energy">    -23.73559633 </i>
    <i name="e_wo_entrp">    -23.73558952 </i>
    <i name="e_0_energy">    -23.73559292 </i>
   </energy>
  </scstep>
  <scstep>
   <time name="dav">   12.38   12.40</time>
   <time name="total">   12.38   12.40</time>
   <energy>
    <i name="e_fr_energy">    -41.62273320 </i>
    <i name="e_wo_entrp">    -41.62262693 </i>
    <i name="e_0_energy">    -41.62268007 </i>
   </energy>
  </scstep>
  <scstep>
   <time name="dav">    5.35    5.36</time>
   <time name="total">    5.35    5.37</time>
   <energy>
    <i name="e_fr_energy">    -41.63681427 </i>
    <i name="e_wo_entrp">    -41.63670665 </i>
    <i name="e_0_energy">    -41.63676046 </i>
   </energy>
  </scstep>
  <scstep>
   <time name="dav">   25.48   25.49</time>
   <time name="total">   25.48   25.50</time>
   <energy>
    <i name="e_fr_energy">    -41.63682140 </i>
    <i name="e_wo_entrp">    -41.63671378 </i>
    <i name="e_0_energy">    -41.63676759 </i>
   </energy>
  </scstep>
  <scstep>
   <time name="dav">    5.71    5.73</time>
   <time name="total">    5.75    5.77</time>
   <energy>
    <i name="e_fr_energy">    -41.63682140 </i>
    <i name="e_wo_entrp">    -41.63671378 </i>
    <i name="e_0_energy">    -41.63676759 </i>
   </energy>
  </scstep>
  <scstep>
   <time name="diag">    0.83    0.83</time>
   <time name="diis">    0.18    0.18</time>
   <time name="orth">    0.11    0.11</time>
   <time name="total">    1.39    1.41</time>
   <energy>
    <i name="e_fr_energy">    -41.63491064 </i>
    <i name="e_wo_entrp">    -41.63236166 </i>
    <i name="e_0_energy">    -41.63363615 </i>
   </energy>
  </scstep>
  <scstep>
   <time name="diag">    0.79    0.79</time>
   <time name="diis">    0.17    0.17</time>
   <time name="orth">    0.11    0.11</time>
   <time name="total">    1.34    1.35</time>
   <energy>
    <i name="e_fr_energy">    -41.48057783 </i>
    <i name="e_wo_entrp">    -41.47570326 </i>
    <i name="e_0_energy">    -41.47814054 </i>
   </energy>
  </scstep>
  <scstep>
   <time name="diag">    0.78    0.78</time>
   <time name="diis">    0.17    0.17</time>
   <time name="orth">    0.11    0.11</time>
   <time name="total">    1.32    1.34</time>
   <energy>
    <i name="e_fr_energy">    -41.47898259 </i>
    <i name="e_wo_entrp">    -41.47383779 </i>
    <i name="e_0_energy">    -41.47641019 </i>
   </energy>
  </scstep>
  <scstep>
   <time name="diag">    0.78    0.78</time>
   <time name="diis">    0.17    0.17</time>
   <time name="orth">    0.11    0.11</time>
   <time name="total">    1.32    1.34</time>
   <energy>
    <i name="e_fr_energy">    -41.47636635 </i>
    <i name="e_wo_entrp">    -41.47112296 </i>
    <i name="e_0_energy">    -41.47374466 </i>
   </energy>
  </scstep>
  <scstep>
   <time name="diag">    0.77    0.77</time>
   <time name="diis">    0.17    0.17</time>
   <time name="orth">    0.11    0.11</time>
   <time name="total">    1.31    1.33</time>
   <energy>
    <i name="e_fr_energy">    -41.47634344 </i>
    <i name="e_wo_entrp">    -41.47107894 </i>
    <i name="e_0_energy">    -41.47371119 </i>
   </energy>
  </scstep>
  <scstep>
   <time name="diag">    0.77    0.77</time>
   <time name="diis">    0.17    0.17</time>
   <time name="orth">    0.11    0.11</time>
   <time name="total">    1.30    1.32</time>
   <energy>
    <i name="e_fr_energy">    -41.47636522 </i>
    <i name="e_wo_entrp">    -41.47108350 </i>
    <i name="e_0_energy">    -41.47372436 </i>
   </energy>
  </scstep>
  <scstep>
   <time name="diag">    0.76    0.76</time>
   <time name="diis">    0.17    0.17</time>
   <time name="orth">    0.11    0.11</time>
   <time name="total">    1.30    1.32</time>
   <energy>
    <i name="e_fr_energy">    -41.47639027 </i>
    <i name="e_wo_entrp">    -41.47110325 </i>
    <i name="e_0_energy">    -41.47374676 </i>
   </energy>
  </scstep>
  <scstep>
   <time name="diag">    0.76    0.76</time>
   <time name="diis">    0.17    0.17</time>
   <time name="orth">    0.11    0.11</time>
   <time name="total">    1.26    1.28</time>
   <energy>
    <i name="alphaZ">     10.25815623 </i>
    <i name="ewald">   -749.89178961 </i>
    <i name="hartreedc">    -65.32966847 </i>
    <i name="XCdc">    -63.85037320 </i>
    <i name="pawpsdc">   2251.28780002 </i>
    <i name="pawaedc">  -2130.62420051 </i>
    <i name="eentropy">     -0.00528873 </i>
    <i name="bandstr">    -11.34914922 </i>
    <i name="atom">    718.02812073 </i>
    <i name="e_fr_energy">    -41.47639275 </i>
    <i name="e_wo_entrp">    -41.47110403 </i>
    <i name="e_0_energy">    -41.47374839 </i>
   </energy>
  </scstep>
  <structure>
   <crystal>
    <varray name="basis" >
     <v>       5.43784835       0.00000000       0.00000000 </v>
     <v>       0.00000000       5.43784835       0.00000000 </v>
     <v>       0.00000000       0.00000000       5.43784835 </v>
    </varray>
    <i name="volume">    160.79823434 </i>
    <varray name="rec_basis" >
     <v>       0.18389626       0.00000000       0.00000000 </v>
     <v>       0.00000000       0.18389626       0.00000000 </v>
     <v>       0.00000000       0.00000000       0.18389626 </v>
    </varray>
   </crystal>
   <varray name="positions" >
    <v>       0.25434293       0.74565707       0.25434293 </v>
    <v>       0.00000000       0.00000000       0.50000000 </v>
    <v>       0.25434293       0.25434293       0.74565707 </v>
    <v>       0.00000000       0.50000000       0.00000000 </v>
    <v>       0.74565707       0.74565707       0.74565707 </v>
    <v>       0.50000000       0.00000000       0.00000000 </v>
    <v>       0.74565707       0.25434293       0.25434293 </v>
   </varray>
  </structure>
  <varray name="forces" >
   <v>      -0.29833978       0.29833978      -0.29833978 </v>
   <v>       0.00000000       0.00000000      -0.00000000 </v>
   <v>      -0.29833978      -0.29833978       0.29833978 </v>
   <v>       0.00000000       0.00000000      -0.00000000 </v>
   <v>       0.29833978       0.29833978       0.29833978 </v>
   <v>       0.00000000       0.00000000      -0.00000000 </v>
   <v>       0.29833978      -0.29833978      -0.29833978 </v>
  </varray>
  <varray name="stress" >
   <v>    -129.89942371       0.00000000      -0.00000000 </v>
   <v>      -0.00000000    -129.89942371      -0.00000000 </v>
   <v>       0.00000000       0.00000000    -129.89942371 </v>
  </varray>
  <energy>
   <i name="e_fr_energy">    -41.47639275 </i>
   <i name="e_wo_entrp">    -41.47110403 </i>
   <i name="e_0_energy">    -41.47374839 </i>
  </energy>
  <time name="totalsc">   65.83   66.08</time>
 </calculation>
 <calculation>
  <scstep>
   <time name="dav">    7.33    7.33</time>
   <time name="total">    7.59    7.60</time>
   <energy>
    <i name="alphaZ">     10.25815623 </i>
    <i name="ewald">   -746.82311520 </i>
    <i name="hartreedc">    -67.61958591 </i>
    <i name="XCdc">    -63.77635694 </i>
    <i name="pawpsdc">   2248.99861812 </i>
    <i name="pawaedc">  -2128.33521898 </i>
    <i name="eentropy">     -0.00528911 </i>
    <i name="bandstr">    -12.24688304 </i>
    <i name="atom">    718.02812073 </i>
    <i name="e_fr_energy">    -41.52155410 </i>
    <i name="e_wo_entrp">    -41.51626499 </i>
    <i name="e_0_energy">    -41.51890954 </i>
   </energy>
  </scstep>
  <scstep>
   <time name="diag">    0.77    0.77</time>
   <time name="diis">    0.17    0.17</time>
   <time name="orth">    0.11    0.11</time>
   <time name="total">    1.31    1.33</time>
   <energy>
    <i name="e_fr_energy">    -41.52143214 </i>
    <i name="e_wo_entrp">    -41.51614296 </i>
    <i name="e_0_energy">    -41.51878755 </i>
   </energy>
  </scstep>
  <scstep>
   <time name="diag">    0.77    0.77</time>
   <time name="diis">    0.17    0.17</time>
   <time name="orth">    0.11    0.11</time>
   <time name="total">    1.31    1.34</time>
   <energy>
    <i name="e_fr_energy">    -41.52138756 </i>
    <i name="e_wo_entrp">    -41.51609831 </i>
    <i name="e_0_energy">    -41.51874293 </i>
   </energy>
  </scstep>
  <scstep>
   <time name="diag">    0.77    0.77</time>
   <time name="diis">    0.17    0.17</time>
   <time name="orth">    0.11    0.11</time>
   <time name="total">    1.30    1.32</time>
   <energy>
    <i name="e_fr_energy">    -41.52138919 </i>
    <i name="e_wo_entrp">    -41.51609991 </i>
    <i name="e_0_energy">    -41.51874455 </i>
   </energy>
  </scstep>
  <scstep>
   <time name="diag">    0.76    0.76</time>
   <time name="diis">    0.17    0.17</time>
   <time name="orth">    0.11    0.11</time>
   <time name="total">    1.29    1.31</time>
   <energy>
    <i name="e_fr_energy">    -41.52138889 </i>
    <i name="e_wo_entrp">    -41.51609962 </i>
    <i name="e_0_energy">    -41.51874425 </i>
   </energy>
  </scstep>
  <scstep>
   <time name="diag">    0.75    0.75</time>
   <time name="diis">    0.16    0.16</time>
   <time name="orth">    0.11    0.11</time>
   <time name="total">    1.25    1.27</time>
   <energy>
    <i name="alphaZ">     10.25815623 </i>
    <i name="ewald">   -746.82311520 </i>
    <i name="hartreedc">    -67.74195597 </i>
    <i name="XCdc">    -63.74875077 </i>
    <i name="pawpsdc">   2299.60624502 </i>
    <i name="pawaedc">  -2178.96572246 </i>
    <i name="eentropy">     -0.00528928 </i>
    <i name="bandstr">    -12.12907696 </i>
    <i name="atom">    718.02812073 </i>
    <i name="e_fr_energy">    -41.52138866 </i>
    <i name="e_wo_entrp">    -41.51609938 </i>
    <i name="e_0_energy">    -41.51874402 </i>
   </energy>
  </scstep>
  <structure>
   <crystal>
    <varray name="basis" >
     <v>       5.43784835       0.00000000       0.00000000 </v>
     <v>       0.00000000       5.43784835       0.00000000 </v>
     <v>       0.00000000       0.00000000       5.43784835 </v>
    </varray>
    <i name="volume">    160.79823434 </i>
    <varray name="rec_basis" >
     <v>       0.18389626       0.00000000       0.00000000 </v>
     <v>       0.00000000       0.18389626       0.00000000 </v>
     <v>       0.00000000       0.00000000       0.18389626 </v>
    </varray>
   </crystal>
   <varray name="positions" >
    <v>       0.25169616       0.74830384       0.25169616 </v>
    <v>       0.00000000       0.00000000       0.50000000 </v>
    <v>       0.25169616       0.25169616       0.74830384 </v>
    <v>       0.00000000       0.50000000      -0.00000000 </v>
    <v>       0.74830384       0.74830384       0.74830384 </v>
    <v>       0.50000000       0.00000000      -0.00000000 </v>
    <v>       0.74830384       0.25169616       0.25169616 </v>
   </varray>
  </structure>
  <varray name="forces" >
   <v>      -0.22189699       0.22189699      -0.22189699 </v>
   <v>      -0.00000000       0.00000000       0.00000000 </v>
   <v>      -0.22189699      -0.22189699       0.22189699 </v>
   <v>      -0.00000000      -0.00000000       0.00000000 </v>
   <v>       0.22189699       0.22189699       0.22189699 </v>
   <v>      -0.00000000       0.00000000      -0.00000000 </v>
   <v>       0.22189699      -0.22189699      -0.22189699 </v>
  </varray>
  <varray name="stress" >
   <v>    -123.88768210      -0.00000000      -0.00000000 </v>
   <v>       0.00000000    -123.88768210      -0.00000000 </v>
   <v>       0.00000000      -0.00000000    -123.88768210 </v>
  </varray>
  <energy>
   <i name="e_fr_energy">    -41.52138866 </i>
   <i name="e_wo_entrp">    -41.51609938 </i>
   <i name="e_0_energy">    -41.51874402 </i>
  </energy>
  <time name="totalsc">   14.95   15.08</time>
 </calculation>
 <calculation>
  <scstep>
   <time name="dav">    5.35    5.35</time>
   <time name="total">    5.61    5.62</time>
   <energy>
    <i name="alphaZ">     10.25815623 </i>
    <i name="ewald">   -737.40195643 </i>
    <i name="hartreedc">    -74.82199315 </i>
    <i name="XCdc">    -63.52489938 </i>
    <i name="pawpsdc">   2299.53275745 </i>
    <i name="pawaedc">  -2178.89207230 </i>
    <i name="eentropy">     -0.00528928 </i>
    <i name="bandstr">    -14.74944849 </i>
    <i name="atom">    718.02812073 </i>
    <i name="e_fr_energy">    -41.57662460 </i>
    <i name="e_wo_entrp">    -41.57133532 </i>
    <i name="e_0_energy">    -41.57397996 </i>
   </energy>
  </scstep>
  <scstep>
   <time name="diag">    0.82    0.82</time>
   <time name="diis">    0.17    0.17</time>
   <time name="orth">    0.11    0.11</time>
   <time name="total">    1.36    1.38</time>
   <energy>
    <i name="e_fr_energy">    -41.57608293 </i>
    <i name="e_wo_entrp">    -41.57079365 </i>
    <i name="e_0_energy">    -41.57343829 </i>
   </energy>
  </scstep>
  <scstep>
   <time name="diag">    0.77    0.77</time>
   <time name="diis">    0.17    0.17</time>
   <time name="orth">    0.11    0.11</time>
   <time name="total">    1.32    1.33</time>
   <energy>
    <i name="e_fr_energy">    -41.57564903 </i>
    <i name="e_wo_entrp">    -41.57035975 </i>
    <i name="e_0_energy">    -41.57300439 </i>
   </energy>
  </scstep>
  <scstep>
   <time name="diag">    0.77    0.77</time>
   <time name="diis">    0.17    0.17</time>
   <time name="orth">    0.11    0.11</time>
   <time name="total">    1.32    1.34</time>
   <energy>
    <i name="e_fr_energy">    -41.57565242 </i>
    <i name="e_wo_entrp">    -41.57036314 </i>
    <i name="e_0_energy">    -41.57300778 </i>
   </energy>
  </scstep>
  <scstep>
   <time name="diag">    0.76    0.76</time>
   <time name="diis">    0.17    0.17</time>
   <time name="orth">    0.11    0.11</time>
   <time name="total">    1.30    1.32</time>
   <energy>
    <i name="e_fr_energy">    -41.57565259 </i>
    <i name="e_wo_entrp">    -41.57036331 </i>
    <i name="e_0_energy">    -41.57300795 </i>
   </energy>
  </scstep>
  <scstep>
   <time name="diag">    0.76    0.76</time>
   <time name="diis">    0.17    0.17</time>
   <time name="orth">    0.11    0.11</time>
   <time name="total">    1.26    1.28</time>
   <energy>
    <i name="alphaZ">     10.25815623 </i>
    <i name="ewald">   -737.40195643 </i>
    <i name="hartreedc">    -75.09186051 </i>
    <i name="XCdc">    -63.45776913 </i>
    <i name="pawpsdc">   2447.41724278 </i>
    <i name="pawaedc">  -2326.84097576 </i>
    <i name="eentropy">     -0.00528928 </i>
    <i name="bandstr">    -14.48132047 </i>
    <i name="atom">    718.02812073 </i>
    <i name="e_fr_energy">    -41.57565184 </i>
    <i name="e_wo_entrp">    -41.57036256 </i>
    <i name="e_0_energy">    -41.57300720 </i>
   </energy>
  </scstep>
  <structure>
   <crystal>
    <varray name="basis" >
     <v>       5.43784835       0.00000000       0.00000000 </v>
     <v>       0.00000000       5.43784835       0.00000000 </v>
     <v>       0.00000000       0.00000000       5.43784835 </v>
    </varray>
    <i name="volume">    160.79823434 </i>
    <varray name="rec_basis" >
     <v>       0.18389626       0.00000000       0.00000000 </v>
     <v>       0.00000000       0.18389626       0.00000000 </v>
     <v>       0.00000000       0.00000000       0.18389626 </v>
    </varray>
   </crystal>
   <varray name="positions" >
    <v>       0.24401317       0.75598683       0.24401317 </v>
    <v>       0.00000000       0.00000000       0.50000000 </v>
    <v>       0.24401317       0.24401317       0.75598683 </v>
    <v>       0.00000000       0.50000000      -0.00000000 </v>
    <v>       0.75598683       0.75598683       0.75598683 </v>
    <v>       0.50000000       0.00000000      -0.00000000 </v>
    <v>       0.75598683       0.24401317       0.24401317 </v>
   </varray>
  </structure>
  <varray name="forces" >
   <v>       0.00598590      -0.00598590       0.00598590 </v>
   <v>      -0.00000000       0.00000000      -0.00000000 </v>
   <v>       0.00598590       0.00598590      -0.00598590 </v>
   <v>      -0.00000000       0.00000000      -0.00000000 </v>
   <v>      -0.00598590      -0.00598590      -0.00598590 </v>
   <v>      -0.00000000       0.00000000      -0.00000000 </v>
   <v>      -0.00598590       0.00598590       0.00598590 </v>
  </varray>
  <varray name="stress" >
   <v>    -106.35009401      -0.00000000       0.00000000 </v>
   <v>      -0.00000000    -106.35009401      -0.00000000 </v>
   <v>       0.00000000      -0.00000000    -106.35009401 </v>
  </varray>
  <energy>
   <i name="e_fr_energy">    -41.57565184 </i>
   <i name="e_wo_entrp">    -41.57036256 </i>
   <i name="e_0_energy">    -41.57300720 </i>
  </energy>
  <time name="totalsc">   13.86   14.01</time>
  <eigenvalues>
   <array>
    <dimension dim="1">band</dimension>
    <dimension dim="2">kpoint</dimension>
    <dimension dim="3">spin</dimension>
    <field>eigene</field>
    <field>occ</field>
    <set>
     <set comment="spin 1">
      <set comment="kpoint 1">
       <r>   -7.0236    1.0000 </r>
       <r>   -3.3354    1.0000 </r>
       <r>   -3.3354    1.0000 </r>
       <r>   -2.9777    1.0000 </r>
       <r>   -2.9777    1.0000 </r>
       <r>   -2.9777    1.0000 </r>
       <r>    1.5228    1.0000 </r>
       <r>    1.6941    1.0000 </r>
       <r>    1.6941    1.0000 </r>
       <r>    1.6941    1.0000 </r>
       <r>    2.7328    1.0000 </r>
       <r>    2.7328    1.0000 </r>
       <r>    2.7328    1.0000 </r>
       <r>    5.6993    0.0000 </r>
       <r>    5.6993    0.0000 </r>
       <r>    5.6993    0.0000 </r>
       <r>    5.9124    0.0000 </r>
       <r>    5.9124    0.0000 </r>
       <r>    6.0187    0.0000 </r>
       <r>    6.1342    0.0000 </r>
       <r>    6.1342    0.0000 </r>
       <r>    6.1342    0.0000 </r>
       <r>    8.9851    0.0000 </r>
       <r>    8.9851    0.0000 </r>
       <r>    8.9851    0.0000 </r>
       <r>   10.6054    0.0000 </r>
       <r>   12.8959    0.0000 </r>
       <r>   12.8959    0.0000 </r>
       <r>   13.4658    0.0000 </r>
       <r>   14.6995    0.0000 </r>
       <r>   14.6995    0.0000 </r>
       <r>   14.6995    0.0000 </r>
       <r>   15.4257    0.0000 </r>
       <r>   15.4257    0.0000 </r>
       <r>   15.4257    0.0000 </r>
       <r>   15.4298    0.0000 </r>
       <r>   15.4298    0.0000 </r>
       <r>   15.4298    0.0000 </r>
       <r>   16.5503    0.0000 </r>
       <r>   16.5503    0.0000 </r>
       <r>   16.5503    0.0000 </r>
       <r>   17.0829    0.0000 </r>
       <r>   17.4600    0.0000 </r>
       <r>   17.4600    0.0000 </r>
       <r>   17.5361    0.0000 </r>
       <r>   17.5361    0.0000 </r>
       <r>   17.5361    0.0000 </r>
       <r>   18.5454    0.0000 </r>
       <r>   18.5454    0.0000 </r>
       <r>   18.5454    0.0000 </r>
       <r>   19.2303    0.0000 </r>
       <r>   19.4241    0.0000 </r>
       <r>   19.4241    0.0000 </r>
       <r>   20.3585    0.0000 </r>
       <r>   21.1296    0.0000 </r>
       <r>   21.1296    0.0000 </r>
       <r>   21.1296    0.0000 </r>
       <r>   23.5094    0.0000 </r>
       <r>   23.8027    0.0000 </r>
       <r>   23.8027    0.0000 </r>
       <r>   23.8027    0.0000 </r>
       <r>   24.6477    0.0000 </r>
       <r>   24.6477    0.0000 </r>
       <r>   24.6477    0.0000 </r>
       <r>   25.1278    0.0000 </r>
       <r>   25.1278    0.0000 </r>
       <r>   25.1278    0.0000 </r>
       <r>   25.2293    0.0000 </r>
       <r>   25.2293    0.0000 </r>
       <r>   25.2293    0.0000 </r>
       <r>   25.9500    0.0000 </r>
       <r>   25.9500    0.0000 </r>
       <r>   26.2119    0.0000 </r>
       <r>   26.2119    0.0000 </r>
       <r>   26.6146    0.0000 </r>
       <r>   26.6146    0.0000 </r>
       <r>   26.6146    0.0000 </r>
       <r>   27.4684    0.0000 </r>
       <r>   27.4684    0.0000 </r>
       <r>   27.4684    0.0000 </r>
       <r>   27.7011    0.0000 </r>
       <r>   28.1827    0.0000 </r>
       <r>   28.1827    0.0000 </r>
       <r>   28.1827    0.0000 </r>
       <r>   29.3180    0.0000 </r>
       <r>   29.3180    0.0000 </r>
       <r>   31.0262    0.0000 </r>
       <r>   31.5395    0.0000 </r>
       <r>   31.5395    0.0000 </r>
       <r>   31.5395    0.0000 </r>
       <r>   32.8797    0.0000 </r>
       <r>   32.8797    0.0000 </r>
       <r>   33.5350    0.0000 </r>
       <r>   33.5350    0.0000 </r>
       <r>   33.5350    0.0000 </r>
       <r>   33.6842    0.0000 </r>
       <r>   33.6842    0.0000 </r>
       <r>   33.6842    0.0000 </r>
       <r>   36.0151    0.0000 </r>
       <r>   36.0151    0.0000 </r>
       <r>   36.0151    0.0000 </r>
       <r>   37.1734    0.0000 </r>
       <r>   37.1734    0.0000 </r>
       <r>   37.1734    0.0000 </r>
       <r>   39.1198    0.0000 </r>
       <r>   39.1198    0.0000 </r>
       <r>   39.1591    0.0000 </r>
       <r>   39.1591    0.0000 </r>
       <r>   39.1591    0.0000 </r>
       <r>   39.1861    0.0000 </r>
       <r>   39.1861    0.0000 </r>
       <r>   39.1861    0.0000 </r>
       <r>   39.5080    0.0000 </r>
       <r>   40.5147    0.0000 </r>
       <r>   40.5147    0.0000 </r>
       <r>   40.5147    0.0000 </r>
       <r>   40.5455    0.0000 </r>
       <r>   40.9244    0.0000 </r>
       <r>   40.9244    0.0000 </r>
       <r>   40.9244    0.0000 </r>
       <r>   42.1855    0.0000 </r>
       <r>   42.1855    0.0000 </r>
       <r>   42.4512    0.0000 </r>
       <r>   42.4512    0.0000 </r>
       <r>   42.4512    0.0000 </r>
       <r>   42.6948    0.0000 </r>
       <r>   42.9370    0.0000 </r>
       <r>   43.1929    0.0000 </r>
       <r>   43.1929    0.0000 </r>
       <r>   43.1929    0.0000 </r>
       <r>   43.3260    0.0000 </r>
       <r>   43.3260    0.0000 </r>
       <r>   44.3438    0.0000 </r>
       <r>   44.3438    0.0000 </r>
       <r>   44.3438    0.0000 </r>
       <r>   45.0598    0.0000 </r>
       <r>   45.0623    0.0000 </r>
       <r>   45.3089    0.0000 </r>
       <r>   45.3089    0.0000 </r>
       <r>   45.3089    0.0000 </r>
       <r>   45.5221    0.0000 </r>
       <r>   45.5221    0.0000 </r>
       <r>   45.5221    0.0000 </r>
       <r>   46.2182    0.0000 </r>
      </set>
      <set comment="kpoint 2">
       <r>   -6.7864    1.0000 </r>
       <r>   -4.6646    1.0000 </r>
       <r>   -3.2733    1.0000 </r>
       <r>   -2.9130    1.0000 </r>
       <r>   -2.9130    1.0000 </r>
       <r>   -1.5578    1.0000 </r>
       <r>    1.2527    1.0000 </r>
       <r>    1.4258    1.0000 </r>
       <r>    1.4258    1.0000 </r>
       <r>    1.6732    1.0000 </r>
       <r>    2.1188    1.0000 </r>
       <r>    2.5823    1.0000 </r>
       <r>    2.5823    1.0000 </r>
       <r>    5.0330    0.0000 </r>
       <r>    5.4962    0.0000 </r>
       <r>    5.4962    0.0000 </r>
       <r>    5.8041    0.0000 </r>
       <r>    6.4186    0.0000 </r>
       <r>    6.9776    0.0000 </r>
       <r>    6.9776    0.0000 </r>
       <r>    7.0509    0.0000 </r>
       <r>    7.3309    0.0000 </r>
       <r>    8.6096    0.0000 </r>
       <r>    9.9269    0.0000 </r>
       <r>    9.9269    0.0000 </r>
       <r>   10.9051    0.0000 </r>
       <r>   12.1482    0.0000 </r>
       <r>   12.3746    0.0000 </r>
       <r>   12.3746    0.0000 </r>
       <r>   12.6022    0.0000 </r>
       <r>   13.1859    0.0000 </r>
       <r>   13.5915    0.0000 </r>
       <r>   14.5634    0.0000 </r>
       <r>   14.6021    0.0000 </r>
       <r>   14.6021    0.0000 </r>
       <r>   14.9061    0.0000 </r>
       <r>   15.8302    0.0000 </r>
       <r>   15.8302    0.0000 </r>
       <r>   16.0981    0.0000 </r>
       <r>   16.8234    0.0000 </r>
       <r>   16.9277    0.0000 </r>
       <r>   16.9277    0.0000 </r>
       <r>   17.1704    0.0000 </r>
       <r>   17.5006    0.0000 </r>
       <r>   17.9719    0.0000 </r>
       <r>   18.4336    0.0000 </r>
       <r>   18.4336    0.0000 </r>
       <r>   19.1784    0.0000 </r>
       <r>   19.1784    0.0000 </r>
       <r>   19.5010    0.0000 </r>
       <r>   19.8438    0.0000 </r>
       <r>   20.0989    0.0000 </r>
       <r>   20.9162    0.0000 </r>
       <r>   21.2242    0.0000 </r>
       <r>   21.5149    0.0000 </r>
       <r>   21.5149    0.0000 </r>
       <r>   21.6650    0.0000 </r>
       <r>   22.3180    0.0000 </r>
       <r>   22.4923    0.0000 </r>
       <r>   22.4923    0.0000 </r>
       <r>   23.0723    0.0000 </r>
       <r>   23.4885    0.0000 </r>
       <r>   23.4885    0.0000 </r>
       <r>   23.8742    0.0000 </r>
       <r>   24.2926    0.0000 </r>
       <r>   24.4855    0.0000 </r>
       <r>   24.6320    0.0000 </r>
       <r>   24.6320    0.0000 </r>
       <r>   25.2233    0.0000 </r>
       <r>   25.6599    0.0000 </r>
       <r>   25.6599    0.0000 </r>
       <r>   26.3469    0.0000 </r>
       <r>   26.9642    0.0000 </r>
       <r>   27.2939    0.0000 </r>
       <r>   27.2939    0.0000 </r>
       <r>   27.8421    0.0000 </r>
       <r>   27.9901    0.0000 </r>
       <r>   28.1833    0.0000 </r>
       <r>   28.5946    0.0000 </r>
       <r>   28.7437    0.0000 </r>
       <r>   28.7683    0.0000 </r>
       <r>   28.7683    0.0000 </r>
       <r>   29.4168    0.0000 </r>
       <r>   29.7189    0.0000 </r>
       <r>   29.7189    0.0000 </r>
       <r>   30.0978    0.0000 </r>
       <r>   30.5358    0.0000 </r>
       <r>   30.8814    0.0000 </r>
       <r>   31.3664    0.0000 </r>
       <r>   31.4930    0.0000 </r>
       <r>   31.4930    0.0000 </r>
       <r>   32.7414    0.0000 </r>
       <r>   32.7414    0.0000 </r>
       <r>   32.8443    0.0000 </r>
       <r>   34.1421    0.0000 </r>
       <r>   34.8520    0.0000 </r>
       <r>   34.8520    0.0000 </r>
       <r>   34.8943    0.0000 </r>
       <r>   35.2397    0.0000 </r>
       <r>   36.0060    0.0000 </r>
       <r>   36.0060    0.0000 </r>
       <r>   36.7084    0.0000 </r>
       <r>   36.7084    0.0000 </r>
       <r>   36.9144    0.0000 </r>
       <r>   36.9881    0.0000 </r>
       <r>   37.3075    0.0000 </r>
       <r>   37.4392    0.0000 </r>
       <r>   37.5384    0.0000 </r>
       <r>   37.5384    0.0000 </r>
       <r>   38.4109    0.0000 </r>
       <r>   38.4109    0.0000 </r>
       <r>   38.5603    0.0000 </r>
       <r>   38.6859    0.0000 </r>
       <r>   39.9943    0.0000 </r>
       <r>   40.0469    0.0000 </r>
       <r>   40.0469    0.0000 </r>
       <r>   40.6208    0.0000 </r>
       <r>   40.7144    0.0000 </r>
       <r>   40.7144    0.0000 </r>
       <r>   40.7452    0.0000 </r>
       <r>   41.0313    0.0000 </r>
       <r>   41.8360    0.0000 </r>
       <r>   42.0491    0.0000 </r>
       <r>   42.2719    0.0000 </r>
       <r>   42.4562    0.0000 </r>
       <r>   42.4562    0.0000 </r>
       <r>   42.8164    0.0000 </r>
       <r>   43.4323    0.0000 </r>
       <r>   43.4323    0.0000 </r>
       <r>   43.6839    0.0000 </r>
       <r>   44.4120    0.0000 </r>
       <r>   44.4700    0.0000 </r>
       <r>   44.6593    0.0000 </r>
       <r>   44.7154    0.0000 </r>
       <r>   44.7154    0.0000 </r>
       <r>   44.9209    0.0000 </r>
       <r>   45.0641    0.0000 </r>
       <r>   45.0641    0.0000 </r>
       <r>   45.1939    0.0000 </r>
       <r>   45.3903    0.0000 </r>
       <r>   45.7498    0.0000 </r>
       <r>   45.7499    0.0000 </r>
       <r>   46.2565    0.0000 </r>
       <r>   46.2566    0.0000 </r>
      </set>
      <set comment="kpoint 3">
       <r>   -6.3305    1.0000 </r>
       <r>   -5.5624    1.0000 </r>
       <r>   -3.2064    1.0000 </r>
       <r>   -2.8431    1.0000 </r>
       <r>   -2.8431    1.0000 </r>
       <r>   -0.4660    1.0000 </r>
       <r>    0.6819    1.0000 </r>
       <r>    0.8917    1.0000 </r>
       <r>    1.1216    1.0000 </r>
       <r>    1.1216    1.0000 </r>
       <r>    2.6078    1.0000 </r>
       <r>    2.6078    1.0000 </r>
       <r>    3.0238    1.0000 </r>
       <r>    3.7505    1.0000 </r>
       <r>    5.0667    0.0000 </r>
       <r>    5.0667    0.0000 </r>
       <r>    6.1640    0.0000 </r>
       <r>    6.5775    0.0000 </r>
       <r>    8.1200    0.0000 </r>
       <r>    9.1117    0.0000 </r>
       <r>    9.1117    0.0000 </r>
       <r>    9.2368    0.0000 </r>
       <r>    9.4151    0.0000 </r>
       <r>    9.7152    0.0000 </r>
       <r>    9.7324    0.0000 </r>
       <r>    9.7324    0.0000 </r>
       <r>   10.4972    0.0000 </r>
       <r>   10.6114    0.0000 </r>
       <r>   11.2648    0.0000 </r>
       <r>   11.2648    0.0000 </r>
       <r>   13.2300    0.0000 </r>
       <r>   13.2300    0.0000 </r>
       <r>   13.4770    0.0000 </r>
       <r>   14.2956    0.0000 </r>
       <r>   14.7539    0.0000 </r>
       <r>   14.8223    0.0000 </r>
       <r>   15.3408    0.0000 </r>
       <r>   15.8044    0.0000 </r>
       <r>   15.8044    0.0000 </r>
       <r>   16.4644    0.0000 </r>
       <r>   16.9603    0.0000 </r>
       <r>   17.5086    0.0000 </r>
       <r>   17.6392    0.0000 </r>
       <r>   17.6392    0.0000 </r>
       <r>   18.3202    0.0000 </r>
       <r>   18.3940    0.0000 </r>
       <r>   18.7771    0.0000 </r>
       <r>   18.7771    0.0000 </r>
       <r>   19.6394    0.0000 </r>
       <r>   19.7890    0.0000 </r>
       <r>   19.7890    0.0000 </r>
       <r>   20.6887    0.0000 </r>
       <r>   21.5856    0.0000 </r>
       <r>   21.5856    0.0000 </r>
       <r>   21.6180    0.0000 </r>
       <r>   21.7862    0.0000 </r>
       <r>   22.3472    0.0000 </r>
       <r>   22.3472    0.0000 </r>
       <r>   22.5537    0.0000 </r>
       <r>   22.5537    0.0000 </r>
       <r>   22.9834    0.0000 </r>
       <r>   23.0684    0.0000 </r>
       <r>   23.6272    0.0000 </r>
       <r>   23.6272    0.0000 </r>
       <r>   23.9628    0.0000 </r>
       <r>   24.0258    0.0000 </r>
       <r>   24.1653    0.0000 </r>
       <r>   24.8205    0.0000 </r>
       <r>   24.8284    0.0000 </r>
       <r>   25.6462    0.0000 </r>
       <r>   26.4386    0.0000 </r>
       <r>   26.4386    0.0000 </r>
       <r>   26.5862    0.0000 </r>
       <r>   26.7506    0.0000 </r>
       <r>   27.1521    0.0000 </r>
       <r>   27.1521    0.0000 </r>
       <r>   27.3597    0.0000 </r>
       <r>   27.4034    0.0000 </r>
       <r>   29.5524    0.0000 </r>
       <r>   29.6670    0.0000 </r>
       <r>   29.9957    0.0000 </r>
       <r>   29.9957    0.0000 </r>
       <r>   30.2718    0.0000 </r>
       <r>   31.4152    0.0000 </r>
       <r>   31.7019    0.0000 </r>
       <r>   31.7613    0.0000 </r>
       <r>   31.7613    0.0000 </r>
       <r>   32.0373    0.0000 </r>
       <r>   32.2744    0.0000 </r>
       <r>   32.5626    0.0000 </r>
       <r>   32.5626    0.0000 </r>
       <r>   32.6622    0.0000 </r>
       <r>   32.6622    0.0000 </r>
       <r>   32.6676    0.0000 </r>
       <r>   33.8986    0.0000 </r>
       <r>   34.0298    0.0000 </r>
       <r>   34.2304    0.0000 </r>
       <r>   34.2304    0.0000 </r>
       <r>   34.4406    0.0000 </r>
       <r>   34.6539    0.0000 </r>
       <r>   34.7402    0.0000 </r>
       <r>   34.7402    0.0000 </r>
       <r>   35.0216    0.0000 </r>
       <r>   35.5316    0.0000 </r>
       <r>   35.5316    0.0000 </r>
       <r>   35.8747    0.0000 </r>
       <r>   36.3907    0.0000 </r>
       <r>   36.3907    0.0000 </r>
       <r>   36.7150    0.0000 </r>
       <r>   38.0848    0.0000 </r>
       <r>   38.3023    0.0000 </r>
       <r>   38.3023    0.0000 </r>
       <r>   38.9579    0.0000 </r>
       <r>   39.8136    0.0000 </r>
       <r>   39.9846    0.0000 </r>
       <r>   40.3907    0.0000 </r>
       <r>   40.5774    0.0000 </r>
       <r>   40.5786    0.0000 </r>
       <r>   40.5786    0.0000 </r>
       <r>   41.4854    0.0000 </r>
       <r>   41.4854    0.0000 </r>
       <r>   41.5866    0.0000 </r>
       <r>   41.7547    0.0000 </r>
       <r>   42.0418    0.0000 </r>
       <r>   42.0418    0.0000 </r>
       <r>   42.2235    0.0000 </r>
       <r>   42.7490    0.0000 </r>
       <r>   42.7491    0.0000 </r>
       <r>   42.8967    0.0000 </r>
       <r>   42.9316    0.0000 </r>
       <r>   43.4109    0.0000 </r>
       <r>   43.4109    0.0000 </r>
       <r>   44.3215    0.0000 </r>
       <r>   44.7136    0.0000 </r>
       <r>   44.8669    0.0000 </r>
       <r>   44.8674    0.0000 </r>
       <r>   45.1703    0.0000 </r>
       <r>   45.2282    0.0000 </r>
       <r>   45.2298    0.0000 </r>
       <r>   45.5789    0.0000 </r>
       <r>   45.8215    0.0000 </r>
       <r>   45.8774    0.0000 </r>
       <r>   46.7214    0.0000 </r>
       <r>   47.0830    0.0000 </r>
      </set>
      <set comment="kpoint 4">
       <r>   -6.5516    1.0000 </r>
       <r>   -4.7365    1.0000 </r>
       <r>   -4.2634    1.0000 </r>
       <r>   -2.9706    1.0000 </r>
       <r>   -2.0647    1.0000 </r>
       <r>   -1.1907    1.0000 </r>
       <r>    0.4780    1.0000 </r>
       <r>    1.2951    1.0000 </r>
       <r>    1.4897    1.0000 </r>
       <r>    1.8226    1.0000 </r>
       <r>    1.8363    1.0000 </r>
       <r>    2.7712    1.0000 </r>
       <r>    2.8195    1.0000 </r>
       <r>    4.2422    0.5000 </r>
       <r>    4.9822    0.0000 </r>
       <r>    5.8531    0.0000 </r>
       <r>    6.2429    0.0000 </r>
       <r>    6.8311    0.0000 </r>
       <r>    7.1877    0.0000 </r>
       <r>    7.5181    0.0000 </r>
       <r>    7.5570    0.0000 </r>
       <r>    9.0140    0.0000 </r>
       <r>    9.5446    0.0000 </r>
       <r>    9.5936    0.0000 </r>
       <r>    9.7946    0.0000 </r>
       <r>   10.2435    0.0000 </r>
       <r>   11.5947    0.0000 </r>
       <r>   11.6131    0.0000 </r>
       <r>   12.2298    0.0000 </r>
       <r>   12.3316    0.0000 </r>
       <r>   12.6626    0.0000 </r>
       <r>   13.2304    0.0000 </r>
       <r>   13.2454    0.0000 </r>
       <r>   14.1682    0.0000 </r>
       <r>   14.4312    0.0000 </r>
       <r>   15.0214    0.0000 </r>
       <r>   15.1067    0.0000 </r>
       <r>   15.4363    0.0000 </r>
       <r>   15.9960    0.0000 </r>
       <r>   16.3710    0.0000 </r>
       <r>   16.5318    0.0000 </r>
       <r>   16.7548    0.0000 </r>
       <r>   17.7427    0.0000 </r>
       <r>   18.1741    0.0000 </r>
       <r>   18.6010    0.0000 </r>
       <r>   18.8569    0.0000 </r>
       <r>   18.8742    0.0000 </r>
       <r>   19.2717    0.0000 </r>
       <r>   19.5265    0.0000 </r>
       <r>   19.6260    0.0000 </r>
       <r>   19.9385    0.0000 </r>
       <r>   20.1013    0.0000 </r>
       <r>   20.3480    0.0000 </r>
       <r>   21.0913    0.0000 </r>
       <r>   21.3107    0.0000 </r>
       <r>   21.5829    0.0000 </r>
       <r>   21.7118    0.0000 </r>
       <r>   22.4481    0.0000 </r>
       <r>   22.5908    0.0000 </r>
       <r>   22.8055    0.0000 </r>
       <r>   22.9311    0.0000 </r>
       <r>   23.1886    0.0000 </r>
       <r>   23.4426    0.0000 </r>
       <r>   23.9379    0.0000 </r>
       <r>   24.4779    0.0000 </r>
       <r>   24.9141    0.0000 </r>
       <r>   25.1857    0.0000 </r>
       <r>   25.1946    0.0000 </r>
       <r>   25.9243    0.0000 </r>
       <r>   25.9363    0.0000 </r>
       <r>   26.4278    0.0000 </r>
       <r>   26.5023    0.0000 </r>
       <r>   26.6906    0.0000 </r>
       <r>   27.0610    0.0000 </r>
       <r>   27.2990    0.0000 </r>
       <r>   27.6005    0.0000 </r>
       <r>   27.6157    0.0000 </r>
       <r>   27.9334    0.0000 </r>
       <r>   28.4618    0.0000 </r>
       <r>   28.6798    0.0000 </r>
       <r>   28.8922    0.0000 </r>
       <r>   29.2577    0.0000 </r>
       <r>   29.4302    0.0000 </r>
       <r>   30.0463    0.0000 </r>
       <r>   30.4344    0.0000 </r>
       <r>   30.8255    0.0000 </r>
       <r>   31.0829    0.0000 </r>
       <r>   31.2128    0.0000 </r>
       <r>   32.2403    0.0000 </r>
       <r>   32.3187    0.0000 </r>
       <r>   32.6435    0.0000 </r>
       <r>   32.9940    0.0000 </r>
       <r>   33.1633    0.0000 </r>
       <r>   33.2207    0.0000 </r>
       <r>   33.6092    0.0000 </r>
       <r>   33.7339    0.0000 </r>
       <r>   34.5349    0.0000 </r>
       <r>   34.5985    0.0000 </r>
       <r>   34.7783    0.0000 </r>
       <r>   35.3633    0.0000 </r>
       <r>   35.5597    0.0000 </r>
       <r>   35.5687    0.0000 </r>
       <r>   36.1158    0.0000 </r>
       <r>   36.7076    0.0000 </r>
       <r>   36.8566    0.0000 </r>
       <r>   37.1796    0.0000 </r>
       <r>   37.4404    0.0000 </r>
       <r>   37.5774    0.0000 </r>
       <r>   37.8290    0.0000 </r>
       <r>   38.0365    0.0000 </r>
       <r>   38.2457    0.0000 </r>
       <r>   38.2610    0.0000 </r>
       <r>   38.7425    0.0000 </r>
       <r>   38.7429    0.0000 </r>
       <r>   39.2360    0.0000 </r>
       <r>   39.3154    0.0000 </r>
       <r>   39.6404    0.0000 </r>
       <r>   39.6962    0.0000 </r>
       <r>   40.1274    0.0000 </r>
       <r>   40.1919    0.0000 </r>
       <r>   40.7773    0.0000 </r>
       <r>   41.1156    0.0000 </r>
       <r>   41.3339    0.0000 </r>
       <r>   42.2493    0.0000 </r>
       <r>   42.3938    0.0000 </r>
       <r>   42.4362    0.0000 </r>
       <r>   42.6596    0.0000 </r>
       <r>   43.0852    0.0000 </r>
       <r>   43.1795    0.0000 </r>
       <r>   43.4441    0.0000 </r>
       <r>   43.5238    0.0000 </r>
       <r>   43.6174    0.0000 </r>
       <r>   44.2302    0.0000 </r>
       <r>   44.2714    0.0000 </r>
       <r>   44.6382    0.0000 </r>
       <r>   44.9900    0.0000 </r>
       <r>   44.9904    0.0000 </r>
       <r>   45.1460    0.0000 </r>
       <r>   45.1882    0.0000 </r>
       <r>   46.0974    0.0000 </r>
       <r>   46.1188    0.0000 </r>
       <r>   46.2485    0.0000 </r>
       <r>   46.5103    0.0000 </r>
       <r>   46.8626    0.0000 </r>
      </set>
      <set comment="kpoint 5">
       <r>   -6.0875    1.0000 </r>
       <r>   -5.4384    1.0000 </r>
       <r>   -4.2946    1.0000 </r>
       <r>   -3.0721    1.0000 </r>
       <r>   -1.8080    1.0000 </r>
       <r>   -0.6382    1.0000 </r>
       <r>    0.1930    1.0000 </r>
       <r>    0.5907    1.0000 </r>
       <r>    1.4876    1.0000 </r>
       <r>    1.6986    1.0000 </r>
       <r>    2.3806    1.0000 </r>
       <r>    2.4780    1.0000 </r>
       <r>    3.0141    1.0000 </r>
       <r>    3.8110    1.0000 </r>
       <r>    5.0490    0.0000 </r>
       <r>    5.1424    0.0000 </r>
       <r>    7.3029    0.0000 </r>
       <r>    7.7252    0.0000 </r>
       <r>    7.7496    0.0000 </r>
       <r>    7.8103    0.0000 </r>
       <r>    9.0330    0.0000 </r>
       <r>    9.3552    0.0000 </r>
       <r>    9.4281    0.0000 </r>
       <r>    9.8984    0.0000 </r>
       <r>    9.9722    0.0000 </r>
       <r>   10.1848    0.0000 </r>
       <r>   10.3972    0.0000 </r>
       <r>   10.8090    0.0000 </r>
       <r>   11.7280    0.0000 </r>
       <r>   11.9063    0.0000 </r>
       <r>   12.4641    0.0000 </r>
       <r>   12.5000    0.0000 </r>
       <r>   13.1640    0.0000 </r>
       <r>   13.1749    0.0000 </r>
       <r>   13.5156    0.0000 </r>
       <r>   14.2582    0.0000 </r>
       <r>   15.5402    0.0000 </r>
       <r>   15.6290    0.0000 </r>
       <r>   15.8441    0.0000 </r>
       <r>   16.4159    0.0000 </r>
       <r>   16.7688    0.0000 </r>
       <r>   17.0249    0.0000 </r>
       <r>   17.4255    0.0000 </r>
       <r>   17.8817    0.0000 </r>
       <r>   18.7943    0.0000 </r>
       <r>   18.9176    0.0000 </r>
       <r>   19.0667    0.0000 </r>
       <r>   19.3621    0.0000 </r>
       <r>   19.5792    0.0000 </r>
       <r>   19.8663    0.0000 </r>
       <r>   20.0786    0.0000 </r>
       <r>   20.3836    0.0000 </r>
       <r>   20.4146    0.0000 </r>
       <r>   20.6085    0.0000 </r>
       <r>   21.0892    0.0000 </r>
       <r>   21.4345    0.0000 </r>
       <r>   22.1860    0.0000 </r>
       <r>   22.3846    0.0000 </r>
       <r>   22.5484    0.0000 </r>
       <r>   22.9528    0.0000 </r>
       <r>   22.9807    0.0000 </r>
       <r>   23.7097    0.0000 </r>
       <r>   23.8537    0.0000 </r>
       <r>   23.8760    0.0000 </r>
       <r>   24.8238    0.0000 </r>
       <r>   24.9740    0.0000 </r>
       <r>   25.1163    0.0000 </r>
       <r>   25.6729    0.0000 </r>
       <r>   25.7598    0.0000 </r>
       <r>   26.0398    0.0000 </r>
       <r>   26.1518    0.0000 </r>
       <r>   26.7387    0.0000 </r>
       <r>   27.2715    0.0000 </r>
       <r>   27.2771    0.0000 </r>
       <r>   27.4027    0.0000 </r>
       <r>   27.6365    0.0000 </r>
       <r>   27.9901    0.0000 </r>
       <r>   28.3821    0.0000 </r>
       <r>   28.8608    0.0000 </r>
       <r>   29.1449    0.0000 </r>
       <r>   29.1812    0.0000 </r>
       <r>   29.7218    0.0000 </r>
       <r>   29.7654    0.0000 </r>
       <r>   30.4625    0.0000 </r>
       <r>   30.8780    0.0000 </r>
       <r>   31.2932    0.0000 </r>
       <r>   31.6797    0.0000 </r>
       <r>   31.6904    0.0000 </r>
       <r>   32.3352    0.0000 </r>
       <r>   32.4214    0.0000 </r>
       <r>   32.4807    0.0000 </r>
       <r>   32.9993    0.0000 </r>
       <r>   33.0125    0.0000 </r>
       <r>   33.1217    0.0000 </r>
       <r>   33.5710    0.0000 </r>
       <r>   33.9585    0.0000 </r>
       <r>   34.0184    0.0000 </r>
       <r>   34.4051    0.0000 </r>
       <r>   34.7019    0.0000 </r>
       <r>   34.9261    0.0000 </r>
       <r>   35.0540    0.0000 </r>
       <r>   35.1464    0.0000 </r>
       <r>   35.6741    0.0000 </r>
       <r>   36.1855    0.0000 </r>
       <r>   36.2996    0.0000 </r>
       <r>   36.3860    0.0000 </r>
       <r>   36.5217    0.0000 </r>
       <r>   36.9131    0.0000 </r>
       <r>   37.3097    0.0000 </r>
       <r>   37.4553    0.0000 </r>
       <r>   37.7810    0.0000 </r>
       <r>   38.2641    0.0000 </r>
       <r>   38.3972    0.0000 </r>
       <r>   38.6576    0.0000 </r>
       <r>   39.0283    0.0000 </r>
       <r>   39.2504    0.0000 </r>
       <r>   39.3805    0.0000 </r>
       <r>   39.5278    0.0000 </r>
       <r>   40.3561    0.0000 </r>
       <r>   40.3859    0.0000 </r>
       <r>   40.4910    0.0000 </r>
       <r>   40.8191    0.0000 </r>
       <r>   40.9886    0.0000 </r>
       <r>   41.7291    0.0000 </r>
       <r>   41.7916    0.0000 </r>
       <r>   42.0669    0.0000 </r>
       <r>   42.1132    0.0000 </r>
       <r>   42.8596    0.0000 </r>
       <r>   42.9187    0.0000 </r>
       <r>   43.2217    0.0000 </r>
       <r>   43.3545    0.0000 </r>
       <r>   43.5247    0.0000 </r>
       <r>   44.0234    0.0000 </r>
       <r>   44.0438    0.0000 </r>
       <r>   44.3983    0.0000 </r>
       <r>   44.8977    0.0000 </r>
       <r>   45.1658    0.0000 </r>
       <r>   45.2421    0.0000 </r>
       <r>   45.5482    0.0000 </r>
       <r>   45.7222    0.0000 </r>
       <r>   45.7739    0.0000 </r>
       <r>   46.1757    0.0000 </r>
       <r>   46.3755    0.0000 </r>
       <r>   46.5285    0.0000 </r>
      </set>
      <set comment="kpoint 6">
       <r>   -5.4642    1.0000 </r>
       <r>   -5.2862    1.0000 </r>
       <r>   -5.2862    1.0000 </r>
       <r>   -3.3501    1.0000 </r>
       <r>   -0.7654    1.0000 </r>
       <r>   -0.6380    1.0000 </r>
       <r>   -0.6380    1.0000 </r>
       <r>    0.5206    1.0000 </r>
       <r>    1.3238    1.0000 </r>
       <r>    1.3238    1.0000 </r>
       <r>    2.7067    1.0000 </r>
       <r>    2.9619    1.0000 </r>
       <r>    3.3097    1.0000 </r>
       <r>    3.4691    1.0000 </r>
       <r>    5.4952    0.0000 </r>
       <r>    5.4952    0.0000 </r>
       <r>    6.9838    0.0000 </r>
       <r>    6.9838    0.0000 </r>
       <r>    8.6232    0.0000 </r>
       <r>    8.7853    0.0000 </r>
       <r>    9.3789    0.0000 </r>
       <r>    9.5423    0.0000 </r>
       <r>    9.7075    0.0000 </r>
       <r>    9.7075    0.0000 </r>
       <r>    9.9996    0.0000 </r>
       <r>   10.3004    0.0000 </r>
       <r>   10.3004    0.0000 </r>
       <r>   10.3326    0.0000 </r>
       <r>   11.2035    0.0000 </r>
       <r>   11.9185    0.0000 </r>
       <r>   11.9185    0.0000 </r>
       <r>   12.9668    0.0000 </r>
       <r>   12.9668    0.0000 </r>
       <r>   13.1134    0.0000 </r>
       <r>   13.1942    0.0000 </r>
       <r>   13.2549    0.0000 </r>
       <r>   14.4851    0.0000 </r>
       <r>   15.6053    0.0000 </r>
       <r>   15.6053    0.0000 </r>
       <r>   15.7057    0.0000 </r>
       <r>   17.0569    0.0000 </r>
       <r>   17.7449    0.0000 </r>
       <r>   17.7449    0.0000 </r>
       <r>   17.8313    0.0000 </r>
       <r>   18.3965    0.0000 </r>
       <r>   18.3965    0.0000 </r>
       <r>   18.5779    0.0000 </r>
       <r>   19.1951    0.0000 </r>
       <r>   19.3236    0.0000 </r>
       <r>   19.3236    0.0000 </r>
       <r>   19.6537    0.0000 </r>
       <r>   20.8976    0.0000 </r>
       <r>   21.6594    0.0000 </r>
       <r>   21.6594    0.0000 </r>
       <r>   21.6768    0.0000 </r>
       <r>   21.8776    0.0000 </r>
       <r>   22.1161    0.0000 </r>
       <r>   22.1753    0.0000 </r>
       <r>   22.1753    0.0000 </r>
       <r>   22.2582    0.0000 </r>
       <r>   23.2310    0.0000 </r>
       <r>   23.5434    0.0000 </r>
       <r>   23.5582    0.0000 </r>
       <r>   23.5582    0.0000 </r>
       <r>   24.8007    0.0000 </r>
       <r>   25.4290    0.0000 </r>
       <r>   26.0678    0.0000 </r>
       <r>   26.0678    0.0000 </r>
       <r>   26.4219    0.0000 </r>
       <r>   26.4219    0.0000 </r>
       <r>   26.6223    0.0000 </r>
       <r>   27.1777    0.0000 </r>
       <r>   27.3116    0.0000 </r>
       <r>   27.3116    0.0000 </r>
       <r>   27.7619    0.0000 </r>
       <r>   28.0336    0.0000 </r>
       <r>   29.0708    0.0000 </r>
       <r>   29.4608    0.0000 </r>
       <r>   29.4608    0.0000 </r>
       <r>   29.7775    0.0000 </r>
       <r>   29.9069    0.0000 </r>
       <r>   29.9069    0.0000 </r>
       <r>   30.2052    0.0000 </r>
       <r>   30.7050    0.0000 </r>
       <r>   31.1949    0.0000 </r>
       <r>   31.2235    0.0000 </r>
       <r>   31.5904    0.0000 </r>
       <r>   31.5904    0.0000 </r>
       <r>   31.9679    0.0000 </r>
       <r>   32.0486    0.0000 </r>
       <r>   32.1013    0.0000 </r>
       <r>   32.1013    0.0000 </r>
       <r>   32.7292    0.0000 </r>
       <r>   32.7387    0.0000 </r>
       <r>   32.7387    0.0000 </r>
       <r>   32.9524    0.0000 </r>
       <r>   32.9524    0.0000 </r>
       <r>   33.6767    0.0000 </r>
       <r>   33.7877    0.0000 </r>
       <r>   33.7988    0.0000 </r>
       <r>   34.5917    0.0000 </r>
       <r>   34.7313    0.0000 </r>
       <r>   35.7032    0.0000 </r>
       <r>   35.9319    0.0000 </r>
       <r>   35.9319    0.0000 </r>
       <r>   36.0519    0.0000 </r>
       <r>   36.5841    0.0000 </r>
       <r>   36.5841    0.0000 </r>
       <r>   37.6542    0.0000 </r>
       <r>   37.6542    0.0000 </r>
       <r>   37.7361    0.0000 </r>
       <r>   38.9433    0.0000 </r>
       <r>   38.9433    0.0000 </r>
       <r>   39.0403    0.0000 </r>
       <r>   39.4282    0.0000 </r>
       <r>   40.3406    0.0000 </r>
       <r>   40.4602    0.0000 </r>
       <r>   40.7981    0.0000 </r>
       <r>   40.7981    0.0000 </r>
       <r>   40.8621    0.0000 </r>
       <r>   40.9892    0.0000 </r>
       <r>   41.3143    0.0000 </r>
       <r>   41.4037    0.0000 </r>
       <r>   41.8859    0.0000 </r>
       <r>   41.8859    0.0000 </r>
       <r>   42.0141    0.0000 </r>
       <r>   42.2149    0.0000 </r>
       <r>   42.5667    0.0000 </r>
       <r>   42.8049    0.0000 </r>
       <r>   42.8049    0.0000 </r>
       <r>   43.0569    0.0000 </r>
       <r>   43.0569    0.0000 </r>
       <r>   43.0848    0.0000 </r>
       <r>   43.3087    0.0000 </r>
       <r>   43.3087    0.0000 </r>
       <r>   43.5488    0.0000 </r>
       <r>   43.7879    0.0000 </r>
       <r>   44.1196    0.0000 </r>
       <r>   44.1196    0.0000 </r>
       <r>   44.3403    0.0000 </r>
       <r>   44.5693    0.0000 </r>
       <r>   44.5693    0.0000 </r>
       <r>   44.9424    0.0000 </r>
       <r>   45.5746    0.0000 </r>
      </set>
      <set comment="kpoint 7">
       <r>   -6.3234    1.0000 </r>
       <r>   -4.6442    1.0000 </r>
       <r>   -4.6442    1.0000 </r>
       <r>   -3.3110    1.0000 </r>
       <r>   -1.4861    1.0000 </r>
       <r>   -1.4861    1.0000 </r>
       <r>    0.0459    1.0000 </r>
       <r>    1.1486    1.0000 </r>
       <r>    1.1486    1.0000 </r>
       <r>    2.3315    1.0000 </r>
       <r>    2.3912    1.0000 </r>
       <r>    2.9367    1.0000 </r>
       <r>    2.9367    1.0000 </r>
       <r>    3.8490    1.0000 </r>
       <r>    5.6527    0.0000 </r>
       <r>    5.6527    0.0000 </r>
       <r>    6.2652    0.0000 </r>
       <r>    6.5916    0.0000 </r>
       <r>    6.5916    0.0000 </r>
       <r>    8.8047    0.0000 </r>
       <r>    8.8047    0.0000 </r>
       <r>    8.8948    0.0000 </r>
       <r>    9.8459    0.0000 </r>
       <r>    9.9417    0.0000 </r>
       <r>    9.9417    0.0000 </r>
       <r>   10.3334    0.0000 </r>
       <r>   10.3334    0.0000 </r>
       <r>   10.3903    0.0000 </r>
       <r>   11.8540    0.0000 </r>
       <r>   11.8540    0.0000 </r>
       <r>   12.7549    0.0000 </r>
       <r>   13.2782    0.0000 </r>
       <r>   13.2782    0.0000 </r>
       <r>   14.0406    0.0000 </r>
       <r>   14.2338    0.0000 </r>
       <r>   15.2405    0.0000 </r>
       <r>   15.4713    0.0000 </r>
       <r>   15.4713    0.0000 </r>
       <r>   15.8409    0.0000 </r>
       <r>   15.8409    0.0000 </r>
       <r>   16.0004    0.0000 </r>
       <r>   17.2567    0.0000 </r>
       <r>   17.3622    0.0000 </r>
       <r>   17.5542    0.0000 </r>
       <r>   17.5542    0.0000 </r>
       <r>   17.9414    0.0000 </r>
       <r>   18.9923    0.0000 </r>
       <r>   18.9923    0.0000 </r>
       <r>   19.4854    0.0000 </r>
       <r>   19.4854    0.0000 </r>
       <r>   19.6525    0.0000 </r>
       <r>   20.3853    0.0000 </r>
       <r>   20.3853    0.0000 </r>
       <r>   22.1779    0.0000 </r>
       <r>   22.1779    0.0000 </r>
       <r>   22.4596    0.0000 </r>
       <r>   22.5106    0.0000 </r>
       <r>   22.7233    0.0000 </r>
       <r>   22.7233    0.0000 </r>
       <r>   23.2114    0.0000 </r>
       <r>   23.4664    0.0000 </r>
       <r>   23.4664    0.0000 </r>
       <r>   23.9087    0.0000 </r>
       <r>   24.0283    0.0000 </r>
       <r>   24.0283    0.0000 </r>
       <r>   24.4680    0.0000 </r>
       <r>   24.7644    0.0000 </r>
       <r>   25.0182    0.0000 </r>
       <r>   25.0182    0.0000 </r>
       <r>   26.2991    0.0000 </r>
       <r>   26.2991    0.0000 </r>
       <r>   26.3671    0.0000 </r>
       <r>   26.7433    0.0000 </r>
       <r>   26.9735    0.0000 </r>
       <r>   26.9735    0.0000 </r>
       <r>   27.6915    0.0000 </r>
       <r>   27.6915    0.0000 </r>
       <r>   29.2111    0.0000 </r>
       <r>   29.2244    0.0000 </r>
       <r>   29.2244    0.0000 </r>
       <r>   29.9487    0.0000 </r>
       <r>   29.9487    0.0000 </r>
       <r>   30.0027    0.0000 </r>
       <r>   30.0975    0.0000 </r>
       <r>   30.5654    0.0000 </r>
       <r>   30.5654    0.0000 </r>
       <r>   31.6355    0.0000 </r>
       <r>   32.2992    0.0000 </r>
       <r>   32.2992    0.0000 </r>
       <r>   32.6127    0.0000 </r>
       <r>   32.8515    0.0000 </r>
       <r>   32.8515    0.0000 </r>
       <r>   33.6072    0.0000 </r>
       <r>   33.6072    0.0000 </r>
       <r>   33.7637    0.0000 </r>
       <r>   33.7846    0.0000 </r>
       <r>   34.1997    0.0000 </r>
       <r>   34.5392    0.0000 </r>
       <r>   34.5932    0.0000 </r>
       <r>   34.5932    0.0000 </r>
       <r>   34.9366    0.0000 </r>
       <r>   34.9366    0.0000 </r>
       <r>   36.0590    0.0000 </r>
       <r>   36.0590    0.0000 </r>
       <r>   36.3025    0.0000 </r>
       <r>   36.3960    0.0000 </r>
       <r>   36.4200    0.0000 </r>
       <r>   36.4200    0.0000 </r>
       <r>   37.3079    0.0000 </r>
       <r>   37.3931    0.0000 </r>
       <r>   37.3931    0.0000 </r>
       <r>   38.1398    0.0000 </r>
       <r>   38.1398    0.0000 </r>
       <r>   38.9458    0.0000 </r>
       <r>   39.2419    0.0000 </r>
       <r>   39.2419    0.0000 </r>
       <r>   39.3615    0.0000 </r>
       <r>   40.2093    0.0000 </r>
       <r>   40.2093    0.0000 </r>
       <r>   40.7966    0.0000 </r>
       <r>   40.7966    0.0000 </r>
       <r>   41.2256    0.0000 </r>
       <r>   41.4178    0.0000 </r>
       <r>   41.4178    0.0000 </r>
       <r>   41.5683    0.0000 </r>
       <r>   41.7491    0.0000 </r>
       <r>   41.8347    0.0000 </r>
       <r>   41.8347    0.0000 </r>
       <r>   42.9522    0.0000 </r>
       <r>   42.9522    0.0000 </r>
       <r>   42.9548    0.0000 </r>
       <r>   43.4560    0.0000 </r>
       <r>   43.6090    0.0000 </r>
       <r>   43.6090    0.0000 </r>
       <r>   44.1262    0.0000 </r>
       <r>   44.7487    0.0000 </r>
       <r>   44.7487    0.0000 </r>
       <r>   44.9436    0.0000 </r>
       <r>   45.3118    0.0000 </r>
       <r>   45.7675    0.0000 </r>
       <r>   45.7675    0.0000 </r>
       <r>   46.9316    0.0000 </r>
       <r>   46.9322    0.0000 </r>
       <r>   47.0180    0.0000 </r>
      </set>
      <set comment="kpoint 8">
       <r>   -5.8634    1.0000 </r>
       <r>   -5.3256    1.0000 </r>
       <r>   -4.5392    1.0000 </r>
       <r>   -3.3109    1.0000 </r>
       <r>   -1.7830    1.0000 </r>
       <r>   -1.1494    1.0000 </r>
       <r>   -0.5185    1.0000 </r>
       <r>    1.1246    1.0000 </r>
       <r>    2.0289    1.0000 </r>
       <r>    2.1785    1.0000 </r>
       <r>    2.3994    1.0000 </r>
       <r>    2.5151    1.0000 </r>
       <r>    2.8911    1.0000 </r>
       <r>    4.5572    0.0000 </r>
       <r>    5.0883    0.0000 </r>
       <r>    5.5024    0.0000 </r>
       <r>    6.9010    0.0000 </r>
       <r>    7.6470    0.0000 </r>
       <r>    7.8405    0.0000 </r>
       <r>    7.9530    0.0000 </r>
       <r>    8.0253    0.0000 </r>
       <r>    8.7157    0.0000 </r>
       <r>    9.7193    0.0000 </r>
       <r>    9.7991    0.0000 </r>
       <r>   10.1123    0.0000 </r>
       <r>   10.2391    0.0000 </r>
       <r>   10.4742    0.0000 </r>
       <r>   10.8697    0.0000 </r>
       <r>   11.9852    0.0000 </r>
       <r>   12.0461    0.0000 </r>
       <r>   12.4349    0.0000 </r>
       <r>   12.7737    0.0000 </r>
       <r>   12.8136    0.0000 </r>
       <r>   13.3994    0.0000 </r>
       <r>   14.1987    0.0000 </r>
       <r>   14.9136    0.0000 </r>
       <r>   15.2048    0.0000 </r>
       <r>   15.2668    0.0000 </r>
       <r>   15.4417    0.0000 </r>
       <r>   15.9057    0.0000 </r>
       <r>   16.0213    0.0000 </r>
       <r>   16.7042    0.0000 </r>
       <r>   16.9514    0.0000 </r>
       <r>   17.1915    0.0000 </r>
       <r>   18.3697    0.0000 </r>
       <r>   18.7061    0.0000 </r>
       <r>   18.7916    0.0000 </r>
       <r>   18.9604    0.0000 </r>
       <r>   19.0118    0.0000 </r>
       <r>   19.0688    0.0000 </r>
       <r>   20.4357    0.0000 </r>
       <r>   20.6461    0.0000 </r>
       <r>   20.8223    0.0000 </r>
       <r>   20.9571    0.0000 </r>
       <r>   21.4613    0.0000 </r>
       <r>   22.2609    0.0000 </r>
       <r>   22.3304    0.0000 </r>
       <r>   22.6967    0.0000 </r>
       <r>   22.9228    0.0000 </r>
       <r>   23.2035    0.0000 </r>
       <r>   23.4505    0.0000 </r>
       <r>   23.6195    0.0000 </r>
       <r>   23.9854    0.0000 </r>
       <r>   24.2865    0.0000 </r>
       <r>   24.3855    0.0000 </r>
       <r>   24.9072    0.0000 </r>
       <r>   25.1671    0.0000 </r>
       <r>   25.9609    0.0000 </r>
       <r>   26.1259    0.0000 </r>
       <r>   26.3197    0.0000 </r>
       <r>   26.6355    0.0000 </r>
       <r>   26.7281    0.0000 </r>
       <r>   27.0306    0.0000 </r>
       <r>   27.5525    0.0000 </r>
       <r>   28.0703    0.0000 </r>
       <r>   28.1445    0.0000 </r>
       <r>   28.3749    0.0000 </r>
       <r>   28.8146    0.0000 </r>
       <r>   29.5651    0.0000 </r>
       <r>   29.6217    0.0000 </r>
       <r>   29.7278    0.0000 </r>
       <r>   30.0756    0.0000 </r>
       <r>   30.4237    0.0000 </r>
       <r>   30.4466    0.0000 </r>
       <r>   30.6311    0.0000 </r>
       <r>   31.0929    0.0000 </r>
       <r>   31.2001    0.0000 </r>
       <r>   31.2905    0.0000 </r>
       <r>   31.9400    0.0000 </r>
       <r>   32.0156    0.0000 </r>
       <r>   32.3176    0.0000 </r>
       <r>   32.5389    0.0000 </r>
       <r>   32.8883    0.0000 </r>
       <r>   33.4002    0.0000 </r>
       <r>   34.0965    0.0000 </r>
       <r>   34.3523    0.0000 </r>
       <r>   34.4600    0.0000 </r>
       <r>   34.7615    0.0000 </r>
       <r>   34.8659    0.0000 </r>
       <r>   35.1004    0.0000 </r>
       <r>   35.1571    0.0000 </r>
       <r>   35.3490    0.0000 </r>
       <r>   35.5910    0.0000 </r>
       <r>   35.8157    0.0000 </r>
       <r>   36.1293    0.0000 </r>
       <r>   36.2796    0.0000 </r>
       <r>   36.4541    0.0000 </r>
       <r>   36.8613    0.0000 </r>
       <r>   36.9390    0.0000 </r>
       <r>   37.0375    0.0000 </r>
       <r>   37.2680    0.0000 </r>
       <r>   37.4650    0.0000 </r>
       <r>   37.5654    0.0000 </r>
       <r>   37.6271    0.0000 </r>
       <r>   38.0598    0.0000 </r>
       <r>   38.4961    0.0000 </r>
       <r>   39.1181    0.0000 </r>
       <r>   39.6412    0.0000 </r>
       <r>   39.7569    0.0000 </r>
       <r>   40.0420    0.0000 </r>
       <r>   40.1290    0.0000 </r>
       <r>   40.5815    0.0000 </r>
       <r>   41.0944    0.0000 </r>
       <r>   41.4634    0.0000 </r>
       <r>   41.4752    0.0000 </r>
       <r>   41.6082    0.0000 </r>
       <r>   41.7091    0.0000 </r>
       <r>   42.2710    0.0000 </r>
       <r>   42.3169    0.0000 </r>
       <r>   42.7784    0.0000 </r>
       <r>   43.2655    0.0000 </r>
       <r>   43.3118    0.0000 </r>
       <r>   43.6571    0.0000 </r>
       <r>   43.7512    0.0000 </r>
       <r>   44.0977    0.0000 </r>
       <r>   44.3836    0.0000 </r>
       <r>   44.8919    0.0000 </r>
       <r>   45.0650    0.0000 </r>
       <r>   45.4763    0.0000 </r>
       <r>   45.7486    0.0000 </r>
       <r>   45.9910    0.0000 </r>
       <r>   46.3666    0.0000 </r>
       <r>   47.0884    0.0000 </r>
       <r>   47.1084    0.0000 </r>
      </set>
      <set comment="kpoint 9">
       <r>   -5.3026    1.0000 </r>
       <r>   -5.1909    1.0000 </r>
       <r>   -5.1909    1.0000 </r>
       <r>   -3.4693    1.0000 </r>
       <r>   -1.5381    1.0000 </r>
       <r>   -1.3591    1.0000 </r>
       <r>   -1.3591    1.0000 </r>
       <r>    1.5245    1.0000 </r>
       <r>    1.9380    1.0000 </r>
       <r>    2.3639    1.0000 </r>
       <r>    2.3639    1.0000 </r>
       <r>    3.0346    1.0000 </r>
       <r>    3.3203    1.0000 </r>
       <r>    4.9195    0.0000 </r>
       <r>    5.6461    0.0000 </r>
       <r>    5.6461    0.0000 </r>
       <r>    6.9059    0.0000 </r>
       <r>    6.9059    0.0000 </r>
       <r>    7.5893    0.0000 </r>
       <r>    8.2547    0.0000 </r>
       <r>    8.2547    0.0000 </r>
       <r>    8.3495    0.0000 </r>
       <r>    8.8703    0.0000 </r>
       <r>    9.4041    0.0000 </r>
       <r>    9.4560    0.0000 </r>
       <r>   10.5299    0.0000 </r>
       <r>   10.5299    0.0000 </r>
       <r>   11.0482    0.0000 </r>
       <r>   12.4993    0.0000 </r>
       <r>   12.6098    0.0000 </r>
       <r>   12.6235    0.0000 </r>
[...]
        <r>  0.0013  0.0001  0.0000  0.0001  0.0000  0.0000  0.0000  0.0000  0.0000 </r>
       </set>
       <set comment="band 117">
        <r>  0.0000  0.0014  0.0005  0.0008  0.0000  0.0000  0.0000  0.0000  0.0000 </r>
        <r>  0.0000  0.0090  0.0000  0.0102  0.0000  0.0000  0.0000  0.0000  0.0000 </r>
        <r>  0.0000  0.0008  0.0032  0.0008  0.0000  0.0000  0.0000  0.0000  0.0000 </r>
        <r>  0.0000  0.0000  0.0090  0.0027  0.0000  0.0000  0.0000  0.0000  0.0000 </r>
        <r>  0.0000  0.0014  0.0032  0.0017  0.0000  0.0000  0.0000  0.0000  0.0000 </r>
        <r>  0.0000  0.0027  0.0102  0.0000  0.0000  0.0000  0.0000  0.0000  0.0000 </r>
        <r>  0.0000  0.0008  0.0005  0.0017  0.0000  0.0000  0.0000  0.0000  0.0000 </r>
       </set>
       <set comment="band 118">
        <r>  0.0000  0.0014  0.0034  0.0008  0.0000  0.0000  0.0000  0.0000  0.0000 </r>
        <r>  0.0000  0.0112  0.0000  0.0105  0.0000  0.0000  0.0000  0.0000  0.0000 </r>
        <r>  0.0000  0.0008  0.0007  0.0008  0.0000  0.0000  0.0000  0.0000  0.0000 </r>
        <r>  0.0000  0.0000  0.0112  0.0003  0.0000  0.0000  0.0000  0.0000  0.0000 </r>
        <r>  0.0000  0.0014  0.0007  0.0012  0.0000  0.0000  0.0000  0.0000  0.0000 </r>
        <r>  0.0000  0.0003  0.0105  0.0000  0.0000  0.0000  0.0000  0.0000  0.0000 </r>
        <r>  0.0000  0.0008  0.0034  0.0012  0.0000  0.0000  0.0000  0.0000  0.0000 </r>
       </set>
       <set comment="band 119">
        <r>  0.0000  0.0014  0.0002  0.0026  0.0000  0.0000  0.0000  0.0000  0.0000 </r>
        <r>  0.0000  0.0018  0.0000  0.0012  0.0000  0.0000  0.0000  0.0000  0.0000 </r>
        <r>  0.0000  0.0026  0.0003  0.0026  0.0000  0.0000  0.0000  0.0000  0.0000 </r>
        <r>  0.0000  0.0000  0.0018  0.0190  0.0000  0.0000  0.0000  0.0000  0.0000 </r>
        <r>  0.0000  0.0014  0.0003  0.0013  0.0000  0.0000  0.0000  0.0000  0.0000 </r>
        <r>  0.0000  0.0190  0.0012  0.0000  0.0000  0.0000  0.0000  0.0000  0.0000 </r>
        <r>  0.0000  0.0026  0.0002  0.0013  0.0000  0.0000  0.0000  0.0000  0.0000 </r>
       </set>
       <set comment="band 120">
        <r>  0.0165  0.0000  0.0000  0.0000  0.0000  0.0000  0.0000  0.0000  0.0000 </r>
        <r>  0.0000  0.0000  0.0001  0.0000  0.0000  0.0000  0.0000  0.0000  0.0000 </r>
        <r>  0.0165  0.0000  0.0000  0.0000  0.0000  0.0000  0.0000  0.0000  0.0000 </r>
        <r>  0.0000  0.0001  0.0000  0.0000  0.0000  0.0000  0.0000  0.0000  0.0000 </r>
        <r>  0.0165  0.0000  0.0000  0.0000  0.0000  0.0000  0.0000  0.0000  0.0000 </r>
        <r>  0.0000  0.0000  0.0000  0.0001  0.0000  0.0000  0.0000  0.0000  0.0000 </r>
        <r>  0.0165  0.0000  0.0000  0.0000  0.0000  0.0000  0.0000  0.0000  0.0000 </r>
       </set>
       <set comment="band 121">
        <r>  0.0210  0.0016  0.0011  0.0028  0.0000  0.0000  0.0000  0.0000  0.0000 </r>
        <r>  0.0047  0.0004  0.0000  0.0029  0.0000  0.0000  0.0000  0.0000  0.0000 </r>
        <r>  0.0251  0.0021  0.0013  0.0030  0.0000  0.0000  0.0000  0.0000  0.0000 </r>
        <r>  0.0015  0.0000  0.0004  0.0089  0.0000  0.0000  0.0000  0.0000  0.0000 </r>
        <r>  0.0014  0.0006  0.0000  0.0002  0.0000  0.0000  0.0000  0.0000  0.0000 </r>
        <r>  0.0002  0.0089  0.0029  0.0000  0.0000  0.0000  0.0000  0.0000  0.0000 </r>
        <r>  0.0045  0.0010  0.0002  0.0004  0.0000  0.0000  0.0000  0.0000  0.0000 </r>
       </set>
       <set comment="band 122">
        <r>  0.0171  0.0019  0.0021  0.0006  0.0000  0.0000  0.0000  0.0000  0.0000 </r>
        <r>  0.0004  0.0109  0.0000  0.0004  0.0000  0.0000  0.0000  0.0000  0.0000 </r>
        <r>  0.0078  0.0013  0.0010  0.0001  0.0000  0.0000  0.0000  0.0000  0.0000 </r>
        <r>  0.0002  0.0000  0.0109  0.0008  0.0000  0.0000  0.0000  0.0000  0.0000 </r>
        <r>  0.0101  0.0015  0.0011  0.0003  0.0000  0.0000  0.0000  0.0000  0.0000 </r>
        <r>  0.0058  0.0008  0.0004  0.0000  0.0000  0.0000  0.0000  0.0000  0.0000 </r>
        <r>  0.0170  0.0018  0.0021  0.0007  0.0000  0.0000  0.0000  0.0000  0.0000 </r>
       </set>
       <set comment="band 123">
        <r>  0.0008  0.0001  0.0004  0.0002  0.0000  0.0000  0.0000  0.0000  0.0000 </r>
        <r>  0.0013  0.0009  0.0000  0.0088  0.0000  0.0000  0.0000  0.0000  0.0000 </r>
        <r>  0.0061  0.0002  0.0013  0.0005  0.0000  0.0000  0.0000  0.0000  0.0000 </r>
        <r>  0.0046  0.0000  0.0009  0.0025  0.0000  0.0000  0.0000  0.0000  0.0000 </r>
        <r>  0.0276  0.0015  0.0024  0.0030  0.0000  0.0000  0.0000  0.0000  0.0000 </r>
        <r>  0.0005  0.0025  0.0088  0.0000  0.0000  0.0000  0.0000  0.0000  0.0000 </r>
        <r>  0.0174  0.0008  0.0013  0.0025  0.0000  0.0000  0.0000  0.0000  0.0000 </r>
       </set>
       <set comment="band 124">
        <r>  0.0000  0.0042  0.0031  0.0048  0.0000  0.0000  0.0000  0.0000  0.0000 </r>
        <r>  0.0000  0.0000  0.0031  0.0000  0.0000  0.0000  0.0000  0.0000  0.0000 </r>
        <r>  0.0000  0.0042  0.0031  0.0048  0.0000  0.0000  0.0000  0.0000  0.0000 </r>
        <r>  0.0000  0.0041  0.0000  0.0000  0.0000  0.0000  0.0000  0.0000  0.0000 </r>
        <r>  0.0000  0.0042  0.0031  0.0048  0.0000  0.0000  0.0000  0.0000  0.0000 </r>
        <r>  0.0000  0.0000  0.0000  0.0047  0.0000  0.0000  0.0000  0.0000  0.0000 </r>
        <r>  0.0000  0.0042  0.0031  0.0048  0.0000  0.0000  0.0000  0.0000  0.0000 </r>
       </set>
       <set comment="band 125">
        <r>  0.0000  0.0039  0.0050  0.0033  0.0000  0.0000  0.0000  0.0000  0.0000 </r>
        <r>  0.0000  0.0000  0.0049  0.0000  0.0000  0.0000  0.0000  0.0000  0.0000 </r>
        <r>  0.0000  0.0039  0.0050  0.0033  0.0000  0.0000  0.0000  0.0000  0.0000 </r>
        <r>  0.0000  0.0038  0.0000  0.0000  0.0000  0.0000  0.0000  0.0000  0.0000 </r>
        <r>  0.0000  0.0039  0.0050  0.0033  0.0000  0.0000  0.0000  0.0000  0.0000 </r>
        <r>  0.0000  0.0000  0.0000  0.0032  0.0000  0.0000  0.0000  0.0000  0.0000 </r>
        <r>  0.0000  0.0039  0.0050  0.0033  0.0000  0.0000  0.0000  0.0000  0.0000 </r>
       </set>
       <set comment="band 126">
        <r>  0.0000  0.0000  0.0000  0.0000  0.0000  0.0000  0.0000  0.0000  0.0000 </r>
        <r>  0.0000  0.0000  0.0000  0.0000  0.0000  0.0000  0.0000  0.0000  0.0000 </r>
        <r>  0.0000  0.0000  0.0000  0.0000  0.0000  0.0000  0.0000  0.0000  0.0000 </r>
        <r>  0.0000  0.0000  0.0000  0.0000  0.0000  0.0000  0.0000  0.0000  0.0000 </r>
        <r>  0.0000  0.0000  0.0000  0.0000  0.0000  0.0000  0.0000  0.0000  0.0000 </r>
        <r>  0.0000  0.0000  0.0000  0.0000  0.0000  0.0000  0.0000  0.0000  0.0000 </r>
        <r>  0.0000  0.0000  0.0000  0.0000  0.0000  0.0000  0.0000  0.0000  0.0000 </r>
       </set>
       <set comment="band 127">
        <r>  0.0001  0.0041  0.0012  0.0010  0.0000  0.0000  0.0000  0.0000  0.0000 </r>
        <r>  0.0051  0.0007  0.0000  0.0038  0.0000  0.0000  0.0000  0.0000  0.0000 </r>
        <r>  0.0004  0.0037  0.0012  0.0004  0.0000  0.0000  0.0000  0.0000  0.0000 </r>
        <r>  0.0263  0.0000  0.0007  0.0007  0.0000  0.0000  0.0000  0.0000  0.0000 </r>
        <r>  0.0009  0.0028  0.0005  0.0006  0.0000  0.0000  0.0000  0.0000  0.0000 </r>
        <r>  0.0049  0.0007  0.0038  0.0000  0.0000  0.0000  0.0000  0.0000  0.0000 </r>
        <r>  0.0006  0.0033  0.0003  0.0010  0.0000  0.0000  0.0000  0.0000  0.0000 </r>
       </set>
       <set comment="band 128">
        <r>  0.0007  0.0004  0.0003  0.0037  0.0000  0.0000  0.0000  0.0000  0.0000 </r>
        <r>  0.0016  0.0045  0.0000  0.0005  0.0000  0.0000  0.0000  0.0000  0.0000 </r>
        <r>  0.0002  0.0009  0.0005  0.0045  0.0000  0.0000  0.0000  0.0000  0.0000 </r>
        <r>  0.0035  0.0000  0.0045  0.0002  0.0000  0.0000  0.0000  0.0000  0.0000 </r>
        <r>  0.0005  0.0008  0.0001  0.0042  0.0000  0.0000  0.0000  0.0000  0.0000 </r>
        <r>  0.0313  0.0002  0.0005  0.0000  0.0000  0.0000  0.0000  0.0000  0.0000 </r>
        <r>  0.0006  0.0003  0.0004  0.0040  0.0000  0.0000  0.0000  0.0000  0.0000 </r>
       </set>
       <set comment="band 129">
        <r>  0.0007  0.0005  0.0035  0.0003  0.0000  0.0000  0.0000  0.0000  0.0000 </r>
        <r>  0.0297  0.0000  0.0000  0.0009  0.0000  0.0000  0.0000  0.0000  0.0000 </r>
        <r>  0.0008  0.0005  0.0033  0.0002  0.0000  0.0000  0.0000  0.0000  0.0000 </r>
        <r>  0.0065  0.0000  0.0000  0.0043  0.0000  0.0000  0.0000  0.0000  0.0000 </r>
        <r>  0.0002  0.0014  0.0045  0.0002  0.0000  0.0000  0.0000  0.0000  0.0000 </r>
        <r>  0.0002  0.0043  0.0009  0.0000  0.0000  0.0000  0.0000  0.0000  0.0000 </r>
        <r>  0.0002  0.0015  0.0043  0.0000  0.0000  0.0000  0.0000  0.0000  0.0000 </r>
       </set>
       <set comment="band 130">
        <r>  0.0074  0.0017  0.0017  0.0017  0.0000  0.0000  0.0000  0.0000  0.0000 </r>
        <r>  0.0000  0.0000  0.0033  0.0000  0.0000  0.0000  0.0000  0.0000  0.0000 </r>
        <r>  0.0074  0.0017  0.0017  0.0017  0.0000  0.0000  0.0000  0.0000  0.0000 </r>
        <r>  0.0000  0.0033  0.0000  0.0000  0.0000  0.0000  0.0000  0.0000  0.0000 </r>
        <r>  0.0074  0.0017  0.0017  0.0017  0.0000  0.0000  0.0000  0.0000  0.0000 </r>
        <r>  0.0000  0.0000  0.0000  0.0033  0.0000  0.0000  0.0000  0.0000  0.0000 </r>
        <r>  0.0074  0.0017  0.0017  0.0017  0.0000  0.0000  0.0000  0.0000  0.0000 </r>
       </set>
       <set comment="band 131">
        <r>  0.0000  0.0004  0.0003  0.0005  0.0000  0.0000  0.0000  0.0000  0.0000 </r>
        <r>  0.0000  0.0000  0.0000  0.0001  0.0000  0.0000  0.0000  0.0000  0.0000 </r>
        <r>  0.0000  0.0005  0.0019  0.0005  0.0000  0.0000  0.0000  0.0000  0.0000 </r>
        <r>  0.0000  0.0000  0.0000  0.0000  0.0000  0.0000  0.0000  0.0000  0.0000 </r>
        <r>  0.0000  0.0004  0.0019  0.0016  0.0000  0.0000  0.0000  0.0000  0.0000 </r>
        <r>  0.0000  0.0000  0.0001  0.0000  0.0000  0.0000  0.0000  0.0000  0.0000 </r>
        <r>  0.0000  0.0005  0.0003  0.0016  0.0000  0.0000  0.0000  0.0000  0.0000 </r>
       </set>
       <set comment="band 132">
        <r>  0.0000  0.0016  0.0019  0.0002  0.0000  0.0000  0.0000  0.0000  0.0000 </r>
        <r>  0.0000  0.0001  0.0000  0.0000  0.0000  0.0000  0.0000  0.0000  0.0000 </r>
        <r>  0.0000  0.0004  0.0005  0.0002  0.0000  0.0000  0.0000  0.0000  0.0000 </r>
        <r>  0.0000  0.0000  0.0001  0.0000  0.0000  0.0000  0.0000  0.0000  0.0000 </r>
        <r>  0.0000  0.0016  0.0005  0.0006  0.0000  0.0000  0.0000  0.0000  0.0000 </r>
        <r>  0.0000  0.0000  0.0000  0.0000  0.0000  0.0000  0.0000  0.0000  0.0000 </r>
        <r>  0.0000  0.0004  0.0019  0.0006  0.0000  0.0000  0.0000  0.0000  0.0000 </r>
       </set>
       <set comment="band 133">
        <r>  0.0000  0.0006  0.0004  0.0019  0.0000  0.0000  0.0000  0.0000  0.0000 </r>
        <r>  0.0000  0.0000  0.0000  0.0000  0.0000  0.0000  0.0000  0.0000  0.0000 </r>
        <r>  0.0000  0.0016  0.0002  0.0019  0.0000  0.0000  0.0000  0.0000  0.0000 </r>
        <r>  0.0000  0.0000  0.0000  0.0001  0.0000  0.0000  0.0000  0.0000  0.0000 </r>
        <r>  0.0000  0.0006  0.0002  0.0004  0.0000  0.0000  0.0000  0.0000  0.0000 </r>
        <r>  0.0000  0.0001  0.0000  0.0000  0.0000  0.0000  0.0000  0.0000  0.0000 </r>
        <r>  0.0000  0.0016  0.0004  0.0004  0.0000  0.0000  0.0000  0.0000  0.0000 </r>
       </set>
       <set comment="band 134">
        <r>  0.0013  0.0003  0.0002  0.0001  0.0000  0.0000  0.0000  0.0000  0.0000 </r>
        <r>  0.0020  0.0000  0.0000  0.0000  0.0000  0.0000  0.0000  0.0000  0.0000 </r>
        <r>  0.0082  0.0002  0.0002  0.0000  0.0000  0.0000  0.0000  0.0000  0.0000 </r>
        <r>  0.0084  0.0000  0.0000  0.0000  0.0000  0.0000  0.0000  0.0000  0.0000 </r>
        <r>  0.0272  0.0000  0.0000  0.0001  0.0000  0.0000  0.0000  0.0000  0.0000 </r>
        <r>  0.0011  0.0000  0.0000  0.0000  0.0000  0.0000  0.0000  0.0000  0.0000 </r>
        <r>  0.0179  0.0001  0.0000  0.0002  0.0000  0.0000  0.0000  0.0000  0.0000 </r>
       </set>
       <set comment="band 135">
        <r>  0.0178  0.0001  0.0001  0.0001  0.0000  0.0000  0.0000  0.0000  0.0000 </r>
        <r>  0.0005  0.0000  0.0000  0.0000  0.0000  0.0000  0.0000  0.0000  0.0000 </r>
        <r>  0.0078  0.0001  0.0001  0.0002  0.0000  0.0000  0.0000  0.0000  0.0000 </r>
        <r>  0.0007  0.0000  0.0000  0.0000  0.0000  0.0000  0.0000  0.0000  0.0000 </r>
        <r>  0.0112  0.0001  0.0000  0.0002  0.0000  0.0000  0.0000  0.0000  0.0000 </r>
        <r>  0.0103  0.0000  0.0000  0.0000  0.0000  0.0000  0.0000  0.0000  0.0000 </r>
        <r>  0.0179  0.0000  0.0001  0.0002  0.0000  0.0000  0.0000  0.0000  0.0000 </r>
       </set>
       <set comment="band 136">
        <r>  0.0219  0.0000  0.0001  0.0002  0.0000  0.0000  0.0000  0.0000  0.0000 </r>
        <r>  0.0090  0.0000  0.0000  0.0000  0.0000  0.0000  0.0000  0.0000  0.0000 </r>
        <r>  0.0250  0.0000  0.0001  0.0001  0.0000  0.0000  0.0000  0.0000  0.0000 </r>
        <r>  0.0025  0.0000  0.0000  0.0000  0.0000  0.0000  0.0000  0.0000  0.0000 </r>
        <r>  0.0026  0.0002  0.0003  0.0000  0.0000  0.0000  0.0000  0.0000  0.0000 </r>
        <r>  0.0001  0.0000  0.0000  0.0000  0.0000  0.0000  0.0000  0.0000  0.0000 </r>
        <r>  0.0051  0.0002  0.0002  0.0000  0.0000  0.0000  0.0000  0.0000  0.0000 </r>
       </set>
       <set comment="band 137">
        <r>  0.0000  0.0004  0.0004  0.0005  0.0000  0.0000  0.0000  0.0000  0.0000 </r>
        <r>  0.0000  0.0000  0.0003  0.0000  0.0000  0.0000  0.0000  0.0000  0.0000 </r>
        <r>  0.0000  0.0004  0.0004  0.0005  0.0000  0.0000  0.0000  0.0000  0.0000 </r>
        <r>  0.0000  0.0003  0.0000  0.0000  0.0000  0.0000  0.0000  0.0000  0.0000 </r>
        <r>  0.0000  0.0004  0.0004  0.0005  0.0000  0.0000  0.0000  0.0000  0.0000 </r>
        <r>  0.0000  0.0000  0.0000  0.0004  0.0000  0.0000  0.0000  0.0000  0.0000 </r>
        <r>  0.0000  0.0004  0.0004  0.0005  0.0000  0.0000  0.0000  0.0000  0.0000 </r>
       </set>
       <set comment="band 138">
        <r>  0.0000  0.0004  0.0004  0.0004  0.0000  0.0000  0.0000  0.0000  0.0000 </r>
        <r>  0.0000  0.0000  0.0004  0.0000  0.0000  0.0000  0.0000  0.0000  0.0000 </r>
        <r>  0.0000  0.0004  0.0004  0.0004  0.0000  0.0000  0.0000  0.0000  0.0000 </r>
        <r>  0.0000  0.0004  0.0000  0.0000  0.0000  0.0000  0.0000  0.0000  0.0000 </r>
        <r>  0.0000  0.0004  0.0004  0.0004  0.0000  0.0000  0.0000  0.0000  0.0000 </r>
        <r>  0.0000  0.0000  0.0000  0.0003  0.0000  0.0000  0.0000  0.0000  0.0000 </r>
        <r>  0.0000  0.0004  0.0004  0.0004  0.0000  0.0000  0.0000  0.0000  0.0000 </r>
       </set>
       <set comment="band 139">
        <r>  0.0000  0.0000  0.0000  0.0000  0.0000  0.0000  0.0000  0.0000  0.0000 </r>
        <r>  0.0000  0.0000  0.0000  0.0000  0.0000  0.0000  0.0000  0.0000  0.0000 </r>
        <r>  0.0000  0.0000  0.0001  0.0000  0.0000  0.0000  0.0000  0.0000  0.0000 </r>
        <r>  0.0000  0.0000  0.0000  0.0000  0.0000  0.0000  0.0000  0.0000  0.0000 </r>
        <r>  0.0000  0.0000  0.0001  0.0001  0.0000  0.0000  0.0000  0.0000  0.0000 </r>
        <r>  0.0000  0.0000  0.0000  0.0000  0.0000  0.0000  0.0000  0.0000  0.0000 </r>
        <r>  0.0000  0.0000  0.0000  0.0001  0.0000  0.0000  0.0000  0.0000  0.0000 </r>
       </set>
       <set comment="band 140">
        <r>  0.0000  0.0000  0.0001  0.0000  0.0000  0.0000  0.0000  0.0000  0.0000 </r>
        <r>  0.0000  0.0000  0.0000  0.0000  0.0000  0.0000  0.0000  0.0000  0.0000 </r>
        <r>  0.0000  0.0000  0.0000  0.0000  0.0000  0.0000  0.0000  0.0000  0.0000 </r>
        <r>  0.0000  0.0000  0.0000  0.0000  0.0000  0.0000  0.0000  0.0000  0.0000 </r>
        <r>  0.0000  0.0000  0.0000  0.0000  0.0000  0.0000  0.0000  0.0000  0.0000 </r>
        <r>  0.0000  0.0000  0.0000  0.0000  0.0000  0.0000  0.0000  0.0000  0.0000 </r>
        <r>  0.0000  0.0000  0.0001  0.0000  0.0000  0.0000  0.0000  0.0000  0.0000 </r>
       </set>
       <set comment="band 141">
        <r>  0.0000  0.0000  0.0000  0.0001  0.0000  0.0000  0.0000  0.0000  0.0000 </r>
        <r>  0.0000  0.0000  0.0000  0.0000  0.0000  0.0000  0.0000  0.0000  0.0000 </r>
        <r>  0.0000  0.0001  0.0000  0.0001  0.0000  0.0000  0.0000  0.0000  0.0000 </r>
        <r>  0.0000  0.0000  0.0000  0.0000  0.0000  0.0000  0.0000  0.0000  0.0000 </r>
        <r>  0.0000  0.0000  0.0000  0.0000  0.0000  0.0000  0.0000  0.0000  0.0000 </r>
        <r>  0.0000  0.0000  0.0000  0.0000  0.0000  0.0000  0.0000  0.0000  0.0000 </r>
        <r>  0.0000  0.0001  0.0000  0.0000  0.0000  0.0000  0.0000  0.0000  0.0000 </r>
       </set>
       <set comment="band 142">
        <r>  0.0079  0.0002  0.0007  0.0000  0.0000  0.0000  0.0000  0.0000  0.0000 </r>
        <r>  0.0003  0.0000  0.0000  0.0003  0.0000  0.0000  0.0000  0.0000  0.0000 </r>
        <r>  0.0093  0.0002  0.0007  0.0000  0.0000  0.0000  0.0000  0.0000  0.0000 </r>
        <r>  0.0001  0.0000  0.0000  0.0012  0.0000  0.0000  0.0000  0.0000  0.0000 </r>
        <r>  0.0007  0.0002  0.0006  0.0000  0.0000  0.0000  0.0000  0.0000  0.0000 </r>
        <r>  0.0000  0.0012  0.0004  0.0000  0.0000  0.0000  0.0000  0.0000  0.0000 </r>
        <r>  0.0019  0.0002  0.0006  0.0000  0.0000  0.0000  0.0000  0.0000  0.0000 </r>
       </set>
       <set comment="band 143">
        <r>  0.0066  0.0001  0.0001  0.0008  0.0000  0.0000  0.0000  0.0000  0.0000 </r>
        <r>  0.0000  0.0014  0.0000  0.0001  0.0000  0.0000  0.0000  0.0000  0.0000 </r>
        <r>  0.0028  0.0000  0.0000  0.0008  0.0000  0.0000  0.0000  0.0000  0.0000 </r>
        <r>  0.0000  0.0000  0.0014  0.0001  0.0000  0.0000  0.0000  0.0000  0.0000 </r>
        <r>  0.0040  0.0000  0.0001  0.0008  0.0000  0.0000  0.0000  0.0000  0.0000 </r>
        <r>  0.0004  0.0001  0.0001  0.0000  0.0000  0.0000  0.0000  0.0000  0.0000 </r>
        <r>  0.0064  0.0000  0.0001  0.0008  0.0000  0.0000  0.0000  0.0000  0.0000 </r>
       </set>
       <set comment="band 144">
        <r>  0.0004  0.0006  0.0001  0.0001  0.0000  0.0000  0.0000  0.0000  0.0000 </r>
        <r>  0.0001  0.0001  0.0000  0.0012  0.0000  0.0000  0.0000  0.0000  0.0000 </r>
        <r>  0.0027  0.0006  0.0001  0.0001  0.0000  0.0000  0.0000  0.0000  0.0000 </r>
        <r>  0.0003  0.0000  0.0001  0.0003  0.0000  0.0000  0.0000  0.0000  0.0000 </r>
        <r>  0.0102  0.0007  0.0002  0.0001  0.0000  0.0000  0.0000  0.0000  0.0000 </r>
        <r>  0.0000  0.0003  0.0011  0.0000  0.0000  0.0000  0.0000  0.0000  0.0000 </r>
        <r>  0.0066  0.0006  0.0002  0.0001  0.0000  0.0000  0.0000  0.0000  0.0000 </r>
       </set>
      </set>
     </set>
    </set>
   </array>
  </projected>
 </calculation>
 <structure name="finalpos" >
  <crystal>
   <varray name="basis" >
    <v>       5.43784835       0.00000000       0.00000000 </v>
    <v>       0.00000000       5.43784835       0.00000000 </v>
    <v>       0.00000000       0.00000000       5.43784835 </v>
   </varray>
   <i name="volume">    160.79823434 </i>
   <varray name="rec_basis" >
    <v>       0.18389626       0.00000000       0.00000000 </v>
    <v>       0.00000000       0.18389626       0.00000000 </v>
    <v>       0.00000000       0.00000000       0.18389626 </v>
   </varray>
  </crystal>
  <varray name="positions" >
   <v>       0.24401317       0.75598683       0.24401317 </v>
   <v>       0.00000000       0.00000000       0.50000000 </v>
   <v>       0.24401317       0.24401317       0.75598683 </v>
   <v>       0.00000000       0.50000000      -0.00000000 </v>
   <v>       0.75598683       0.75598683       0.75598683 </v>
   <v>       0.50000000       0.00000000      -0.00000000 </v>
   <v>       0.75598683       0.24401317       0.24401317 </v>
  </varray>
 </structure>
</modeling>
