 vasp.6.2.1 16May21 (build Jul 28 2021 23:24:15) complex                        
  
 executed on      IFC19_CrayMPICH date 2022.01.30  12:51:14
 running   64 mpi-ranks, with    1 threads/rank
 distrk:  each k-point on   64 cores,    1 groups
 distr:  one band on NCORE=   1 cores,   64 groups


--------------------------------------------------------------------------------------------------------


 INCAR:
   ENCUT = 450.000000
   SIGMA = 0.050000
   EDIFF = 1.00e-06
   ALGO = fast
   GGA = RP
   PREC = accurate
   ISMEAR = -5
   ISYM = 2
   KPAR = 1
   LMAXMIX = 4
   LORBIT = 11
   NELM = 120
   NSW = 0
   IVDW = 0
   NCORE = 1
   NEDOS = 5001
   LAECHG = .TRUE.
   LASPH = .TRUE.
   LCHARG = .TRUE.
   LWAVE = .TRUE.
   ISPIN = 2
   MAGMOM = 4*1.0000

 POTCAR:    PAW_PBE Fe 06Sep2000                  
 POTCAR:    PAW_PBE Fe 06Sep2000                  
   VRHFIN =Fe:  d7 s1                                                                               
   LEXCH  = PE                                                                                      
   EATOM  =   594.3153 eV,   43.6809 Ry                                                             
                                                                                                    
   TITEL  = PAW_PBE Fe 06Sep2000                                                                    
   LULTRA =        F    use ultrasoft PP ?                                                          
   IUNSCR =        1    unscreen: 0-lin 1-nonlin 2-no                                               
   RPACOR =    2.000    partial core radius                                                         
   POMASS =   55.847; ZVAL   =    8.000    mass and valenz                                          
   RCORE  =    2.300    outmost cutoff radius                                                       
   RWIGS  =    2.460; RWIGS  =    1.302    wigner-seitz radius (au A)                               
   ENMAX  =  267.882; ENMIN  =  200.911 eV                                                          
   RCLOC  =    1.701    cutoff for local pot                                                        
   LCOR   =        T    correct aug charges                                                         
   LPAW   =        T    paw PP                                                                      
   EAUG   =  511.368                                                                                
   DEXC   =    0.000                                                                                
   RMAX   =    2.356    core radius for proj-oper                                                   
   RAUG   =    1.300    factor for augmentation sphere                                              
   RDEP   =    2.442    radius for radial grids                                                     
   RDEPT  =    1.890    core radius for aug-charge                                                  
                                                                                                    
   Atomic configuration                                                                             
    9 entries                                                                                       
     n  l   j            E        occ.                                                              
     1  0  0.50     -6993.8440   2.0000                                                             
     2  0  0.50      -814.6047   2.0000                                                             
     2  1  1.50      -693.3689   6.0000                                                             
     3  0  0.50       -89.4732   2.0000                                                             
     3  1  1.50       -55.6373   6.0000                                                             
     3  2  2.50        -3.8151   7.0000                                                             
     4  0  0.50        -4.2551   1.0000                                                             
     4  1  1.50        -3.4015   0.0000                                                             
     4  3  2.50        -1.3606   0.0000                                                             
   Description                                                                                      
     l       E           TYP  RCUT    TYP  RCUT                                                     
     2     -3.8151135     23  2.300                                                                 
     2     -5.1756961     23  2.300                                                                 
     0     -4.2550963     23  2.300                                                                 
     0      7.2035603     23  2.300                                                                 
     1     -2.7211652     23  2.300                                                                 
     1     18.4316424     23  2.300                                                                 
  local pseudopotential read in
  partial core-charges read in
  partial kinetic energy density read in
  atomic valenz-charges read in
  non local Contribution for L=           2  read in
    real space projection operators read in
  non local Contribution for L=           2  read in
    real space projection operators read in
  non local Contribution for L=           0  read in
    real space projection operators read in
  non local Contribution for L=           0  read in
    real space projection operators read in
  non local Contribution for L=           1  read in
    real space projection operators read in
  non local Contribution for L=           1  read in
    real space projection operators read in
    PAW grid and wavefunctions read in
 
   number of l-projection  operators is LMAX  =           6
   number of lm-projection operators is LMMAX =          18
 
 -----------------------------------------------------------------------------
|                                                                             |
|               ----> ADVICE to this user running VASP <----                  |
|                                                                             |
|     You enforced a specific xc type in the INCAR file but a different       |
|     type was found in the POTCAR file.                                      |
|     I HOPE YOU KNOW WHAT YOU ARE DOING!                                     |
|                                                                             |
 -----------------------------------------------------------------------------

  PAW_PBE Fe 06Sep2000                  :
 energy of atom  1       EATOM= -594.3153
 kinetic energy error for atom=    0.0034 (will be added to EATOM!!)
 
 
 POSCAR: Fe
  positions in cartesian coordinates
  No initial velocities read in
 exchange correlation table for  LEXCH =        9
   RHO(1)=    0.500       N(1)  =     2000
   RHO(2)=  100.500       N(2)  =     4000
 


--------------------------------------------------------------------------------------------------------


 ion  position               nearest neighbor table
   1  0.000  0.000  0.000-   4 2.49   2 2.49   3 2.49   2 2.49   3 2.49   4 2.49   3 2.87   2 2.87
                             2 2.87   3 2.87   4 2.87   4 2.87
   2  0.000  0.500  0.000-   3 2.49   1 2.49   4 2.49   1 2.49   4 2.49   3 2.49   1 2.87   1 2.87
                             3 2.87   4 2.87   3 2.87   4 2.87
   3  0.500  0.000  0.000-   2 2.49   1 2.49   4 2.49   4 2.49   1 2.49   2 2.49   1 2.87   4 2.87
                             2 2.87   1 2.87   2 2.87   4 2.87
   4  0.500  0.500  0.000-   1 2.49   2 2.49   3 2.49   3 2.49   2 2.49   1 2.49   1 2.87   3 2.87
                             2 2.87   2 2.87   1 2.87   3 2.87
 
  LATTYP: Found a trigonal (rhomboedric) cell.
 ALAT       =     4.7593565742
 COS(alpha) =    -0.4545454545
  
  Lattice vectors:
  
 A1 = (  -1.4350000000,  -1.4350000000,  -4.3050000000)
 A2 = (  -1.4350000000,   4.3050000000,   1.4350000000)
 A3 = (   4.3050000000,  -1.4350000000,   1.4350000000)


Analysis of symmetry for initial positions (statically):
=====================================================================
 Subroutine PRICEL returns following result:
 
  LATTYP: Found a body centered cubic cell.
 ALAT       =     2.8700000000
  
  Lattice vectors:
  
 A1 = (  -1.4350000000,   1.4350000000,   1.4350000000)
 A2 = (   1.4350000000,  -1.4350000000,   1.4350000000)
 A3 = (   1.4350000000,   1.4350000000,  -1.4350000000)
 
   4 primitive cells build up your supercell.
 

 Routine SETGRP: Setting up the symmetry group for a 
 trigonal (rhombohedral) supercell.


 Subroutine GETGRP returns: Found 12 space group operations
 (whereof 12 operations were pure point group operations)
 out of a pool of 12 trial point group operations.


The static configuration has the point symmetry D_3d.


Analysis of symmetry for dynamics (positions and initial velocities):
=====================================================================
 Subroutine PRICEL returns following result:
 
  LATTYP: Found a body centered cubic cell.
 ALAT       =     2.8700000000
  
  Lattice vectors:
  
 A1 = (  -1.4350000000,   1.4350000000,   1.4350000000)
 A2 = (   1.4350000000,  -1.4350000000,   1.4350000000)
 A3 = (   1.4350000000,   1.4350000000,  -1.4350000000)
 
   4 primitive cells build up your supercell.
 

 Routine SETGRP: Setting up the symmetry group for a 
 trigonal (rhombohedral) supercell.


 Subroutine GETGRP returns: Found 12 space group operations
 (whereof 12 operations were pure point group operations)
 out of a pool of 12 trial point group operations.


The dynamic configuration has the point symmetry D_3d.


Analysis of structural, dynamic, and magnetic symmetry:
=====================================================================
 Subroutine PRICEL returns following result:
 
  LATTYP: Found a body centered cubic cell.
 ALAT       =     2.8700000000
  
  Lattice vectors:
  
 A1 = (  -1.4350000000,   1.4350000000,   1.4350000000)
 A2 = (   1.4350000000,  -1.4350000000,   1.4350000000)
 A3 = (   1.4350000000,   1.4350000000,  -1.4350000000)
 
   4 primitive cells build up your supercell.
 

 Routine SETGRP: Setting up the symmetry group for a 
 trigonal (rhombohedral) supercell.


 Subroutine GETGRP returns: Found 12 space group operations
 (whereof 12 operations were pure point group operations)
 out of a pool of 12 trial point group operations.


The overall configuration has the point symmetry D_3d.


 Subroutine INISYM returns: Found 12 space group operations
 (whereof 12 operations are pure point group operations),
 and found     4 'primitive' translations


----------------------------------------------------------------------------------------

                                     Primitive cell                                     

  volume of cell :      11.8200

  direct lattice vectors                    reciprocal lattice vectors
    -1.435000000  1.435000000  1.435000000     0.000000000  0.348432056  0.348432056
     1.435000000 -1.435000000  1.435000000     0.348432056  0.000000000  0.348432056
     1.435000000  1.435000000 -1.435000000     0.348432056  0.348432056  0.000000000

  length of vectors
     2.485492909  2.485492909  2.485492909     0.492757339  0.492757339  0.492757339

  position of ions in fractional coordinates (direct lattice)
     0.000000000  0.000000000  0.000000000

  ion indices of the primitive-cell ions
   primitive index   ion index
                 1           1

----------------------------------------------------------------------------------------

 
 
 KPOINTS: KPOINTS created by Atomic Simulation Env

Automatic generation of k-mesh.
 Grid dimensions read from file:
 generate k-points for:    4    4    4

 Generating k-lattice:

  Cartesian coordinates                     Fractional coordinates (reciprocal lattice)
     0.000000000  0.043554007  0.043554007     0.250000000  0.000000000 -0.000000000
     0.043554007  0.000000000  0.043554007     0.000000000  0.250000000  0.000000000
     0.087108014  0.087108014  0.000000000    -0.000000000  0.000000000  0.250000000

  Length of vectors
     0.061594667  0.061594667  0.123189335

  Shift w.r.t. Gamma in fractional coordinates (k-lattice)
     0.000000000  0.000000000  0.000000000

 TETIRR: Found     90 inequivalent tetrahedra from      384
 
 Subroutine IBZKPT returns following result:
 ===========================================
 
 Found     13 irreducible k-points:
 
 Following reciprocal coordinates:
            Coordinates               Weight
  0.000000  0.000000  0.000000      1.000000
  0.250000  0.000000 -0.000000      6.000000
  0.500000  0.000000 -0.000000      3.000000
  0.250000  0.250000 -0.000000      6.000000
 -0.000000  0.000000  0.250000      6.000000
  0.250000 -0.000000  0.250000      6.000000
 -0.250000 -0.000000  0.250000      6.000000
  0.500000  0.250000  0.250000     12.000000
  0.500000  0.500000  0.250000      2.000000
 -0.000000  0.000000  0.500000      1.000000
  0.250000 -0.000000  0.500000      6.000000
  0.500000 -0.000000  0.500000      3.000000
  0.250000  0.250000  0.500000      6.000000
 
 Following cartesian coordinates:
            Coordinates               Weight
  0.000000  0.000000  0.000000      1.000000
  0.000000  0.043554  0.043554      6.000000
  0.000000  0.087108  0.087108      3.000000
  0.043554  0.043554  0.087108      6.000000
  0.087108  0.087108  0.000000      6.000000
  0.087108  0.130662  0.043554      6.000000
  0.087108  0.043554 -0.043554      6.000000
  0.130662  0.174216  0.130662     12.000000
  0.174216  0.174216  0.174216      2.000000
  0.174216  0.174216  0.000000      1.000000
  0.174216  0.217770  0.043554      6.000000
  0.174216  0.261324  0.087108      3.000000
  0.217770  0.217770  0.087108      6.000000
 


--------------------------------------------------------------------------------------------------------




 Dimension of arrays:
   k-points           NKPTS =     13   k-points in BZ     NKDIM =     13   number of bands    NBANDS=     64
   number of dos      NEDOS =   5001   number of ions     NIONS =      4
   non local maximal  LDIM  =      6   non local SUM 2l+1 LMDIM =     18
   total plane-waves  NPLWV =  23328
   max r-space proj   IRMAX =      1   max aug-charges    IRDMAX=  17773
   dimension x,y,z NGX =    36 NGY =   36 NGZ =   18
   dimension x,y,z NGXF=    72 NGYF=   72 NGZF=   36
   support grid    NGXF=    72 NGYF=   72 NGZF=   36
   ions per type =               4
   NGX,Y,Z   is equivalent  to a cutoff of  12.04, 12.04, 12.04 a.u.
   NGXF,Y,Z  is equivalent  to a cutoff of  24.08, 24.08, 24.08 a.u.

 SYSTEM =  unknown system                          
 POSCAR =  Fe                                      

 Startparameter for this run:
   NWRITE =      2    write-flag & timer
   PREC   = accura    normal or accurate (medium, high low for compatibility)
   ISTART =      0    job   : 0-new  1-cont  2-samecut
   ICHARG =      2    charge: 1-file 2-atom 10-const
   ISPIN  =      2    spin polarized calculation?
   LNONCOLLINEAR =      F non collinear calculations
   LSORBIT =      F    spin-orbit coupling
   INIWAV =      1    electr: 0-lowe 1-rand  2-diag
   LASPH  =      T    aspherical Exc in radial PAW
 Electronic Relaxation 1
   ENCUT  =  450.0 eV  33.07 Ry    5.75 a.u.   8.60  8.60  4.30*2*pi/ulx,y,z
   ENINI  =  450.0     initial cutoff
   ENAUG  =  511.4 eV  augmentation charge cutoff
   NELM   =    120;   NELMIN=  2; NELMDL= -5     # of ELM steps 
   EDIFF  = 0.1E-05   stopping-criterion for ELM
   LREAL  =      F    real-space projection
   NLSPLINE    = F    spline interpolate recip. space projectors
   LCOMPAT=      F    compatible to vasp.4.4
   GGA_COMPAT  = T    GGA compatible to vasp.4.4-vasp.4.6
   LMAXPAW     = -100 max onsite density
   LMAXMIX     =    4 max onsite mixed and CHGCAR
   VOSKOWN=      0    Vosko Wilk Nusair interpolation
   ROPT   =    0.00000
 Ionic relaxation
   EDIFFG = 0.1E-04   stopping-criterion for IOM
   NSW    =      0    number of steps for IOM
   NBLOCK =      1;   KBLOCK =      1    inner block; outer block 
   IBRION =     -1    ionic relax: 0-MD 1-quasi-New 2-CG
   NFREE  =      0    steps in history (QN), initial steepest desc. (CG)
   ISIF   =      2    stress and relaxation
   IWAVPR =     10    prediction:  0-non 1-charg 2-wave 3-comb
   ISYM   =      2    0-nonsym 1-usesym 2-fastsym
   LCORR  =      T    Harris-Foulkes like correction to forces

   POTIM  = 0.5000    time-step for ionic-motion
   TEIN   =    0.0    initial temperature
   TEBEG  =    0.0;   TEEND  =   0.0 temperature during run
   SMASS  =  -3.00    Nose mass-parameter (am)
   estimated Nose-frequenzy (Omega)   =  0.10E-29 period in steps = 0.13E+47 mass=  -0.565E-27a.u.
   SCALEE = 1.0000    scale energy and forces
   NPACO  =    256;   APACO  = 16.0  distance and # of slots for P.C.
   PSTRESS=    0.0 pullay stress

  Mass of Ions in am
   POMASS =  55.85
  Ionic Valenz
   ZVAL   =   8.00
  Atomic Wigner-Seitz radii
   RWIGS  =  -1.00
  virtual crystal weights 
   VCA    =   1.00
   NELECT =      32.0000    total number of electrons
   NUPDOWN=      -1.0000    fix difference up-down

 DOS related values:
   EMIN   =  10.00;   EMAX   =-10.00  energy-range for DOS
   EFERMI =   0.00
   ISMEAR =    -5;   SIGMA  =   0.05  broadening in eV -4-tet -1-fermi 0-gaus

 Electronic relaxation 2 (details)
   IALGO  =     68    algorithm
   LDIAG  =      T    sub-space diagonalisation (order eigenvalues)
   LSUBROT=      F    optimize rotation matrix (better conditioning)
   TURBO    =      0    0=normal 1=particle mesh
   IRESTART =      0    0=no restart 2=restart with 2 vectors
   NREBOOT  =      0    no. of reboots
   NMIN     =      0    reboot dimension
   EREF     =   0.00    reference energy to select bands
   IMIX   =      4    mixing-type and parameters
     AMIX     =   0.40;   BMIX     =  1.00
     AMIX_MAG =   1.60;   BMIX_MAG =  1.00
     AMIN     =   0.10
     WC   =   100.;   INIMIX=   1;  MIXPRE=   1;  MAXMIX= -45

 Intra band minimization:
   WEIMIN = 0.0000     energy-eigenvalue tresh-hold
   EBREAK =  0.39E-08  absolut break condition
   DEPER  =   0.30     relativ break condition  

   TIME   =   0.40     timestep for ELM

  volume/ion in A,a.u.               =      11.82        79.76
  Fermi-wavevector in a.u.,A,eV,Ry     =   1.437362  2.716221 28.109779  2.066010
  Thomas-Fermi vector in A             =   2.556448
 
 Write flags
   LWAVE        =      T    write WAVECAR
   LDOWNSAMPLE  =      F    k-point downsampling of WAVECAR
   LCHARG       =      T    write CHGCAR
   LVTOT        =      F    write LOCPOT, total local potential
   LVHAR        =      F    write LOCPOT, Hartree potential only
   LELF         =      F    write electronic localiz. function (ELF)
   LORBIT       =     11    0 simple, 1 ext, 2 COOP (PROOUT), +10 PAW based schemes


 Dipole corrections
   LMONO  =      F    monopole corrections only (constant potential shift)
   LDIPOL =      F    correct potential (dipole corrections)
   IDIPOL =      0    1-x, 2-y, 3-z, 4-all directions 
   EPSILON=  1.0000000 bulk dielectric constant

 Exchange correlation treatment:
   GGA     =    RP    GGA type
   LEXCH   =     9    internal setting for exchange type
   VOSKOWN=      0    Vosko Wilk Nusair interpolation
   LHFCALC =     F    Hartree Fock is set to
   LHFONE  =     F    Hartree Fock one center treatment
   AEXX    =    0.0000 exact exchange contribution

 Linear response parameters
   LEPSILON=     F    determine dielectric tensor
   LRPA    =     F    only Hartree local field effects (RPA)
   LNABLA  =     F    use nabla operator in PAW spheres
   LVEL    =     F    velocity operator in full k-point grid
   LINTERFAST=   F  fast interpolation
   KINTER  =     0    interpolate to denser k-point grid
   CSHIFT  =0.1000    complex shift for real part using Kramers Kronig
   OMEGAMAX=  -1.0    maximum frequency
   DEG_THRESHOLD= 0.2000000E-02 threshold for treating states as degnerate
   RTIME   =   -0.100 relaxation time in fs
  (WPLASMAI=    0.000 imaginary part of plasma frequency in eV, 0.658/RTIME)
   DFIELD  = 0.0000000 0.0000000 0.0000000 field for delta impulse in time
 
 Orbital magnetization related:
   ORBITALMAG=     F  switch on orbital magnetization
   LCHIMAG   =     F  perturbation theory with respect to B field
   DQ        =  0.001000  dq finite difference perturbation B field
   LLRAUG    =     F  two centre corrections for induced B field



--------------------------------------------------------------------------------------------------------


 Static calculation
 charge density and potential will be updated during run
 spin polarized calculation
 RMM-DIIS sequential band-by-band and
  variant of blocked Davidson during initial phase
 perform sub-space diagonalisation
    before iterative eigenvector-optimisation
 modified Broyden-mixing scheme, WC =      100.0
 initial mixing is a Kerker type mixing with AMIX =  0.4000 and BMIX =      1.0000
 Hartree-type preconditioning will be used
 using additional bands           48
 reciprocal scheme for non local part
 use partial core corrections
 calculate Harris-corrections to forces 
   (improved forces if not selfconsistent)
 use gradient corrections 
 use of overlap-Matrix (Vanderbilt PP)
 Fermi weights with tetrahedron method with Bloechl corrections


--------------------------------------------------------------------------------------------------------


  energy-cutoff  :      450.00
  volume of cell :       47.28
      direct lattice vectors                 reciprocal lattice vectors
    -2.870000000  2.870000000  2.870000000     0.000000000  0.174216028  0.174216028
     2.870000000 -2.870000000  2.870000000     0.174216028  0.000000000  0.174216028
     1.435000000  1.435000000 -1.435000000     0.348432056  0.348432056  0.000000000

  length of vectors
     4.970985818  4.970985818  2.485492909     0.246378669  0.246378669  0.492757339


 
 k-points in units of 2pi/SCALE and weight: KPOINTS created by Atomic Simulation Env
   0.00000000  0.00000000  0.00000000       0.016
   0.00000000  0.04355401  0.04355401       0.094
   0.00000000  0.08710801  0.08710801       0.047
   0.04355401  0.04355401  0.08710801       0.094
   0.08710801  0.08710801  0.00000000       0.094
   0.08710801  0.13066202  0.04355401       0.094
   0.08710801  0.04355401 -0.04355401       0.094
   0.13066202  0.17421603  0.13066202       0.188
   0.17421603  0.17421603  0.17421603       0.031
   0.17421603  0.17421603  0.00000000       0.016
   0.17421603  0.21777003  0.04355401       0.094
   0.17421603  0.26132404  0.08710801       0.047
   0.21777003  0.21777003  0.08710801       0.094
 
 k-points in reciprocal lattice and weights: KPOINTS created by Atomic Simulation Env
   0.00000000  0.00000000  0.00000000       0.016
   0.25000000  0.00000000 -0.00000000       0.094
   0.50000000  0.00000000 -0.00000000       0.047
   0.25000000  0.25000000 -0.00000000       0.094
  -0.00000000  0.00000000  0.25000000       0.094
   0.25000000 -0.00000000  0.25000000       0.094
  -0.25000000 -0.00000000  0.25000000       0.094
   0.50000000  0.25000000  0.25000000       0.188
   0.50000000  0.50000000  0.25000000       0.031
  -0.00000000  0.00000000  0.50000000       0.016
   0.25000000 -0.00000000  0.50000000       0.094
   0.50000000 -0.00000000  0.50000000       0.047
   0.25000000  0.25000000  0.50000000       0.094
 
 position of ions in fractional coordinates (direct lattice) 
   0.00000000  0.00000000  0.00000000
   0.00000000  0.50000000  0.00000000
   0.50000000  0.00000000  0.00000000
   0.50000000  0.50000000  0.00000000
 
 position of ions in cartesian coordinates  (Angst):
   0.00000000  0.00000000  0.00000000
   1.43500000 -1.43500000  1.43500000
  -1.43500000  1.43500000  1.43500000
   0.00000000  0.00000000  2.87000000
 


--------------------------------------------------------------------------------------------------------


 k-point   1 :   0.0000 0.0000 0.0000  plane waves:    1053
 k-point   2 :   0.2500 0.0000-0.0000  plane waves:    1022
 k-point   3 :   0.5000 0.0000-0.0000  plane waves:    1034
 k-point   4 :   0.2500 0.2500-0.0000  plane waves:    1039
 k-point   5 :  -0.0000 0.0000 0.2500  plane waves:    1029
 k-point   6 :   0.2500-0.0000 0.2500  plane waves:    1032
 k-point   7 :  -0.2500-0.0000 0.2500  plane waves:    1033
 k-point   8 :   0.5000 0.2500 0.2500  plane waves:    1017
 k-point   9 :   0.5000 0.5000 0.2500  plane waves:     987
 k-point  10 :  -0.0000 0.0000 0.5000  plane waves:    1040
 k-point  11 :   0.2500-0.0000 0.5000  plane waves:    1024
 k-point  12 :   0.5000-0.0000 0.5000  plane waves:    1024
 k-point  13 :   0.2500 0.2500 0.5000  plane waves:    1026

 maximum and minimum number of plane-waves per node :      1053      987

 maximum number of plane-waves:      1053
 maximum index in each direction: 
   IXMAX=    8   IYMAX=    8   IZMAX=    4
   IXMIN=   -9   IYMIN=   -9   IZMIN=   -4


 serial   3D FFT for wavefunctions
 parallel 3D FFT for charge:
    minimum data exchange during FFTs selected (reduces bandwidth)


 total amount of memory used by VASP MPI-rank0    35314. kBytes
=======================================================================

   base      :      30000. kBytes
   nonl-proj :       2106. kBytes
   fftplans  :        282. kBytes
   grid      :       2297. kBytes
   one-center:        124. kBytes
   wavefun   :        505. kBytes
 
     INWAV:  cpu time    0.0003: real time    0.0005
 Broyden mixing: mesh for mixing (old mesh)
   NGX = 17   NGY = 17   NGZ =  9
  (NGX  = 72   NGY  = 72   NGZ  = 36)
  gives a total of   2601 points

 initial charge density was supplied:
 charge density of overlapping atoms calculated
 number of electron      32.0000000 magnetization       4.0000000
 keeping initial charge density in first step


--------------------------------------------------------------------------------------------------------


 Maximum index for augmentation-charges         1272 (set IRDMAX)


--------------------------------------------------------------------------------------------------------


 First call to EWALD:  gamma=   0.490
 Maximum number of real-space cells 3x 3x 5
 Maximum number of reciprocal cells 4x 4x 2

    FEWALD:  cpu time    0.0062: real time    0.0065


--------------------------------------- Iteration      1(   1)  ---------------------------------------


    POTLOK:  cpu time    0.0411: real time    0.0466
    SETDIJ:  cpu time    2.2171: real time    2.2181
     EDDAV:  cpu time    2.3845: real time    2.3911
 BZINTS: Fermi energy:    9.378278;   32.000000 electrons
         Band energy: 0.193489E+03;  BLOECHL correction:   -0.122150
       DOS:  cpu time    0.0769: real time    0.0772
    --------------------------------------------
      LOOP:  cpu time    4.7199: real time    4.7334

 eigenvalue-minimisations  :  3328
 total energy-change (2. order) :-0.7509987E+01  (-0.1567665E+04)
 number of electron      32.0000000 magnetization       4.0000000
 augmentation part       32.0000000 magnetization       4.0000000

 Free energy of the ion-electron system (eV)
  ---------------------------------------------------
  alpha Z        PSCENC =       233.88852653
  Ewald energy   TEWEN  =     -2337.19028399
  -Hartree energ DENC   =      -458.32809456
  -exchange      EXHF   =         0.00000000
  -V(xc)+E(xc)   XCENC  =        14.11364018
  PAW double counting   =      2221.67245447    -2249.51793143
  entropy T*S    EENTRO =         0.00000000
  eigenvalues    EBANDS =       193.48886461
  atomic energy  EATOM  =      2374.36283677
  Solvation  Ediel_sol  =         0.00000000
  ---------------------------------------------------
  free energy    TOTEN  =        -7.50998741 eV

  energy without entropy =       -7.50998741  energy(sigma->0) =       -7.50998741


--------------------------------------------------------------------------------------------------------




--------------------------------------- Iteration      1(   2)  ---------------------------------------


     EDDAV:  cpu time    4.1294: real time    4.1574
 BZINTS: Fermi energy:    8.075961;   32.000000 electrons
         Band energy: 0.166393E+03;  BLOECHL correction:   -0.212048
       DOS:  cpu time    0.0805: real time    0.0808
    --------------------------------------------
      LOOP:  cpu time    4.2098: real time    4.2383

 eigenvalue-minimisations  :  4608
 total energy-change (2. order) :-0.2709575E+02  (-0.2680431E+02)
 number of electron      32.0000000 magnetization       4.0000000
 augmentation part       32.0000000 magnetization       4.0000000

 Free energy of the ion-electron system (eV)
  ---------------------------------------------------
  alpha Z        PSCENC =       233.88852653
  Ewald energy   TEWEN  =     -2337.19028399
  -Hartree energ DENC   =      -458.32809456
  -exchange      EXHF   =         0.00000000
  -V(xc)+E(xc)   XCENC  =        14.11364018
  PAW double counting   =      2221.67245447    -2249.51793143
  entropy T*S    EENTRO =         0.00000000
  eigenvalues    EBANDS =       166.39311093
  atomic energy  EATOM  =      2374.36283677
  Solvation  Ediel_sol  =         0.00000000
  ---------------------------------------------------
  free energy    TOTEN  =       -34.60574109 eV

  energy without entropy =      -34.60574109  energy(sigma->0) =      -34.60574109


--------------------------------------------------------------------------------------------------------




--------------------------------------- Iteration      1(   3)  ---------------------------------------


     EDDAV:  cpu time    2.4300: real time    2.4482
 BZINTS: Fermi energy:    8.074536;   32.000000 electrons
         Band energy: 0.166365E+03;  BLOECHL correction:   -0.212722
       DOS:  cpu time    0.0801: real time    0.0805
    --------------------------------------------
      LOOP:  cpu time    2.5101: real time    2.5287

 eigenvalue-minimisations  :  3392
 total energy-change (2. order) :-0.2801781E-01  (-0.2759128E-01)
 number of electron      32.0000000 magnetization       4.0000000
 augmentation part       32.0000000 magnetization       4.0000000

 Free energy of the ion-electron system (eV)
  ---------------------------------------------------
  alpha Z        PSCENC =       233.88852653
  Ewald energy   TEWEN  =     -2337.19028399
  -Hartree energ DENC   =      -458.32809456
  -exchange      EXHF   =         0.00000000
  -V(xc)+E(xc)   XCENC  =        14.11364018
  PAW double counting   =      2221.67245447    -2249.51793143
  entropy T*S    EENTRO =         0.00000000
  eigenvalues    EBANDS =       166.36509313
  atomic energy  EATOM  =      2374.36283677
  Solvation  Ediel_sol  =         0.00000000
  ---------------------------------------------------
  free energy    TOTEN  =       -34.63375889 eV

  energy without entropy =      -34.63375889  energy(sigma->0) =      -34.63375889


--------------------------------------------------------------------------------------------------------




--------------------------------------- Iteration      1(   4)  ---------------------------------------


     EDDAV:  cpu time    8.0054: real time    8.0302
 BZINTS: Fermi energy:    8.074534;   32.000000 electrons
         Band energy: 0.166365E+03;  BLOECHL correction:   -0.212724
       DOS:  cpu time    0.0788: real time    0.0814
    --------------------------------------------
      LOOP:  cpu time    8.0841: real time    8.1117

 eigenvalue-minimisations  :  6400
 total energy-change (2. order) :-0.4211959E-04  (-0.4103532E-04)
 number of electron      32.0000000 magnetization       4.0000000
 augmentation part       32.0000000 magnetization       4.0000000

 Free energy of the ion-electron system (eV)
  ---------------------------------------------------
  alpha Z        PSCENC =       233.88852653
  Ewald energy   TEWEN  =     -2337.19028399
  -Hartree energ DENC   =      -458.32809456
  -exchange      EXHF   =         0.00000000
  -V(xc)+E(xc)   XCENC  =        14.11364018
  PAW double counting   =      2221.67245447    -2249.51793143
  entropy T*S    EENTRO =         0.00000000
  eigenvalues    EBANDS =       166.36505101
  atomic energy  EATOM  =      2374.36283677
  Solvation  Ediel_sol  =         0.00000000
  ---------------------------------------------------
  free energy    TOTEN  =       -34.63380101 eV

  energy without entropy =      -34.63380101  energy(sigma->0) =      -34.63380101


--------------------------------------------------------------------------------------------------------




--------------------------------------- Iteration      1(   5)  ---------------------------------------


     EDDAV:  cpu time    2.6573: real time    2.7532
 BZINTS: Fermi energy:    8.074534;   32.000000 electrons
         Band energy: 0.166365E+03;  BLOECHL correction:   -0.212724
       DOS:  cpu time    0.0802: real time    0.0812
    CHARGE:  cpu time    0.0726: real time    0.0736
    MIXING:  cpu time    0.0028: real time    0.0054
    --------------------------------------------
      LOOP:  cpu time    2.8132: real time    2.9137

 eigenvalue-minimisations  :  3456
 total energy-change (2. order) :-0.2760316E-09  (-0.8763300E-11)
 number of electron      31.9999986 magnetization       4.9174396
 augmentation part       14.3195736 magnetization       3.5571352

 Broyden mixing:
  rms(total) = 0.21808E+01    rms(broyden)= 0.21807E+01
  rms(prec ) = 0.40103E+01
  weight for this iteration     100.00

 Free energy of the ion-electron system (eV)
  ---------------------------------------------------
  alpha Z        PSCENC =       233.88852653
  Ewald energy   TEWEN  =     -2337.19028399
  -Hartree energ DENC   =      -458.32809456
  -exchange      EXHF   =         0.00000000
  -V(xc)+E(xc)   XCENC  =        14.11364018
  PAW double counting   =      2221.67245447    -2249.51793143
  entropy T*S    EENTRO =         0.00000000
  eigenvalues    EBANDS =       166.36505101
  atomic energy  EATOM  =      2374.36283677
  Solvation  Ediel_sol  =         0.00000000
  ---------------------------------------------------
  free energy    TOTEN  =       -34.63380101 eV

  energy without entropy =      -34.63380101  energy(sigma->0) =      -34.63380101


--------------------------------------------------------------------------------------------------------




--------------------------------------- Iteration      1(   6)  ---------------------------------------


    POTLOK:  cpu time    0.0707: real time    0.0823
    SETDIJ:  cpu time    2.1655: real time    2.1657
    EDDIAG:  cpu time    0.6416: real time    0.6448
  RMM-DIIS:  cpu time    0.3350: real time    0.3351
    ORTHCH:  cpu time    0.0805: real time    0.0815
 BZINTS: Fermi energy:    4.881772;   32.000000 electrons
         Band energy: 0.912511E+02;  BLOECHL correction:   -0.301141
       DOS:  cpu time    0.0816: real time    0.0819
    CHARGE:  cpu time    0.0683: real time    0.0684
    MIXING:  cpu time    0.0022: real time    0.0027
    --------------------------------------------
      LOOP:  cpu time    3.4455: real time    3.4623

 eigenvalue-minimisations  :  4284
 total energy-change (2. order) : 0.3696186E+01  (-0.4764730E+00)
 number of electron      31.9999983 magnetization       6.9829112
 augmentation part       17.5259106 magnetization       5.5913007

 Broyden mixing:
  rms(total) = 0.15402E+01    rms(broyden)= 0.15401E+01
  rms(prec ) = 0.18226E+01
  weight for this iteration     100.00

 eigenvalues of (default mixing * dielectric matrix)
  average eigenvalue GAMMA=   0.4428
  0.4428

 Free energy of the ion-electron system (eV)
  ---------------------------------------------------
  alpha Z        PSCENC =       233.88852653
  Ewald energy   TEWEN  =     -2337.19028399
  -Hartree energ DENC   =      -387.32575252
  -exchange      EXHF   =         0.00000000
  -V(xc)+E(xc)   XCENC  =        11.88201059
  PAW double counting   =      2377.34040540    -2395.14650620
  entropy T*S    EENTRO =         0.00000000
  eigenvalues    EBANDS =        91.25114841
  atomic energy  EATOM  =      2374.36283677
  Solvation  Ediel_sol  =         0.00000000
  ---------------------------------------------------
  free energy    TOTEN  =       -30.93761502 eV

  energy without entropy =      -30.93761502  energy(sigma->0) =      -30.93761502


--------------------------------------------------------------------------------------------------------




--------------------------------------- Iteration      1(   7)  ---------------------------------------


    POTLOK:  cpu time    0.0385: real time    0.0679
    SETDIJ:  cpu time    2.1578: real time    2.1581
    EDDIAG:  cpu time    0.6107: real time    0.6119
  RMM-DIIS:  cpu time    0.3333: real time    0.3344
    ORTHCH:  cpu time    0.0808: real time    0.0809
 BZINTS: Fermi energy:    5.709495;   32.000000 electrons
         Band energy: 0.111536E+03;  BLOECHL correction:   -0.257159
       DOS:  cpu time    0.0753: real time    0.0783
    CHARGE:  cpu time    0.0643: real time    0.0646
    MIXING:  cpu time    0.0022: real time    0.0025
    --------------------------------------------
      LOOP:  cpu time    3.3630: real time    3.3986

 eigenvalue-minimisations  :  4297
 total energy-change (2. order) : 0.2875868E-01  (-0.1930481E-01)
 number of electron      31.9999984 magnetization       8.5051299
 augmentation part       16.4884037 magnetization       7.0823499

 Broyden mixing:
  rms(total) = 0.72315E+00    rms(broyden)= 0.72314E+00
  rms(prec ) = 0.79391E+00
  weight for this iteration     100.00

 eigenvalues of (default mixing * dielectric matrix)
  average eigenvalue GAMMA=   0.8339
  1.0790  0.5888

 Free energy of the ion-electron system (eV)
  ---------------------------------------------------
  alpha Z        PSCENC =       233.88852653
  Ewald energy   TEWEN  =     -2337.19028399
  -Hartree energ DENC   =      -402.23874560
  -exchange      EXHF   =         0.00000000
  -V(xc)+E(xc)   XCENC  =        14.38098310
  PAW double counting   =      2524.30349086    -2549.95169313
  entropy T*S    EENTRO =         0.00000000
  eigenvalues    EBANDS =       111.53602912
  atomic energy  EATOM  =      2374.36283677
  Solvation  Ediel_sol  =         0.00000000
  ---------------------------------------------------
  free energy    TOTEN  =       -30.90885634 eV

  energy without entropy =      -30.90885634  energy(sigma->0) =      -30.90885634


--------------------------------------------------------------------------------------------------------




--------------------------------------- Iteration      1(   8)  ---------------------------------------


    POTLOK:  cpu time    0.0378: real time    0.0758
    SETDIJ:  cpu time    2.1617: real time    2.1619
    EDDIAG:  cpu time    0.6102: real time    0.6137
  RMM-DIIS:  cpu time    0.3471: real time    0.3473
    ORTHCH:  cpu time    0.0807: real time    0.0815
 BZINTS: Fermi energy:    5.564749;   32.000000 electrons
         Band energy: 0.108698E+03;  BLOECHL correction:   -0.260335
       DOS:  cpu time    0.0909: real time    0.0912
    CHARGE:  cpu time    0.0643: real time    0.0643
    MIXING:  cpu time    0.0018: real time    0.0019
    --------------------------------------------
      LOOP:  cpu time    3.3943: real time    3.4375

 eigenvalue-minimisations  :  4213
 total energy-change (2. order) :-0.1574396E+00  (-0.6070973E-02)
 number of electron      31.9999984 magnetization       9.5147158
 augmentation part       16.6538199 magnetization       8.0728401

 Broyden mixing:
  rms(total) = 0.40676E+00    rms(broyden)= 0.40671E+00
  rms(prec ) = 0.41913E+00
  weight for this iteration     100.00

 eigenvalues of (default mixing * dielectric matrix)
  average eigenvalue GAMMA=   1.0247
  1.7616  0.7511  0.5613

 Free energy of the ion-electron system (eV)
  ---------------------------------------------------
  alpha Z        PSCENC =       233.88852653
  Ewald energy   TEWEN  =     -2337.19028399
  -Hartree energ DENC   =      -397.72432214
  -exchange      EXHF   =         0.00000000
  -V(xc)+E(xc)   XCENC  =        15.58344245
  PAW double counting   =      2635.17647806    -2663.86141399
  entropy T*S    EENTRO =         0.00000000
  eigenvalues    EBANDS =       108.69844038
  atomic energy  EATOM  =      2374.36283677
  Solvation  Ediel_sol  =         0.00000000
  ---------------------------------------------------
  free energy    TOTEN  =       -31.06629593 eV

  energy without entropy =      -31.06629593  energy(sigma->0) =      -31.06629593


--------------------------------------------------------------------------------------------------------




--------------------------------------- Iteration      1(   9)  ---------------------------------------


    POTLOK:  cpu time    0.0452: real time    0.0655
    SETDIJ:  cpu time    2.1785: real time    2.1787
    EDDIAG:  cpu time    0.6071: real time    0.6081
  RMM-DIIS:  cpu time    0.3554: real time    0.3566
    ORTHCH:  cpu time    0.0810: real time    0.0820
 BZINTS: Fermi energy:    5.553587;   32.000000 electrons
         Band energy: 0.108248E+03;  BLOECHL correction:   -0.277617
       DOS:  cpu time    0.0779: real time    0.0784
    CHARGE:  cpu time    0.0636: real time    0.0642
    MIXING:  cpu time    0.0020: real time    0.0020
    --------------------------------------------
      LOOP:  cpu time    3.4107: real time    3.4359

 eigenvalue-minimisations  :  4211
 total energy-change (2. order) :-0.1777385E-01  (-0.1543589E-02)
 number of electron      31.9999984 magnetization       9.3088615
 augmentation part       16.6861051 magnetization       7.8145064

 Broyden mixing:
  rms(total) = 0.20239E+00    rms(broyden)= 0.20230E+00
  rms(prec ) = 0.20513E+00
  weight for this iteration     100.00

 eigenvalues of (default mixing * dielectric matrix)
  average eigenvalue GAMMA=   1.0577
  1.8762  0.9052  0.9052  0.5444

 Free energy of the ion-electron system (eV)
  ---------------------------------------------------
  alpha Z        PSCENC =       233.88852653
  Ewald energy   TEWEN  =     -2337.19028399
  -Hartree energ DENC   =      -394.86760963
  -exchange      EXHF   =         0.00000000
  -V(xc)+E(xc)   XCENC  =        16.48865517
  PAW double counting   =      2760.57000485    -2792.58446850
  entropy T*S    EENTRO =         0.00000000
  eigenvalues    EBANDS =       108.24826902
  atomic energy  EATOM  =      2374.36283677
  Solvation  Ediel_sol  =         0.00000000
  ---------------------------------------------------
  free energy    TOTEN  =       -31.08406978 eV

  energy without entropy =      -31.08406978  energy(sigma->0) =      -31.08406978


--------------------------------------------------------------------------------------------------------




--------------------------------------- Iteration      1(  10)  ---------------------------------------


    POTLOK:  cpu time    0.0397: real time    0.0745
    SETDIJ:  cpu time    2.1614: real time    2.1616
    EDDIAG:  cpu time    0.6087: real time    0.6097
  RMM-DIIS:  cpu time    0.3599: real time    0.3625
    ORTHCH:  cpu time    0.0802: real time    0.0816
 BZINTS: Fermi energy:    5.592419;   32.000000 electrons
         Band energy: 0.109407E+03;  BLOECHL correction:   -0.273237
       DOS:  cpu time    0.0737: real time    0.0750
    CHARGE:  cpu time    0.0639: real time    0.0644
    MIXING:  cpu time    0.0021: real time    0.0022
    --------------------------------------------
      LOOP:  cpu time    3.3896: real time    3.4311

 eigenvalue-minimisations  :  4256
 total energy-change (2. order) :-0.2145991E-02  (-0.2744549E-03)
 number of electron      31.9999984 magnetization       9.1804230
 augmentation part       16.6380423 magnetization       7.6813095

 Broyden mixing:
  rms(total) = 0.79577E-01    rms(broyden)= 0.79575E-01
  rms(prec ) = 0.90636E-01
  weight for this iteration     100.00

 eigenvalues of (default mixing * dielectric matrix)
  average eigenvalue GAMMA=   1.2245
  2.4225  1.2136  1.2136  0.5842  0.6887

 Free energy of the ion-electron system (eV)
  ---------------------------------------------------
  alpha Z        PSCENC =       233.88852653
  Ewald energy   TEWEN  =     -2337.19028399
  -Hartree energ DENC   =      -394.89770931
  -exchange      EXHF   =         0.00000000
  -V(xc)+E(xc)   XCENC  =        16.23537865
  PAW double counting   =      2803.91063519    -2836.80269586
  entropy T*S    EENTRO =         0.00000000
  eigenvalues    EBANDS =       109.40709624
  atomic energy  EATOM  =      2374.36283677
  Solvation  Ediel_sol  =         0.00000000
  ---------------------------------------------------
  free energy    TOTEN  =       -31.08621577 eV

  energy without entropy =      -31.08621577  energy(sigma->0) =      -31.08621577


--------------------------------------------------------------------------------------------------------




--------------------------------------- Iteration      1(  11)  ---------------------------------------


    POTLOK:  cpu time    0.0380: real time    0.0642
    SETDIJ:  cpu time    2.1629: real time    2.1632
    EDDIAG:  cpu time    0.6077: real time    0.6085
  RMM-DIIS:  cpu time    0.3559: real time    0.3560
    ORTHCH:  cpu time    0.0807: real time    0.0817
 BZINTS: Fermi energy:    5.571756;   32.000000 electrons
         Band energy: 0.108922E+03;  BLOECHL correction:   -0.273905
       DOS:  cpu time    0.0785: real time    0.0789
    CHARGE:  cpu time    0.0641: real time    0.0641
    MIXING:  cpu time    0.0020: real time    0.0021
    --------------------------------------------
      LOOP:  cpu time    3.3897: real time    3.4187

 eigenvalue-minimisations  :  4330
 total energy-change (2. order) : 0.3308379E-03  (-0.5306474E-04)
 number of electron      31.9999984 magnetization       9.1680314
 augmentation part       16.6569817 magnetization       7.6763774

 Broyden mixing:
  rms(total) = 0.10770E-01    rms(broyden)= 0.10758E-01
  rms(prec ) = 0.11956E-01
  weight for this iteration     100.00

 eigenvalues of (default mixing * dielectric matrix)
  average eigenvalue GAMMA=   1.1514
  2.4214  1.2530  1.2530  0.5805  0.7002  0.7002

 Free energy of the ion-electron system (eV)
  ---------------------------------------------------
  alpha Z        PSCENC =       233.88852653
  Ewald energy   TEWEN  =     -2337.19028399
  -Hartree energ DENC   =      -393.92948322
  -exchange      EXHF   =         0.00000000
  -V(xc)+E(xc)   XCENC  =        16.09007650
  PAW double counting   =      2833.08132494    -2866.31064009
  entropy T*S    EENTRO =         0.00000000
  eigenvalues    EBANDS =       108.92175763
  atomic energy  EATOM  =      2374.36283677
  Solvation  Ediel_sol  =         0.00000000
  ---------------------------------------------------
  free energy    TOTEN  =       -31.08588493 eV

  energy without entropy =      -31.08588493  energy(sigma->0) =      -31.08588493


--------------------------------------------------------------------------------------------------------




--------------------------------------- Iteration      1(  12)  ---------------------------------------


    POTLOK:  cpu time    0.0383: real time    0.0629
    SETDIJ:  cpu time    2.1674: real time    2.1676
    EDDIAG:  cpu time    0.6075: real time    0.6086
  RMM-DIIS:  cpu time    0.3688: real time    0.3702
    ORTHCH:  cpu time    0.0805: real time    0.0806
 BZINTS: Fermi energy:    5.568601;   32.000000 electrons
         Band energy: 0.108850E+03;  BLOECHL correction:   -0.273741
       DOS:  cpu time    0.0770: real time    0.0773
    CHARGE:  cpu time    0.0646: real time    0.0646
    MIXING:  cpu time    0.0023: real time    0.0024
    --------------------------------------------
      LOOP:  cpu time    3.4063: real time    3.4342

 eigenvalue-minimisations  :  4330
 total energy-change (2. order) : 0.3054914E-04  (-0.1537436E-04)
 number of electron      31.9999984 magnetization       9.1621568
 augmentation part       16.6600612 magnetization       7.6711661

 Broyden mixing:
  rms(total) = 0.41085E-02    rms(broyden)= 0.41079E-02
  rms(prec ) = 0.46039E-02
  weight for this iteration     100.00

 eigenvalues of (default mixing * dielectric matrix)
  average eigenvalue GAMMA=   1.1375
  2.4726  1.3845  1.0639  1.0639  0.5788  0.7294  0.6697

 Free energy of the ion-electron system (eV)
  ---------------------------------------------------
  alpha Z        PSCENC =       233.88852653
  Ewald energy   TEWEN  =     -2337.19028399
  -Hartree energ DENC   =      -393.87994077
  -exchange      EXHF   =         0.00000000
  -V(xc)+E(xc)   XCENC  =        16.07522469
  PAW double counting   =      2833.26522748    -2866.45740286
  entropy T*S    EENTRO =         0.00000000
  eigenvalues    EBANDS =       108.84995775
  atomic energy  EATOM  =      2374.36283677
  Solvation  Ediel_sol  =         0.00000000
  ---------------------------------------------------
  free energy    TOTEN  =       -31.08585438 eV

  energy without entropy =      -31.08585438  energy(sigma->0) =      -31.08585438


--------------------------------------------------------------------------------------------------------




--------------------------------------- Iteration      1(  13)  ---------------------------------------


    POTLOK:  cpu time    0.0384: real time    0.0549
    SETDIJ:  cpu time    2.1716: real time    2.1718
    EDDIAG:  cpu time    0.6058: real time    0.6069
  RMM-DIIS:  cpu time    0.3861: real time    0.3863
    ORTHCH:  cpu time    0.0803: real time    0.0814
 BZINTS: Fermi energy:    5.567461;   32.000000 electrons
         Band energy: 0.108824E+03;  BLOECHL correction:   -0.273621
       DOS:  cpu time    0.0797: real time    0.0800
    CHARGE:  cpu time    0.0643: real time    0.0644
    MIXING:  cpu time    0.0024: real time    0.0025
    --------------------------------------------
      LOOP:  cpu time    3.4286: real time    3.4482

 eigenvalue-minimisations  :  4283
 total energy-change (2. order) : 0.1368927E-03  (-0.3920721E-05)
 number of electron      31.9999984 magnetization       9.1639924
 augmentation part       16.6612927 magnetization       7.6723763

 Broyden mixing:
  rms(total) = 0.19185E-02    rms(broyden)= 0.19185E-02
  rms(prec ) = 0.22448E-02
  weight for this iteration     100.00

 eigenvalues of (default mixing * dielectric matrix)
  average eigenvalue GAMMA=   1.1335
  2.4800  1.5340  1.1966  1.1966  0.7325  0.7325  0.5818  0.6138

 Free energy of the ion-electron system (eV)
  ---------------------------------------------------
  alpha Z        PSCENC =       233.88852653
  Ewald energy   TEWEN  =     -2337.19028399
  -Hartree energ DENC   =      -393.84270606
  -exchange      EXHF   =         0.00000000
  -V(xc)+E(xc)   XCENC  =        16.07032212
  PAW double counting   =      2835.65506714    -2868.85374511
  entropy T*S    EENTRO =         0.00000000
  eigenvalues    EBANDS =       108.82426511
  atomic energy  EATOM  =      2374.36283677
  Solvation  Ediel_sol  =         0.00000000
  ---------------------------------------------------
  free energy    TOTEN  =       -31.08571749 eV

  energy without entropy =      -31.08571749  energy(sigma->0) =      -31.08571749


--------------------------------------------------------------------------------------------------------




--------------------------------------- Iteration      1(  14)  ---------------------------------------


    POTLOK:  cpu time    0.0386: real time    0.0643
    SETDIJ:  cpu time    2.1599: real time    2.1602
    EDDIAG:  cpu time    0.6065: real time    0.6073
  RMM-DIIS:  cpu time    0.3913: real time    0.3924
    ORTHCH:  cpu time    0.0808: real time    0.0809
 BZINTS: Fermi energy:    5.567540;   32.000000 electrons
         Band energy: 0.108825E+03;  BLOECHL correction:   -0.273696
       DOS:  cpu time    0.0794: real time    0.0797
    CHARGE:  cpu time    0.0641: real time    0.0642
    MIXING:  cpu time    0.0024: real time    0.0026
    --------------------------------------------
      LOOP:  cpu time    3.4230: real time    3.4514

 eigenvalue-minimisations  :  4194
 total energy-change (2. order) :-0.5890173E-04  (-0.5692587E-06)
 number of electron      31.9999984 magnetization       9.1652045
 augmentation part       16.6610554 magnetization       7.6731636

 Broyden mixing:
  rms(total) = 0.12212E-02    rms(broyden)= 0.12212E-02
  rms(prec ) = 0.13436E-02
  weight for this iteration     100.00

 eigenvalues of (default mixing * dielectric matrix)
  average eigenvalue GAMMA=   1.2574
  2.5334  2.5334  1.3523  1.1138  1.1138  0.7345  0.7345  0.5809  0.6200

 Free energy of the ion-electron system (eV)
  ---------------------------------------------------
  alpha Z        PSCENC =       233.88852653
  Ewald energy   TEWEN  =     -2337.19028399
  -Hartree energ DENC   =      -393.85606718
  -exchange      EXHF   =         0.00000000
  -V(xc)+E(xc)   XCENC  =        16.07220322
  PAW double counting   =      2835.96389511    -2869.15139927
  entropy T*S    EENTRO =         0.00000000
  eigenvalues    EBANDS =       108.82451242
  atomic energy  EATOM  =      2374.36283677
  Solvation  Ediel_sol  =         0.00000000
  ---------------------------------------------------
  free energy    TOTEN  =       -31.08577639 eV

  energy without entropy =      -31.08577639  energy(sigma->0) =      -31.08577639


--------------------------------------------------------------------------------------------------------




--------------------------------------- Iteration      1(  15)  ---------------------------------------


    POTLOK:  cpu time    0.0373: real time    0.0638
    SETDIJ:  cpu time    2.1616: real time    2.1622
    EDDIAG:  cpu time    0.6056: real time    0.6065
  RMM-DIIS:  cpu time    0.3909: real time    0.3919
    ORTHCH:  cpu time    0.0806: real time    0.0808
 BZINTS: Fermi energy:    5.567770;   32.000000 electrons
         Band energy: 0.108829E+03;  BLOECHL correction:   -0.273728
       DOS:  cpu time    0.0783: real time    0.0794
    CHARGE:  cpu time    0.0645: real time    0.0646
    MIXING:  cpu time    0.0026: real time    0.0027
    --------------------------------------------
      LOOP:  cpu time    3.4214: real time    3.4521

 eigenvalue-minimisations  :  3648
 total energy-change (2. order) :-0.3278987E-04  (-0.1160649E-06)
 number of electron      31.9999984 magnetization       9.1650082
 augmentation part       16.6608344 magnetization       7.6728130

 Broyden mixing:
  rms(total) = 0.18752E-03    rms(broyden)= 0.18747E-03
  rms(prec ) = 0.20377E-03
  weight for this iteration     100.00

 eigenvalues of (default mixing * dielectric matrix)
  average eigenvalue GAMMA=   1.2170
  2.6051  2.6051  1.3188  1.1787  0.9123  0.9123  0.7238  0.7238  0.5819  0.6079

 Free energy of the ion-electron system (eV)
  ---------------------------------------------------
  alpha Z        PSCENC =       233.88852653
  Ewald energy   TEWEN  =     -2337.19028399
  -Hartree energ DENC   =      -393.87407670
  -exchange      EXHF   =         0.00000000
  -V(xc)+E(xc)   XCENC  =        16.07321165
  PAW double counting   =      2835.96389274    -2869.13911056
  entropy T*S    EENTRO =         0.00000000
  eigenvalues    EBANDS =       108.82919438
  atomic energy  EATOM  =      2374.36283677
  Solvation  Ediel_sol  =         0.00000000
  ---------------------------------------------------
  free energy    TOTEN  =       -31.08580918 eV

  energy without entropy =      -31.08580918  energy(sigma->0) =      -31.08580918


--------------------------------------------------------------------------------------------------------




--------------------------------------- Iteration      1(  16)  ---------------------------------------


    POTLOK:  cpu time    0.0388: real time    0.0666
    SETDIJ:  cpu time    2.1845: real time    2.1848
    EDDIAG:  cpu time    0.6051: real time    0.6061
  RMM-DIIS:  cpu time    0.3662: real time    0.3681
    ORTHCH:  cpu time    0.0810: real time    0.0813
 BZINTS: Fermi energy:    5.567761;   32.000000 electrons
         Band energy: 0.108829E+03;  BLOECHL correction:   -0.273716
       DOS:  cpu time    0.0781: real time    0.0786
    CHARGE:  cpu time    0.0645: real time    0.0646
    MIXING:  cpu time    0.0027: real time    0.0031
    --------------------------------------------
      LOOP:  cpu time    3.4209: real time    3.4530

 eigenvalue-minimisations  :  2655
 total energy-change (2. order) : 0.9921075E-05  (-0.1567991E-07)
 number of electron      31.9999984 magnetization       9.1650608
 augmentation part       16.6608536 magnetization       7.6729479

 Broyden mixing:
  rms(total) = 0.90109E-04    rms(broyden)= 0.90105E-04
  rms(prec ) = 0.91847E-04
  weight for this iteration     100.00

 eigenvalues of (default mixing * dielectric matrix)
  average eigenvalue GAMMA=   1.1924
  2.6338  2.5501  1.3139  1.2033  1.0673  1.0673  0.7323  0.7323  0.5810  0.6177
  0.6177

 Free energy of the ion-electron system (eV)
  ---------------------------------------------------
  alpha Z        PSCENC =       233.88852653
  Ewald energy   TEWEN  =     -2337.19028399
  -Hartree energ DENC   =      -393.87146867
  -exchange      EXHF   =         0.00000000
  -V(xc)+E(xc)   XCENC  =        16.07331411
  PAW double counting   =      2836.08201069    -2869.25986266
  entropy T*S    EENTRO =         0.00000000
  eigenvalues    EBANDS =       108.82912796
  atomic energy  EATOM  =      2374.36283677
  Solvation  Ediel_sol  =         0.00000000
  ---------------------------------------------------
  free energy    TOTEN  =       -31.08579926 eV

  energy without entropy =      -31.08579926  energy(sigma->0) =      -31.08579926


--------------------------------------------------------------------------------------------------------




--------------------------------------- Iteration      1(  17)  ---------------------------------------


    POTLOK:  cpu time    0.0371: real time    0.0691
    SETDIJ:  cpu time    2.1627: real time    2.1635
    EDDIAG:  cpu time    0.6057: real time    0.6068
  RMM-DIIS:  cpu time    0.3836: real time    0.3850
    ORTHCH:  cpu time    0.0806: real time    0.0808
 BZINTS: Fermi energy:    5.567767;   32.000000 electrons
         Band energy: 0.108829E+03;  BLOECHL correction:   -0.273715
       DOS:  cpu time    0.0793: real time    0.0807
    --------------------------------------------
      LOOP:  cpu time    3.3490: real time    3.3866

 eigenvalue-minimisations  :  1980
 total energy-change (2. order) : 0.9309479E-06  (-0.2588154E-08)
 number of electron      31.9999984 magnetization       9.1650608
 augmentation part       16.6608536 magnetization       7.6729479

 Free energy of the ion-electron system (eV)
  ---------------------------------------------------
  alpha Z        PSCENC =       233.88852653
  Ewald energy   TEWEN  =     -2337.19028399
  -Hartree energ DENC   =      -393.87090344
  -exchange      EXHF   =         0.00000000
  -V(xc)+E(xc)   XCENC  =        16.07346867
  PAW double counting   =      2836.11705990    -2869.29574538
  entropy T*S    EENTRO =         0.00000000
  eigenvalues    EBANDS =       108.82924261
  atomic energy  EATOM  =      2374.36283677
  Solvation  Ediel_sol  =         0.00000000
  ---------------------------------------------------
  free energy    TOTEN  =       -31.08579833 eV

  energy without entropy =      -31.08579833  energy(sigma->0) =      -31.08579833


--------------------------------------------------------------------------------------------------------




 average (electrostatic) potential at core
  the test charge radii are     1.0103
  (the norm of the test charge is              1.0000)
       1 -43.6718       2 -43.6718       3 -43.6718       4 -43.6718
 
 
 
 E-fermi :   5.5678     XC(G=0): -12.7946     alpha+bet :-13.1138

 Fermi energy:         5.5677671438

 spin component 1

 k-point     1 :       0.0000    0.0000    0.0000
  band No.  band energies     occupation 
      1      -2.5881      1.00000
      2       0.8428      1.00000
      3       0.8428      1.00000
      4       0.8428      1.00000
      5       2.2686      1.00000
      6       2.2686      1.00000
      7       2.2686      1.00000
      8       3.2577      1.00000
      9       3.3111      1.00000
     10       3.3111      1.00000
     11       4.4372      1.00000
     12       4.4372      1.00000
     13       4.4945      1.00000
     14       4.4945      1.00000
     15       4.4945      1.00000
     16       4.6087      1.00000
     17       4.6087      1.00000
     18       4.6087      1.00000
     19       5.8265      0.89965
     20       5.8265      0.72520
     21       5.8265      0.44452
     22       6.1477      0.01816
     23       6.1477      0.00026
     24       6.1477      0.00000
     25      12.5762      0.00000
     26      12.5762      0.00000
     27      12.5762      0.00000
     28      23.6348      0.00000
     29      23.6348      0.00000
     30      23.6348      0.00000
     31      25.2528      0.00000
     32      25.2528      0.00000
     33      25.2528      0.00000
     34      28.4779      0.00000
     35      28.4779      0.00000
     36      28.4779      0.00000
     37      30.2153      0.00000
     38      30.2153      0.00000
     39      30.2236      0.00000
     40      32.1022      0.00000
     41      32.1022      0.00000
     42      32.1022      0.00000
     43      35.0698      0.00000
     44      35.0698      0.00000
     45      37.1329      0.00000
     46      37.1799      0.00000
     47      37.1800      0.00000
     48      37.3966      0.00000
     49      37.4041      0.00000
     50      37.4041      0.00000
     51      39.4315      0.00000
     52      39.4315      0.00000
     53      39.4315      0.00000
     54      43.6008      0.00000
     55      43.6008      0.00000
     56      43.6008      0.00000
     57      44.6313      0.00000
     58      44.6313      0.00000
     59      44.6313      0.00000
     60      50.7937      0.00000
     61      50.7937      0.00000
     62      50.7937      0.00000
     63      53.1476      0.00000
     64      54.8309      0.00000

 k-point     2 :       0.2500    0.0000   -0.0000
  band No.  band energies     occupation 
      1      -1.9726      1.00000
      2       0.7527      1.00000
      3       1.1347      1.00000
      4       1.1347      1.00000
      5       2.3508      1.00000
      6       2.3508      1.00000
      7       2.4079      1.00000
      8       3.1154      1.00000
      9       3.2721      1.00000
     10       3.6302      1.00000
     11       3.8252      1.00000
     12       3.8252      1.00000
     13       4.1834      1.00000
     14       4.3097      1.00000
     15       4.4512      1.00000
     16       4.4634      1.00000
     17       4.4634      1.00000
     18       4.5719      1.00000
     19       4.6038      1.00363
     20       4.9991      1.00844
     21       4.9991      1.03350
     22       5.3964      0.39835
     23       7.3057     -0.00234
     24       7.3057      0.00000
     25      13.6496      0.00000
     26      13.6496      0.00000
     27      15.5489      0.00000
     28      20.9537      0.00000
     29      20.9537      0.00000
     30      24.3782      0.00000
     31      24.6671      0.00000
     32      24.6671      0.00000
     33      26.2969      0.00000
     34      26.7400      0.00000
     35      28.6197      0.00000
     36      29.0942      0.00000
     37      29.7577      0.00000
     38      30.1551      0.00000
     39      30.1551      0.00000
     40      32.0722      0.00000
     41      32.8853      0.00000
     42      33.7483      0.00000
     43      34.0764      0.00000
     44      35.2125      0.00000
     45      35.2125      0.00000
     46      37.1034      0.00000
     47      37.2300      0.00000
     48      37.2300      0.00000
     49      38.8285      0.00000
     50      39.4508      0.00000
     51      39.4889      0.00000
     52      41.0888      0.00000
     53      42.0400      0.00000
     54      42.6170      0.00000
     55      43.2979      0.00000
     56      43.2979      0.00000
     57      46.5417      0.00000
     58      46.5417      0.00000
     59      49.0351      0.00000
     60      49.3635      0.00000
     61      49.7546      0.00000
     62      49.7553      0.00000
     63      50.7705      0.00000
     64      52.1990      0.00000

 k-point     3 :       0.5000    0.0000   -0.0000
  band No.  band energies     occupation 
      1      -0.3907      1.00000
      2      -0.3907      1.00000
      3       1.6618      1.00000
      4       1.6618      1.00000
      5       2.3538      1.00000
      6       2.3538      1.00000
      7       2.7542      1.00000
      8       2.7542      1.00000
      9       2.9515      1.00000
     10       2.9515      1.00000
     11       3.1850      1.00000
     12       3.1850      1.00000
     13       4.2858      1.00000
     14       4.2858      1.00000
     15       4.4062      1.00000
     16       4.4062      1.00000
     17       4.4592      1.00000
     18       4.4592      1.00000
     19       4.5000      1.00000
     20       4.5000      1.00000
     21       4.8137      1.02289
     22       4.8137      1.09338
     23       7.7473     -0.02921
     24       7.7473      0.00000
     25      16.2959      0.00000
     26      16.2959      0.00000
     27      17.1497      0.00000
     28      17.1497      0.00000
     29      20.9718      0.00000
     30      20.9718      0.00000
     31      24.7558      0.00000
     32      24.7558      0.00000
     33      26.4371      0.00000
     34      26.4371      0.00000
     35      29.0596      0.00000
     36      29.0596      0.00000
     37      29.0614      0.00000
     38      29.0614      0.00000
     39      31.5620      0.00000
     40      31.5620      0.00000
     41      32.3674      0.00000
     42      32.3674      0.00000
     43      34.6393      0.00000
     44      34.6393      0.00000
     45      35.8739      0.00000
     46      35.8739      0.00000
     47      38.9941      0.00000
     48      38.9941      0.00000
     49      41.4157      0.00000
     50      41.4157      0.00000
     51      41.9579      0.00000
     52      41.9579      0.00000
     53      43.0617      0.00000
     54      43.0617      0.00000
     55      44.3045      0.00000
     56      44.3045      0.00000
     57      46.6065      0.00000
     58      46.6065      0.00000
     59      47.0724      0.00000
     60      47.0724      0.00000
     61      48.1273      0.00000
     62      48.1273      0.00000
     63      48.2875      0.00000
     64      48.2875      0.00000

 k-point     4 :       0.2500    0.2500   -0.0000
  band No.  band energies     occupation 
      1      -0.8443      1.00000
      2       0.7289      1.00000
      3       0.7289      1.00000
      4       1.7724      1.00000
      5       2.3836      1.00000
      6       2.5814      1.00000
      7       2.5814      1.00000
      8       2.9367      1.00000
      9       2.9901      1.00000
     10       3.0165      1.00000
     11       3.0165      1.00000
     12       3.0204      1.00000
     13       4.1802      1.00000
     14       4.2820      1.00000
     15       4.2820      1.00000
     16       4.2946      1.00000
     17       4.5423      1.00000
     18       4.5616      1.00000
     19       4.6597      1.00088
     20       4.6597      1.00325
     21       4.8793      1.02830
     22       5.5118      0.54747
     23       5.5118      0.03594
     24      10.3124      0.00000
     25      12.8889      0.00000
     26      16.1949      0.00000
     27      18.4178      0.00000
     28      18.4178      0.00000
     29      22.2211      0.00000
     30      22.2211      0.00000
     31      23.7170      0.00000
     32      24.2452      0.00000
     33      24.8318      0.00000
     34      26.2349      0.00000
     35      26.2349      0.00000
     36      29.0032      0.00000
     37      30.3966      0.00000
     38      30.3966      0.00000
     39      30.5832      0.00000
     40      32.0761      0.00000
     41      33.8523      0.00000
     42      34.7899      0.00000
     43      34.7899      0.00000
     44      34.8655      0.00000
     45      35.7805      0.00000
     46      36.2209      0.00000
     47      36.2209      0.00000
     48      38.9877      0.00000
     49      40.0081      0.00000
     50      40.6155      0.00000
     51      42.2577      0.00000
     52      42.2577      0.00000
     53      42.7664      0.00000
     54      43.4660      0.00000
     55      43.4660      0.00000
     56      44.0929      0.00000
     57      45.7593      0.00000
     58      46.8713      0.00000
     59      46.8713      0.00000
     60      48.2317      0.00000
     61      49.1555      0.00000
     62      49.1946      0.00000
     63      50.6922      0.00000
     64      50.6922      0.00000

 k-point     5 :      -0.0000    0.0000    0.2500
  band No.  band energies     occupation 
      1      -0.3881      1.00000
      2       1.5163      1.00000
      3       1.6926      1.00000
      4       1.6926      1.00000
      5       2.0176      1.00000
      6       2.3355      1.00000
      7       2.3355      1.00000
      8       2.7893      1.00000
      9       2.9574      1.00000
     10       2.9574      1.00000
     11       3.1809      1.00000
     12       3.6458      1.00000
     13       4.2386      1.00000
     14       4.2840      1.00000
     15       4.3909      1.00000
     16       4.3909      1.00000
     17       4.4249      1.00000
     18       4.4998      1.00356
     19       4.8108      1.04516
     20       4.8108      1.09755
     21       5.6996      0.45403
     22       7.7453     -0.15197
     23       7.7453     -0.00009
     24      10.5631      0.00000
     25      13.1422      0.00000
     26      16.2838      0.00000
     27      16.2838      0.00000
     28      17.1646      0.00000
     29      17.1646      0.00000
     30      19.0183      0.00000
     31      20.9738      0.00000
     32      22.3388      0.00000
     33      24.7524      0.00000
     34      24.7524      0.00000
     35      26.4422      0.00000
     36      28.0011      0.00000
     37      29.0415      0.00000
     38      29.0720      0.00000
     39      31.5535      0.00000
     40      31.5535      0.00000
     41      32.2824      0.00000
     42      32.3644      0.00000
     43      34.6421      0.00000
     44      34.6421      0.00000
     45      35.8741      0.00000
     46      36.9083      0.00000
     47      38.9850      0.00000
     48      40.2514      0.00000
     49      41.4108      0.00000
     50      41.4108      0.00000
     51      41.9733      0.00000
     52      41.9733      0.00000
     53      43.0815      0.00000
     54      44.3075      0.00000
     55      44.3075      0.00000
     56      46.6140      0.00000
     57      47.0630      0.00000
     58      48.1182      0.00000
     59      48.1182      0.00000
     60      48.2823      0.00000
     61      50.4695      0.00000
     62      52.0805      0.00000
     63      52.0805      0.00000
     64      53.8907      0.00000

 k-point     6 :       0.2500   -0.0000    0.2500
  band No.  band energies     occupation 
      1       0.7377      1.00000
      2       0.7377      1.00000
      3       1.6133      1.00000
      4       1.6235      1.00000
      5       1.6379      1.00000
      6       2.3260      1.00000
      7       2.6031      1.00000
      8       2.6031      1.00000
      9       2.8785      1.00000
     10       3.0052      1.00000
     11       3.0052      1.00000
     12       3.7534      1.00000
     13       4.2689      1.00000
     14       4.2689      1.00000
     15       4.5170      1.00000
     16       4.5888      1.00001
     17       4.6595      1.00001
     18       4.6595      1.00575
     19       4.8423      1.06294
     20       5.4175      0.92865
     21       5.5037      0.59425
     22       5.5037      0.30995
     23       7.4484     -0.00370
     24      10.9600      0.00000
     25      15.2371      0.00000
     26      15.9381      0.00000
     27      16.2546      0.00000
     28      18.4179      0.00000
     29      18.4179      0.00000
     30      19.7504      0.00000
     31      20.8522      0.00000
     32      22.2270      0.00000
     33      22.2270      0.00000
     34      24.0273      0.00000
     35      25.4083      0.00000
     36      26.2263      0.00000
     37      26.2263      0.00000
     38      30.3984      0.00000
     39      30.3984      0.00000
     40      30.9273      0.00000
     41      34.4887      0.00000
     42      34.7865      0.00000
     43      34.7865      0.00000
     44      36.2173      0.00000
     45      36.2173      0.00000
     46      37.6755      0.00000
     47      38.3689      0.00000
     48      40.2642      0.00000
     49      41.0432      0.00000
     50      42.2535      0.00000
     51      42.2535      0.00000
     52      43.4772      0.00000
     53      43.4772      0.00000
     54      44.8962      0.00000
     55      45.5678      0.00000
     56      45.6917      0.00000
     57      46.4564      0.00000
     58      46.8743      0.00000
     59      46.8743      0.00000
     60      50.4093      0.00000
     61      50.6874      0.00000
     62      50.6874      0.00000
     63      51.7621      0.00000
     64      51.7621      0.00000

 k-point     7 :      -0.2500   -0.0000    0.2500
  band No.  band energies     occupation 
      1      -0.8428      1.00000
      2       1.6457      1.00000
      3       1.6457      1.00000
      4       1.8012      1.00000
      5       2.3730      1.00000
      6       2.4583      1.00000
      7       2.4583      1.00000
      8       2.9561      1.00000
      9       2.9561      1.00000
     10       2.9832      1.00000
     11       2.9900      1.00000
     12       3.0206      1.00000
     13       4.1794      1.00000
     14       4.2436      1.00000
     15       4.3092      1.00000
     16       4.3092      1.00000
     17       4.5430      1.00000
     18       4.5438      1.00000
     19       4.8785      1.01190
     20       5.3470      0.99330
     21       5.3470      0.65603
     22       8.7946     -0.07012
     23       8.7946     -0.00021
     24      10.3134      0.00000
     25      12.8817      0.00000
     26      14.2046      0.00000
     27      14.2046      0.00000
     28      16.2018      0.00000
     29      18.0719      0.00000
     30      18.0719      0.00000
     31      23.7179      0.00000
     32      24.2433      0.00000
     33      24.8404      0.00000
     34      25.8617      0.00000
     35      25.8617      0.00000
     36      28.9852      0.00000
     37      29.7298      0.00000
     38      29.7298      0.00000
     39      30.5878      0.00000
     40      31.9393      0.00000
     41      31.9393      0.00000
     42      32.0638      0.00000
     43      33.8538      0.00000
     44      34.8673      0.00000
     45      35.7780      0.00000
     46      37.4346      0.00000
     47      37.4346      0.00000
     48      39.0030      0.00000
     49      40.0033      0.00000
     50      40.5261      0.00000
     51      40.5261      0.00000
     52      40.6312      0.00000
     53      42.7716      0.00000
     54      44.0744      0.00000
     55      45.7702      0.00000
     56      47.3586      0.00000
     57      47.3586      0.00000
     58      48.2347      0.00000
     59      49.1503      0.00000
     60      49.1877      0.00000
     61      51.5227      0.00000
     62      53.2061      0.00000
     63      54.1085      0.00000
     64      54.1087      0.00000

 k-point     8 :       0.5000    0.2500    0.2500
  band No.  band energies     occupation 
      1       0.0948      1.00000
      2       1.3003      1.00000
      3       1.5995      1.00000
      4       2.0447      1.00000
      5       2.0721      1.00000
      6       2.3668      1.00000
      7       2.4947      1.00000
      8       2.8167      1.00000
      9       3.0828      1.00000
     10       3.1025      1.00000
     11       3.2389      1.00000
     12       3.7140      1.00000
     13       3.8717      1.00000
     14       3.9820      1.00000
     15       4.1317      1.00000
     16       4.3539      1.00000
     17       4.6030      1.00000
     18       4.6505      1.00000
     19       4.8876      1.02067
     20       4.8996      1.04790
     21       5.2255      0.70099
     22       6.0702     -0.02508
     23       7.7741     -0.00811
     24      10.4267      0.00000
     25      14.5382      0.00000
     26      15.6674      0.00000
     27      17.0192      0.00000
     28      18.9814      0.00000
     29      19.2805      0.00000
     30      19.6732      0.00000
     31      19.9113      0.00000
     32      21.4120      0.00000
     33      22.6073      0.00000
     34      25.2947      0.00000
     35      25.2996      0.00000
     36      25.9996      0.00000
     37      26.6341      0.00000
     38      27.7812      0.00000
     39      29.6633      0.00000
     40      33.0538      0.00000
     41      33.5322      0.00000
     42      35.1263      0.00000
     43      35.3966      0.00000
     44      37.3682      0.00000
     45      37.4103      0.00000
     46      39.4271      0.00000
     47      39.4736      0.00000
     48      40.2157      0.00000
     49      40.7749      0.00000
     50      41.1900      0.00000
     51      42.5906      0.00000
     52      43.4834      0.00000
     53      43.5335      0.00000
     54      44.5083      0.00000
     55      44.9676      0.00000
     56      45.5803      0.00000
     57      47.3433      0.00000
     58      47.4688      0.00000
     59      47.7595      0.00000
     60      48.7308      0.00000
     61      49.4385      0.00000
     62      49.6871      0.00000
     63      49.6967      0.00000
     64      50.4523      0.00000

 k-point     9 :       0.5000    0.5000    0.2500
  band No.  band energies     occupation 
      1       1.0995      1.00000
      2       1.0995      1.00000
      3       1.0995      1.00000
      4       2.4119      1.00000
      5       2.4558      1.00000
      6       2.4558      1.00000
      7       2.6721      1.00000
      8       2.6721      1.00000
      9       2.6721      1.00000
     10       3.6994      1.00000
     11       3.6994      1.00000
     12       3.6994      1.00000
     13       3.7345      1.00000
     14       3.7345      1.00000
     15       3.7345      1.00000
     16       4.4040      1.00000
     17       4.4040      1.00000
     18       4.4040      1.00000
     19       4.6416      1.00649
     20       4.6416      1.01043
     21       5.6905      0.53482
     22       5.6905      0.11554
     23       5.6905      0.02216
     24      13.9247      0.00000
     25      13.9485      0.00000
     26      13.9485      0.00000
     27      16.0049      0.00000
     28      22.1779      0.00000
     29      22.1779      0.00000
     30      22.1779      0.00000
     31      22.1999      0.00000
     32      22.1999      0.00000
     33      22.1999      0.00000
     34      22.7460      0.00000
     35      22.7460      0.00000
     36      22.7460      0.00000
     37      25.0205      0.00000
     38      25.0205      0.00000
     39      25.0205      0.00000
     40      38.7493      0.00000
     41      38.7493      0.00000
     42      38.7493      0.00000
     43      38.7514      0.00000
     44      38.7514      0.00000
     45      38.7514      0.00000
     46      38.9758      0.00000
[...]
  314        m_sumb_d                              0.000114                            5   3
  315        forhar                                0.001364                            2   3
  316          m_sumb_d                              0.000601                          2   4
  317        strehar                               0.000629                            1   3
  318          m_sumb_d                              0.000473                          1   4
  319        chggra                                0.003714                            1   3
  320          fft3d_mpi                             0.002523                          3   4
  321            fftbas_plan_mpi                       0.002447                        3   5
  322              dfftw_execute                         0.000311                      9   6
  323              map_backward                          0.000276                      2   6
  324                map_gather                            0.000023                    1   7
  325                m_alltoallv_z                         0.000192                    1   7
  326                map_scatter                           0.000024                    1   7
  327              map_forward                           0.001156                      4   6
  328                map_gather                            0.000043                    2   7
  329                m_alltoallv_z                         0.000972                    2   7
  330                map_scatter                           0.000066                    2   7
  331          m_sumb_d                              0.000051                          2   4
  332          pothar                                0.000079                          1   4
  333            m_sumb_d                              0.000027                        1   5
  334        brmix                                 0.002826                            1   3
  335          m_sumb_d                              0.000086                          6   4
  336          brpre                                 0.000025                          2   4
  337          setg0                                 0.000125                          1   4
  338          broyd                                 0.001893                          1   4
  339            m_sumb_d                              0.000400                       19   5
  340            brget                                 0.000303                       69   5
  341            brsav                                 0.000078                       17   5
  342        m_bcast_d                             0.000266                            2   3
  343      potlok                                0.029075                              1   2
  344        fft3d_mpi                             0.017528                           26   3
  345          fftbas_plan_mpi                       0.016354                         26   4
  346            dfftw_execute                         0.003035                       78   5
  347            map_forward                           0.004354                       28   5
  348              map_gather                            0.000257                     16   6
  349              m_alltoallv_z                         0.002977                     16   6
  350              map_scatter                           0.000569                     16   6
  351            map_backward                          0.003412                       24   5
  352              map_gather                            0.000289                     12   6
  353              m_alltoallv_z                         0.002396                     12   6
  354              map_scatter                           0.000300                     12   6
  355        m_sumb_d                              0.000116                            5   3
  356        pothar                                0.000080                            1   3
  357          m_sumb_d                              0.000027                          1   4
  358        m_bcast_d                             0.000385                            2   3
  359      potlok_metagga                        0.000004                              1   2
  360      set_dd_magatom                        0.000004                              1   2
  361      set_dd_paw                            2.111750                              1   2
  362        set_rsgf_all                          0.000004                            1   3
  363        m_sumb_d                              2.111539                            7   3
  364      augmentation_charge                   0.005837                              1   2
  365        fft3d_mpi                             0.001274                            2   3
  366          fftbas_plan_mpi                       0.001220                          2   4
  367            dfftw_execute                         0.000201                        6   5
  368            map_backward                          0.000587                        4   5
  369              map_gather                            0.000047                      2   6
  370              m_alltoallv_z                         0.000423                      2   6
  371              map_scatter                           0.000045                      2   6
  372      densta                                2.769395                              1   2
 
 Flat profile
 ============
 
             routine name                   CPU           calls
 ---------------------------------------------------------------
 total_time                             66.350272           1
 m_sumb_d                               36.920056        5324
 eddav                                  15.722990           5
 sphpro_fast                             6.339047           2
 bg_pdssyex_zheevx                       5.867817         312
 densta                                  4.108944          18
 fft3d                                   2.368785        3305
 m_alltoall_d                            1.176353        6919
 elmin                                   1.085771           1
 set_charge                              0.352654          13
 m_bcast_z                               0.349347        2125
 bg_ppotrf_trtri                         0.343813         338
 orth1                                   0.220478        1253
 fftwav                                  0.219225        1975
 vhamil                                  0.217875        1330
 potlok                                  0.166775          14
 proj1                                   0.146689        1143
 eccp                                    0.146248        1301
 inisym                                  0.138516           1
 lincom_slice                            0.134281         650
 setdij_                                 0.124514          41
 m_alltoallv_z                           0.114153         513
 gemm                                    0.109337        4072
 fftbas_plan_mpi                         0.094940         459
 orth1_nosubindex                        0.093632         650
 redis_pw                                0.075912        3125
 i2                                      0.075525         557
 vnlac0                                  0.074368        1018
 hamiltmu                                0.073754        1018
 redis_proj                              0.073002        3794
 augmentation_charge                     0.072308          14
 w1_copy                                 0.071946        3054
 fftext_mpi                              0.071205        1330
 w1_daxpy                                0.071069        1104
 phase                                   0.065176         586
 w1_dscal                                0.061383        1287
 spher                                   0.059109          20
 m_bcast_d                               0.056870         955
 eddiag                                  0.056857          12
 dfftw_execute                           0.056297        1377
 crexp_mul_wave                          0.053353        4572
 fft3d_mpi                               0.051427        1789
 work_mul_crexp                          0.048833        4072
 i3                                      0.048520         557
 newband                                 0.047881        1460
 eddrmm                                  0.045660          12
 overl                                   0.037666        1442
 pw_charge                               0.035145         338
 orthch                                  0.034208          13
 kinhamil                                0.032029        1330
 zhegv                                   0.030298         245
 force_and_stress                        0.027720           1
 orth1_distri                            0.026793         650
 lincom_distri                           0.026631         650
 overl1                                  0.025431        1511
 fftwav_mpi                              0.025281        1975
 apply_precond                           0.020349        1149
 m_sum_g                                 0.019619        1300
 cnorma                                  0.019577         859
 soft_charge                             0.016656          13
 eccp_nl                                 0.015429         859
 map_scatter                             0.015054         513
 w1_gemv                                 0.014131         986
 w1_projall                              0.011974         888
 map_gather                              0.011472         513
 i1                                      0.011389         557
 fornl                                   0.011274           1
 recon_slice                             0.011257         650
 broyd                                   0.009843          13
 setup_precond                           0.009372         442
 map_backward                            0.009194         482
 map_forward                             0.008552         436
 hamilt_local                            0.008333         312
 distri_slice                            0.008277         650
 w1_gaxpy                                0.007962         511
 brmix                                   0.007592          13
 strenl                                  0.005851           1
 truncate_high_frequency_w1              0.005340        1460
 fewald                                  0.005291           1
 choleski                                0.004401         338
 w1_dot                                  0.004154         307
 set_dd_paw                              0.003132          15
 depsum                                  0.002875          13
 brget                                   0.002211         501
 bg_change_diagonale                     0.002193         312
 setg0                                   0.002011          15
 fft_gq                                  0.001150          13
 shift_bands_between_low_high            0.001117         312
 pothar                                  0.001062          15
 chggra                                  0.001061           1
 brgrid                                  0.001052           1
 rsp                                     0.000881           1
 forhar                                  0.000763           2
 brsav                                   0.000748         145
 brpre                                   0.000667          26
 proj                                    0.000421          13
 forloc                                  0.000356           1
 strelo                                  0.000338           1
 stufak                                  0.000264           1
 fordep                                  0.000200           1
 strkin                                  0.000184           1
 strehar                                 0.000156           1
 crpa_reader                             0.000126           1
 set_rsgf_all                            0.000079          15
 posmap                                  0.000077           2
 vectorpot                               0.000070          14
 set_dd_magatom                          0.000060          15
 potlok_metagga                          0.000058          14
 rcp                                     0.000051           1
 FERMAT_RAZOR                            0.000021           1
 rotate_active_occupied_orbital          0.000011           1
 redis_pw_over_bands                     0.000003           1
 ---------------------------------------------------------------
  summed up times    144.819910049438     
 
 Accumulative profile
 ====================
 
             routine name                   CPU           calls
 ---------------------------------------------------------------
 total_time                            144.819910           1
 elmin                                  64.077436           1
 m_sumb_d                               36.920056        5324
 set_dd_paw                             32.452177          15
 eddav                                  19.571460           5
 eddiag                                  7.321763          12
 sphpro_fast                             6.342486           2
 bg_pdssyex_zheevx                       5.867817         312
 eddrmm                                  4.366507          12
 densta                                  4.108944          18
 force_and_stress                        2.488424           1
 fft3d                                   2.368785        3305
 fftwav_mpi                              1.658116        1975
 fftwav                                  1.632834        1975
 fft3d_mpi                               1.316265        1789
 hamiltmu                                1.295040        1018
 m_alltoall_d                            1.176353        6919
 kinhamil                                1.083733        1330
 orthch                                  1.078352          13
 fftext_mpi                              1.051704        1330
 set_charge                              0.844104          13
 redis_pw                                0.779192        3125
 i2                                      0.628975         557
 redis_proj                              0.546075        3794
 newband                                 0.536552        1460
 m_sum_g                                 0.507729        1300
 lincom_distri                           0.447623         650
 potlok                                  0.436175          14
 soft_charge                             0.372303          13
 orth1_distri                            0.360976         650
 m_bcast_z                               0.349347        2125
 choleski                                0.348214         338
 bg_ppotrf_trtri                         0.343813         338
 hamilt_local                            0.339463         312
 fftbas_plan_mpi                         0.309663         459
 i3                                      0.304792         557
 vnlac0                                  0.232538        1018
 orth1                                   0.220478        1253
 vhamil                                  0.217875        1330
 proj1                                   0.200042        1143
 w1_projall                              0.176207         888
 eccp                                    0.146248        1301
 inisym                                  0.138593           1
 setdij_                                 0.135222          41
 lincom_slice                            0.134281         650
 m_alltoallv_z                           0.114153         513
 gemm                                    0.109337        4072
 strenl                                  0.103451           1
 orth1_nosubindex                        0.093632         650
 augmentation_charge                     0.091719          14
 map_backward                            0.084888         482
 map_forward                             0.073538         436
 w1_copy                                 0.071946        3054
 w1_daxpy                                0.071069        1104
 phase                                   0.065176         586
 w1_dscal                                0.061383        1287
 spher                                   0.059109          20
 m_bcast_d                               0.056870         955
 dfftw_execute                           0.056297        1377
 crexp_mul_wave                          0.053353        4572
 work_mul_crexp                          0.048833        4072
 overl                                   0.037666        1442
 pw_charge                               0.035145         338
 cnorma                                  0.035006         859
 zhegv                                   0.030298         245
 fft_gq                                  0.030164          13
 brmix                                   0.029378          13
 overl1                                  0.025431        1511
 w1_gemv                                 0.021291         986
 apply_precond                           0.020349        1149
 fordep                                  0.019757           1
 i1                                      0.018667         557
 broyd                                   0.017384          13
 eccp_nl                                 0.015429         859
 map_scatter                             0.015054         513
 fornl                                   0.012798           1
 map_gather                              0.011472         513
 recon_slice                             0.011257         650
 setup_precond                           0.009372         442
 distri_slice                            0.008277         650
 w1_gaxpy                                0.007962         511
 depsum                                  0.006426          13
 fewald                                  0.006413           1
 truncate_high_frequency_w1              0.005340        1460
 w1_dot                                  0.004154         307
 proj                                    0.004001          13
 chggra                                  0.003714           1
 brget                                   0.002211         501
 bg_change_diagonale                     0.002193         312
 setg0                                   0.002011          15
 pothar                                  0.001897          15
 forhar                                  0.001364           2
 shift_bands_between_low_high            0.001117         312
 strkin                                  0.001096           1
 strelo                                  0.001064           1
 brgrid                                  0.001052           1
 rsp                                     0.000881           1
 brsav                                   0.000748         145
 brpre                                   0.000667          26
 strehar                                 0.000629           1
 forloc                                  0.000553           1
 stufak                                  0.000264           1
 crpa_reader                             0.000126           1
 set_rsgf_all                            0.000079          15
 posmap                                  0.000077           2
 vectorpot                               0.000070          14
 set_dd_magatom                          0.000060          15
 potlok_metagga                          0.000058          14
 rcp                                     0.000051           1
 FERMAT_RAZOR                            0.000021           1
 rotate_active_occupied_orbital          0.000011           1
 redis_pw_over_bands                     0.000003           1
 ---------------------------------------------------------------
 
Profiling took   0.237756  0.270236  0.007189  0.005694 seconds
Profiling took   0.258476 seconds
