 vasp.6.2.1 16May21 (build Oct 27 2021 18:14:32) complex                        
  
 executed on             LinuxIFC date 2021.11.21  15:04:50
 running on    4 total cores
 distrk:  each k-point on    4 cores,    1 groups
 distr:  one band on NCORE=   4 cores,    1 groups


--------------------------------------------------------------------------------------------------------


 INCAR:
   ALGO = All
   EDIFF = 1e-05
   EDIFFG = -0.02
   ENAUG = 1360.0
   ENCUT = 680.0
   GGA = Pe
   HFSCREEN = 0.2
   IBRION = 2
   ISIF = 3
   ISMEAR = -5
   ISPIN = 1
   KSPACING = 0.5
   LAECHG = True
   LASPH = True
   LCHARG = False
   LELF = True
   LHFCALC = True
   LMIXTAU = True
   LOPTICS = True
   LORBIT = 11
   LREAL = False
   LVTOT = True
   LWAVE = False
   NBANDS = 11
   NCORE = 4
   NEDOS = 5062
   NELM = 200
   NELMIN = 5
   NSW = 0
   PREC = Accurate
   PRECFOCK = Fast
   SIGMA = 0.05

 POTCAR:    PAW_PBE Si 05Jan2001                  
 WARNING: For LVTOT=.TRUE., VASP.5.x writes the TOTAL local potential to the
     file LOCPOT. If you want only the Hartree contributions, use LVHAR=.TRUE.
     instead. 

 POTCAR:    PAW_PBE Si 05Jan2001                  
   VRHFIN =Si: s2p2                                                                                 
   LEXCH  = PE                                                                                      
   EATOM  =   103.0669 eV,    7.5752 Ry                                                             
                                                                                                    
   TITEL  = PAW_PBE Si 05Jan2001                                                                    
   LULTRA =        F    use ultrasoft PP ?                                                          
   IUNSCR =        1    unscreen: 0-lin 1-nonlin 2-no                                               
   RPACOR =    1.500    partial core radius                                                         
   POMASS =   28.085; ZVAL   =    4.000    mass and valenz                                          
   RCORE  =    1.900    outmost cutoff radius                                                       
   RWIGS  =    2.480; RWIGS  =    1.312    wigner-seitz radius (au A)                               
   ENMAX  =  245.345; ENMIN  =  184.009 eV                                                          
   ICORE  =        2    local potential                                                             
   LCOR   =        T    correct aug charges                                                         
   LPAW   =        T    paw PP                                                                      
   EAUG   =  322.069                                                                                
   DEXC   =    0.000                                                                                
   RMAX   =    1.950    core radius for proj-oper                                                   
   RAUG   =    1.300    factor for augmentation sphere                                              
   RDEP   =    1.993    radius for radial grids                                                     
   RDEPT  =    1.837    core radius for aug-charge                                                  
                                                                                                    
   Atomic configuration                                                                             
    6 entries                                                                                       
     n  l   j            E        occ.                                                              
     1  0  0.50     -1785.8828   2.0000                                                             
     2  0  0.50      -139.4969   2.0000                                                             
     2  1  1.50       -95.5546   6.0000                                                             
     3  0  0.50       -10.8127   2.0000                                                             
     3  1  0.50        -4.0811   2.0000                                                             
     3  2  1.50        -4.0817   0.0000                                                             
   Description                                                                                      
     l       E           TYP  RCUT    TYP  RCUT                                                     
     0    -10.8127223     23  1.900                                                                 
     0     -7.6451159     23  1.900                                                                 
     1     -4.0811372     23  1.900                                                                 
     1      2.4879257     23  1.900                                                                 
     2     -4.0817478      7  1.900                                                                 
  local pseudopotential read in
  partial core-charges read in
  partial kinetic energy density read in
  atomic valenz-charges read in
  non local Contribution for L=           0  read in
    real space projection operators read in
  non local Contribution for L=           0  read in
    real space projection operators read in
  non local Contribution for L=           1  read in
    real space projection operators read in
  non local Contribution for L=           1  read in
    real space projection operators read in
    PAW grid and wavefunctions read in
 
   number of l-projection  operators is LMAX  =           4
   number of lm-projection operators is LMMAX =           8
 
  PAW_PBE Si 05Jan2001                  :
 energy of atom  1       EATOM= -103.0669
 kinetic energy error for atom=    0.0003 (will be added to EATOM!!)
 
 
 POSCAR: Si2
  positions in direct lattice
  No initial velocities read in
 exchange correlation table for  LEXCH =        8
   RHO(1)=    0.500       N(1)  =     2000
   RHO(2)=  100.500       N(2)  =     4000
 


--------------------------------------------------------------------------------------------------------


 ion  position               nearest neighbor table
   1  0.250  0.250  0.250-   2 2.37   2 2.37   2 2.37   2 2.37
   2  0.000  0.000  0.000-   1 2.37   1 2.37   1 2.37   1 2.37
 
  LATTYP: Found a face centered cubic cell.
 ALAT       =     5.4687280757
  
  Lattice vectors:
  
 A1 = (   3.3488980000,   0.0000000000,   1.9334870000)
 A2 = (   1.1162990000,   3.1573720000,   1.9334870000)
 A3 = (   0.0000000000,   0.0000000000,   3.8669750000)


Analysis of symmetry for initial positions (statically):
=====================================================================
 Subroutine PRICEL returns:
 Original cell was already a primitive cell.
 

 Routine SETGRP: Setting up the symmetry group for a 
 face centered cubic supercell.


 Subroutine GETGRP returns: Found 48 space group operations
 (whereof 24 operations were pure point group operations)
 out of a pool of 48 trial point group operations.


The static configuration has the point symmetry T_d .
 The point group associated with its full space group is O_h .


Analysis of symmetry for dynamics (positions and initial velocities):
=====================================================================
 Subroutine PRICEL returns:
 Original cell was already a primitive cell.
 

 Routine SETGRP: Setting up the symmetry group for a 
 face centered cubic supercell.


 Subroutine GETGRP returns: Found 48 space group operations
 (whereof 24 operations were pure point group operations)
 out of a pool of 48 trial point group operations.


The dynamic configuration has the point symmetry T_d .
 The point group associated with its full space group is O_h .


 Subroutine INISYM returns: Found 48 space group operations
 (whereof 24 operations are pure point group operations),
 and found     1 'primitive' translations


----------------------------------------------------------------------------------------

                                     Primitive cell                                     

  volume of cell :      40.8883

  direct lattice vectors                    reciprocal lattice vectors
     3.348898000  0.000000000  1.933487000     0.298605691 -0.105573000  0.000000000
     1.116299000  3.157372000  1.933487000     0.000000000  0.316719094  0.000000000
     0.000000000  0.000000000  3.866975000    -0.149302807 -0.105573020  0.258600069

  length of vectors
     3.866974243  3.866974707  3.866975000     0.316719145  0.316719094  0.316719096

  position of ions in fractional coordinates (direct lattice)
     0.250000000  0.250000000  0.250000000
     0.000000000  0.000000000  0.000000000

  ion indices of the primitive-cell ions
   primitive index   ion index
                 1           1
                 2           2

----------------------------------------------------------------------------------------

 
 -----------------------------------------------------------------------------
|                                                                             |
|           W    W    AA    RRRRR   N    N  II  N    N   GGGG   !!!           |
|           W    W   A  A   R    R  NN   N  II  NN   N  G    G  !!!           |
|           W    W  A    A  R    R  N N  N  II  N N  N  G       !!!           |
|           W WW W  AAAAAA  RRRRR   N  N N  II  N  N N  G  GGG   !            |
|           WW  WW  A    A  R   R   N   NN  II  N   NN  G    G                |
|           W    W  A    A  R    R  N    N  II  N    N   GGGG   !!!           |
|                                                                             |
|     The requested file  could not be found or opened for reading            |
|     k-point information. Automatic k-point generation is used as a          |
|     fallback, which may lead to unwanted results.                           |
|                                                                             |
 -----------------------------------------------------------------------------

 

Automatic generation of k-mesh.
 Grid dimensions derived from KSPACING:
 generate k-points for:    4    4    4

 Generating k-lattice:

  Cartesian coordinates                     Fractional coordinates (reciprocal lattice)
     0.074651423 -0.026393250  0.000000000     0.250000000 -0.000000000  0.000000000
     0.000000000  0.079179774  0.000000000     0.000000000  0.250000000  0.000000000
    -0.037325702 -0.026393255  0.064650017     0.000000000  0.000000000  0.250000000

  Length of vectors
     0.079179786  0.079179774  0.079179774

  Shift w.r.t. Gamma in fractional coordinates (k-lattice)
     0.000000000  0.000000000  0.000000000

 TETIRR: Found      9 inequivalent tetrahedra from      384
 
 Subroutine IBZKPT returns following result:
 ===========================================
 
 Found      8 irreducible k-points:
 
 Following reciprocal coordinates:
            Coordinates               Weight
  0.000000  0.000000  0.000000      1.000000
  0.250000  0.000000  0.000000      8.000000
  0.500000  0.000000  0.000000      4.000000
  0.250000  0.250000  0.000000      6.000000
  0.500000  0.250000  0.000000     24.000000
 -0.250000  0.250000  0.000000     12.000000
  0.500000  0.500000  0.000000      3.000000
 -0.250000  0.500000  0.250000      6.000000
 
 Following cartesian coordinates:
            Coordinates               Weight
  0.000000  0.000000  0.000000      1.000000
  0.074651 -0.026393  0.000000      8.000000
  0.149303 -0.052786  0.000000      4.000000
  0.074651  0.052787  0.000000      6.000000
  0.149303  0.026393  0.000000     24.000000
 -0.074651  0.105573  0.000000     12.000000
  0.149303  0.105573  0.000000      3.000000
 -0.111977  0.158360  0.064650      6.000000
 
 
 Subroutine IBZKPT_HF returns following result:
 ==============================================
 
 Found     64 k-points in 1st BZ
 the following     64 k-points will be used (e.g. in the exchange kernel)
 Following reciprocal coordinates:   # in IRBZ
  0.000000  0.000000  0.000000    0.01562500   1 t-inv F
  0.250000  0.000000  0.000000    0.01562500   2 t-inv F
  0.500000  0.000000  0.000000    0.01562500   3 t-inv F
  0.250000  0.250000  0.000000    0.01562500   4 t-inv F
  0.500000  0.250000  0.000000    0.01562500   5 t-inv F
 -0.250000  0.250000  0.000000    0.01562500   6 t-inv F
  0.500000  0.500000  0.000000    0.01562500   7 t-inv F
 -0.250000  0.500000  0.250000    0.01562500   8 t-inv F
  0.000000  0.250000  0.000000    0.01562500   2 t-inv F
  0.000000  0.000000  0.250000    0.01562500   2 t-inv F
 -0.250000 -0.250000 -0.250000    0.01562500   2 t-inv F
 -0.250000 -0.000000  0.000000    0.01562500   2 t-inv F
  0.000000 -0.250000 -0.000000    0.01562500   2 t-inv F
 -0.000000  0.000000 -0.250000    0.01562500   2 t-inv F
  0.250000  0.250000  0.250000    0.01562500   2 t-inv F
  0.000000  0.500000  0.000000    0.01562500   3 t-inv F
  0.000000  0.000000  0.500000    0.01562500   3 t-inv F
 -0.500000 -0.500000 -0.500000    0.01562500   3 t-inv F
  0.000000  0.250000  0.250000    0.01562500   4 t-inv F
  0.250000  0.000000  0.250000    0.01562500   4 t-inv F
 -0.250000 -0.250000  0.000000    0.01562500   4 t-inv F
 -0.250000 -0.000000 -0.250000    0.01562500   4 t-inv F
  0.000000 -0.250000 -0.250000    0.01562500   4 t-inv F
  0.000000  0.500000  0.250000    0.01562500   5 t-inv F
  0.250000  0.000000  0.500000    0.01562500   5 t-inv F
 -0.250000 -0.250000  0.250000    0.01562500   5 t-inv F
 -0.500000 -0.250000 -0.500000    0.01562500   5 t-inv F
  0.250000  0.500000  0.000000    0.01562500   5 t-inv F
  0.250000 -0.250000 -0.250000    0.01562500   5 t-inv F
 -0.500000 -0.500000 -0.250000    0.01562500   5 t-inv F
  0.000000  0.250000  0.500000    0.01562500   5 t-inv F
 -0.250000  0.250000 -0.250000    0.01562500   5 t-inv F
 -0.250000 -0.500000 -0.500000    0.01562500   5 t-inv F
  0.500000  0.000000  0.250000    0.01562500   5 t-inv F
 -0.500000 -0.250000  0.000000    0.01562500   5 t-inv F
  0.000000 -0.500000 -0.250000    0.01562500   5 t-inv F
 -0.250000  0.000000 -0.500000    0.01562500   5 t-inv F
  0.250000  0.250000 -0.250000    0.01562500   5 t-inv F
  0.500000  0.250000  0.500000    0.01562500   5 t-inv F
 -0.250000 -0.500000  0.000000    0.01562500   5 t-inv F
 -0.250000  0.250000  0.250000    0.01562500   5 t-inv F
  0.500000  0.500000  0.250000    0.01562500   5 t-inv F
  0.000000 -0.250000 -0.500000    0.01562500   5 t-inv F
  0.250000 -0.250000  0.250000    0.01562500   5 t-inv F
  0.250000  0.500000  0.500000    0.01562500   5 t-inv F
 -0.500000  0.000000 -0.250000    0.01562500   5 t-inv F
  0.000000 -0.250000  0.250000    0.01562500   6 t-inv F
  0.250000  0.000000 -0.250000    0.01562500   6 t-inv F
 -0.250000 -0.250000 -0.500000    0.01562500   6 t-inv F
  0.250000  0.500000  0.250000    0.01562500   6 t-inv F
  0.250000 -0.250000  0.000000    0.01562500   6 t-inv F
 -0.500000 -0.250000 -0.250000    0.01562500   6 t-inv F
  0.250000  0.250000  0.500000    0.01562500   6 t-inv F
  0.000000  0.250000 -0.250000    0.01562500   6 t-inv F
 -0.250000 -0.500000 -0.250000    0.01562500   6 t-inv F
  0.500000  0.250000  0.250000    0.01562500   6 t-inv F
 -0.250000  0.000000  0.250000    0.01562500   6 t-inv F
  0.000000  0.500000  0.500000    0.01562500   7 t-inv F
  0.500000  0.000000  0.500000    0.01562500   7 t-inv F
  0.250000 -0.250000  0.500000    0.01562500   8 t-inv F
  0.500000  0.250000 -0.250000    0.01562500   8 t-inv F
 -0.500000 -0.250000 -0.750000    0.01562500   8 t-inv F
  0.250000 -0.500000 -0.250000    0.01562500   8 t-inv F
 -0.250000  0.250000 -0.500000    0.01562500   8 t-inv F


--------------------------------------------------------------------------------------------------------




 Dimension of arrays:
   k-points           NKPTS =      8   k-points in BZ     NKDIM =     64   number of bands    NBANDS=     11
   number of dos      NEDOS =   5062   number of ions     NIONS =      2
   non local maximal  LDIM  =      4   non local SUM 2l+1 LMDIM =      8
   total plane-waves  NPLWV =  46656
   max r-space proj   IRMAX =      1   max aug-charges    IRDMAX=  38346
   dimension x,y,z NGX =    36 NGY =   36 NGZ =   36
   dimension x,y,z NGXF=    72 NGYF=   72 NGZF=   72
   support grid    NGXF=    72 NGYF=   72 NGZF=   72
   ions per type =               2
   NGX,Y,Z   is equivalent  to a cutoff of  15.48, 15.48, 15.48 a.u.
   NGXF,Y,Z  is equivalent  to a cutoff of  30.95, 30.95, 30.95 a.u.

 SYSTEM =  unknown system                          
 POSCAR =  Si2                                     

 Startparameter for this run:
   NWRITE =      2    write-flag & timer
   PREC   = accura    normal or accurate (medium, high low for compatibility)
   ISTART =      0    job   : 0-new  1-cont  2-samecut
   ICHARG =      2    charge: 1-file 2-atom 10-const
   ISPIN  =      1    spin polarized calculation?
   LNONCOLLINEAR =      F non collinear calculations
   LSORBIT =      F    spin-orbit coupling
   INIWAV =      1    electr: 0-lowe 1-rand  2-diag
   LASPH  =      T    aspherical Exc in radial PAW
 Electronic Relaxation 1
   ENCUT  =  680.0 eV  49.98 Ry    7.07 a.u.   8.22  8.22  8.22*2*pi/ulx,y,z
   ENINI  =  680.0     initial cutoff
   ENAUG  = 1360.0 eV  augmentation charge cutoff
   NELM   =    200;   NELMIN=  5; NELMDL= -5     # of ELM steps 
   EDIFF  = 0.1E-04   stopping-criterion for ELM
   LREAL  =      F    real-space projection
   NLSPLINE    = F    spline interpolate recip. space projectors
   LCOMPAT=      F    compatible to vasp.4.4
   GGA_COMPAT  = T    GGA compatible to vasp.4.4-vasp.4.6
   LMAXPAW     = -100 max onsite density
   LMAXMIX     =    2 max onsite mixed and CHGCAR
   VOSKOWN=      0    Vosko Wilk Nusair interpolation
   ROPT   =    0.00000
 Ionic relaxation
   EDIFFG = -.2E-01   stopping-criterion for IOM
   NSW    =      0    number of steps for IOM
   NBLOCK =      1;   KBLOCK =      1    inner block; outer block 
   IBRION =     -1    ionic relax: 0-MD 1-quasi-New 2-CG
   NFREE  =      1    steps in history (QN), initial steepest desc. (CG)
   ISIF   =      3    stress and relaxation
   IWAVPR =     10    prediction:  0-non 1-charg 2-wave 3-comb
   ISYM   =      3    0-nonsym 1-usesym 2-fastsym
   LCORR  =      T    Harris-Foulkes like correction to forces

   POTIM  = 0.5000    time-step for ionic-motion
   TEIN   =    0.0    initial temperature
   TEBEG  =    0.0;   TEEND  =   0.0 temperature during run
   SMASS  =  -3.00    Nose mass-parameter (am)
   estimated Nose-frequenzy (Omega)   =  0.10E-29 period in steps = 0.13E+47 mass=  -0.342E-27a.u.
   SCALEE = 1.0000    scale energy and forces
   NPACO  =    256;   APACO  = 16.0  distance and # of slots for P.C.
   PSTRESS=    0.0 pullay stress

  Mass of Ions in am
   POMASS =  28.09
  Ionic Valenz
   ZVAL   =   4.00
  Atomic Wigner-Seitz radii
   RWIGS  =  -1.00
  virtual crystal weights 
   VCA    =   1.00
   NELECT =       8.0000    total number of electrons
   NUPDOWN=      -1.0000    fix difference up-down

 DOS related values:
   EMIN   =  10.00;   EMAX   =-10.00  energy-range for DOS
   EFERMI =   0.00
   ISMEAR =    -5;   SIGMA  =   0.05  broadening in eV -4-tet -1-fermi 0-gaus

 Electronic relaxation 2 (details)
   IALGO  =     58    algorithm
   LDIAG  =      T    sub-space diagonalisation (order eigenvalues)
   LSUBROT=      F    optimize rotation matrix (better conditioning)
   TURBO    =      0    0=normal 1=particle mesh
   IRESTART =      0    0=no restart 2=restart with 2 vectors
   NREBOOT  =      0    no. of reboots
   NMIN     =      0    reboot dimension
   EREF     =   0.00    reference energy to select bands
   IMIX   =      4    mixing-type and parameters
     AMIX     =   0.40;   BMIX     =  1.00
     AMIX_MAG =   1.60;   BMIX_MAG =  1.00
     AMIN     =   0.10
     WC   =   100.;   INIMIX=   1;  MIXPRE=   1;  MAXMIX= -45

 Intra band minimization:
   WEIMIN = 0.0000     energy-eigenvalue tresh-hold
   EBREAK =  0.23E-06  absolut break condition
   DEPER  =   0.30     relativ break condition  

   TIME   =   0.40     timestep for ELM

  volume/ion in A,a.u.               =      20.44       137.96
  Fermi-wavevector in a.u.,A,eV,Ry     =   0.950397  1.795990 12.289528  0.903255
  Thomas-Fermi vector in A             =   2.078770
 
 Write flags
   LWAVE        =      F    write WAVECAR
   LDOWNSAMPLE  =      F    k-point downsampling of WAVECAR
   LCHARG       =      F    write CHGCAR
   LVTOT        =      T    write LOCPOT, total local potential
   LVHAR        =      F    write LOCPOT, Hartree potential only
   LELF         =      T    write electronic localiz. function (ELF)
   LORBIT       =     11    0 simple, 1 ext, 2 COOP (PROOUT), +10 PAW based schemes


 Dipole corrections
   LMONO  =      F    monopole corrections only (constant potential shift)
   LDIPOL =      F    correct potential (dipole corrections)
   IDIPOL =      0    1-x, 2-y, 3-z, 4-all directions 
   EPSILON=  1.0000000 bulk dielectric constant

 Exchange correlation treatment:
   GGA     =    PE    GGA type
   LEXCH   =     8    internal setting for exchange type
   VOSKOWN=      0    Vosko Wilk Nusair interpolation
   EXXOEP  =     0    0=HF, 1=EXX-LHF (local Hartree Fock) 2=EXX OEP
   LHFCALC =     T    Hartree Fock is set to
   LSYMGRAD=     F    symmetrize gradient (conserves proper symmetry)
   PRECFOCK=fast      Normal, Fast or Accurate (Low or Medium for compatibility)
   LRHFCALC=     F    long range Hartree Fock
   LRSCOR  =     F    long range correlation only (use DFT for short range part)
   LTHOMAS =     F    Thomas Fermi screening in HF
   LMODELHF=     F    short range full HF, long range fraction AEXX
   LFOCKACE=     T    use Adeptively-Compressed-Exchange operator
   ENCUT4O =  -1.0   cutoff for four orbital integrals eV
   LMAXFOCK=     4    L truncation for augmentation on plane wave grid
   LMAXFOCKAE=  -1    L truncation for all-electron charge restoration on plane wave grid
   NMAXFOCKAE=   1    number of basis functions for all-electron charge restoration
   LFOCKAEDFT=     F  apply the AE augmentation even for DFT
   NKREDX  =     1    reduce k-point grid by
   NKREDY  =     1    reduce k-point grid by
   NKREDZ  =     1    reduce k-point grid by
   SHIFTRED=     F    shift reduced grid of Gamma
   HFKIDENT=     F    idential grid for each k-point
   ODDONLY =     F    use only odd q-grid points
   EVENONLY=     F    use only even q-grid points
   HFALPHA =   -1.0000 decay constant for conv. correction
   MCALPHA =    0.0000 extent of test-charge in conv. correction in multipole expansion
   AEXX    =    0.2500 exact exchange contribution
   HFSCREEN=    0.2000 screening length (either q_TF or 0.3 A-1)
   HFSCREENC=   0.2000 screening length for correlation (either q_TF or 0.3 A-1)
   HFRCUT  =    0.0000 spherical cutoff for potential kernel
   ALDAX   =    0.7500 LDA exchange part
   AGGAX   =    0.7500 GGA exchange part
   ALDAC   =    1.0000 LDA correlation
   AGGAC   =    1.0000 GGA correlation
   ENCUTFOCK=  -1.0 apply spherical cutoff to Coloumb kernel
   NBANDSGWLOW=     1    first orbital included in HF term
   NBLOCK_FOCK=    64    blocking factor in FOCK_ACC
 Linear response parameters
   LEPSILON=     F    determine dielectric tensor
   LRPA    =     F    only Hartree local field effects (RPA)
   LNABLA  =     F    use nabla operator in PAW spheres
   LVEL    =     F    velocity operator in full k-point grid
   LINTERFAST=   F  fast interpolation
   KINTER  =     0    interpolate to denser k-point grid
   CSHIFT  =0.1000    complex shift for real part using Kramers Kronig
   OMEGAMAX=  -1.0    maximum frequency
   DEG_THRESHOLD= 0.2000000E-02 threshold for treating states as degnerate
   RTIME   =   -0.100 relaxation time in fs
  (WPLASMAI=    0.000 imaginary part of plasma frequency in eV, 0.658/RTIME)
   DFIELD  = 0.0000000 0.0000000 0.0000000 field for delta impulse in time
 
 Orbital magnetization related:
   ORBITALMAG=     F  switch on orbital magnetization
   LCHIMAG   =     F  perturbation theory with respect to B field
   DQ        =  0.001000  dq finite difference perturbation B field
   LLRAUG    =     F  two centre corrections for induced B field



--------------------------------------------------------------------------------------------------------


 Static calculation
 charge density and potential will be updated during run
 non-spin polarized calculation
 Conjugate gradient for all bands (Freysoldt, et al. PRB 79, 241103 (2009))
 preconditioned conjugated gradient                                        
 perform sub-space diagonalisation
    before iterative eigenvector-optimisation
 modified Broyden-mixing scheme, WC =      100.0
 initial mixing is a Kerker type mixing with AMIX =  0.4000 and BMIX =      1.0000
 Hartree-type preconditioning will be used
 using additional bands            7
 reciprocal scheme for non local part
 use partial core corrections
 no Harris-corrections to forces 
 use gradient corrections 
 use of overlap-Matrix (Vanderbilt PP)
 Fermi weights with tetrahedron method with Bloechl corrections


--------------------------------------------------------------------------------------------------------


  energy-cutoff  :      680.00
  volume of cell :       40.89
      direct lattice vectors                 reciprocal lattice vectors
     3.348898000  0.000000000  1.933487000     0.298605691 -0.105573000  0.000000000
     1.116299000  3.157372000  1.933487000     0.000000000  0.316719094  0.000000000
     0.000000000  0.000000000  3.866975000    -0.149302807 -0.105573020  0.258600069

  length of vectors
     3.866974243  3.866974707  3.866975000     0.316719145  0.316719094  0.316719096


 
 k-points in units of 2pi/SCALE and weight: read from INCAR                         
   0.00000000  0.00000000  0.00000000       0.016
   0.07465142 -0.02639325  0.00000000       0.125
   0.14930285 -0.05278650  0.00000000       0.062
   0.07465142  0.05278652  0.00000000       0.094
   0.14930285  0.02639327  0.00000000       0.375
  -0.07465142  0.10557302  0.00000000       0.188
   0.14930285  0.10557305  0.00000000       0.047
  -0.11197712  0.15835954  0.06465002       0.094
 
 k-points in reciprocal lattice and weights: read from INCAR                         
   0.00000000  0.00000000  0.00000000       0.016
   0.25000000  0.00000000  0.00000000       0.125
   0.50000000  0.00000000  0.00000000       0.062
   0.25000000  0.25000000  0.00000000       0.094
   0.50000000  0.25000000  0.00000000       0.375
  -0.25000000  0.25000000  0.00000000       0.188
   0.50000000  0.50000000  0.00000000       0.047
  -0.25000000  0.50000000  0.25000000       0.094
 
 position of ions in fractional coordinates (direct lattice) 
   0.25000000  0.25000000  0.25000000
   0.00000000  0.00000000  0.00000000
 
 position of ions in cartesian coordinates  (Angst):
   1.11629925  0.78934300  1.93348725
   0.00000000  0.00000000  0.00000000
 


--------------------------------------------------------------------------------------------------------


 k-point   1 :   0.0000 0.0000 0.0000  plane waves:    1639
 k-point   2 :   0.2500 0.0000 0.0000  plane waves:    1642
 k-point   3 :   0.5000 0.0000 0.0000  plane waves:    1676
 k-point   4 :   0.2500 0.2500 0.0000  plane waves:    1636
 k-point   5 :   0.5000 0.2500 0.0000  plane waves:    1651
 k-point   6 :  -0.2500 0.2500 0.0000  plane waves:    1634
 k-point   7 :   0.5000 0.5000 0.0000  plane waves:    1660
 k-point   8 :  -0.2500 0.5000 0.2500  plane waves:    1628

 maximum and minimum number of plane-waves per node :       434      392

 maximum number of plane-waves:      1676
 maximum index in each direction: 
   IXMAX=    8   IYMAX=    8   IZMAX=    8
   IXMIN=   -8   IYMIN=   -8   IZMIN=   -8


 parallel 3D FFT for wavefunctions:
    minimum data exchange during FFTs selected (reduces bandwidth)
 parallel 3D FFT for charge:
    minimum data exchange during FFTs selected (reduces bandwidth)


 FFT grid for exact exchange (Hartree Fock) 
  NGX = 18; NGY = 18; NGZ = 18

 
 Radii for the augmentation spheres in the non-local exchange
 for species   1 augmentation radius   1.335 (default was   0.989)
       energy cutoff for augmentation   2720.0

 real space projection operators:
  total allocation   :        203.70 KBytes
  max/ min on nodes  :         59.98         42.26

 Maximum index for augmentation-charges in exchange          425
  SETUP_FOCK is finished

 total amount of memory used by VASP MPI-rank0    40987. kBytes
=======================================================================

   base      :      30000. kBytes
   nonl-proj :        244. kBytes
   fftplans  :       3650. kBytes
   grid      :       5033. kBytes
   one-center:          3. kBytes
   HF        :          4. kBytes
   nonlr-proj:        121. kBytes
   wavefun   :       1932. kBytes
 
     INWAV:  cpu time    0.0000: real time    0.0000
 Broyden mixing: mesh for mixing (old mesh)
   NGX = 17   NGY = 17   NGZ = 17
  (NGX  = 72   NGY  = 72   NGZ  = 72)
  gives a total of   4913 points

 initial charge density was supplied:
 charge density of overlapping atoms calculated
 number of electron       8.0000000 magnetization 
 keeping initial charge density in first step


--------------------------------------------------------------------------------------------------------


 BZINTS: Fermi energy:   35.192518;    8.000000 electrons
         Band energy: 0.145959E+03;  BLOECHL correction:  -54.279873
 Maximum index for augmentation-charges         9303 (set IRDMAX)


--------------------------------------------------------------------------------------------------------


 First call to EWALD:  gamma=   0.514
 Maximum number of real-space cells 3x 3x 3
 Maximum number of reciprocal cells 3x 3x 3

    FEWALD:  cpu time    0.0010: real time    0.0010
 -----------------------------------------------------------------------------
|                                                                             |
|           W    W    AA    RRRRR   N    N  II  N    N   GGGG   !!!           |
|           W    W   A  A   R    R  NN   N  II  NN   N  G    G  !!!           |
|           W    W  A    A  R    R  N N  N  II  N N  N  G       !!!           |
|           W WW W  AAAAAA  RRRRR   N  N N  II  N  N N  G  GGG   !            |
|           WW  WW  A    A  R   R   N   NN  II  N   NN  G    G                |
|           W    W  A    A  R    R  N    N  II  N    N   GGGG   !!!           |
|                                                                             |
|     ALGO=A and IALGO=5X tend to fail with the tetrahedron method (e.g.      |
|     Bloechl's method, ISMEAR=-5, is not variational). Please switch to      |
|     IMSEAR=0-n, except for DOS calculations. For DOS calculations use       |
|     IALGO=53 after pre-converging with ISMEAR>=0.                           |
|     I HOPE YOU KNOW WHAT YOU ARE DOING!                                     |
|                                                                             |
 -----------------------------------------------------------------------------



--------------------------------------- Iteration      1(   1)  ---------------------------------------


    POTLOK:  cpu time    0.0391: real time    0.0394
    SETDIJ:  cpu time    0.0922: real time    0.0923
 BZINTS: Fermi energy:    9.787468;    8.000000 electrons
         Band energy: 0.170518E+02;  BLOECHL correction:   -0.162156
    TRIAL :  cpu time    0.1002: real time    0.1006
 BZINTS: Fermi energy:    9.787468;    8.000000 electrons
         Band energy: 0.170518E+02;  BLOECHL correction:   -0.162156
    CORREC:  cpu time    0.0003: real time    0.0003
    --------------------------------------------
      LOOP:  cpu time    0.2328: real time    0.2337

 eigenvalue-minimisations  :   176
 total energy-change (2. order) :-0.2479918E+03  (-0.4302079E+03)
 number of electron       8.0000000 magnetization 
 augmentation part        8.0000000 magnetization 

 Free energy of the ion-electron system (eV)
  ---------------------------------------------------
  alpha Z        PSCENC =         3.29317992
  Ewald energy   TEWEN  =      -226.94489173
  -Hartree energ DENC   =       -11.32339116
  -exchange      EXHF   =         0.00000000
  -V(xc)+E(xc)   XCENC  =       -18.68518031
  PAW double counting   =       176.24759923     -391.62992928
  entropy T*S    EENTRO =         0.00000000
  eigenvalues    EBANDS =        17.05177666
  atomic energy  EATOM  =       203.99906502
  ---------------------------------------------------
  free energy    TOTEN  =      -247.99177166 eV

  energy without entropy =     -247.99177166  energy(sigma->0) =     -247.99177166
  exchange ACFDT corr.  =         0.00000000  see jH, gK, PRB 81, 115126


--------------------------------------------------------------------------------------------------------




--------------------------------------- Iteration      1(   2)  ---------------------------------------


 BZINTS: Fermi energy:    5.949735;    8.000000 electrons
         Band energy:-0.161912E+01;  BLOECHL correction:    0.000000
    TRIAL :  cpu time    0.1172: real time    0.1174
 BZINTS: Fermi energy:    5.949735;    8.000000 electrons
         Band energy:-0.161912E+01;  BLOECHL correction:    0.000000
    CORREC:  cpu time    0.0002: real time    0.0002
    --------------------------------------------
      LOOP:  cpu time    0.1179: real time    0.1181

 eigenvalue-minimisations  :   216
 total energy-change (2. order) :-0.1867089E+02  (-0.1812377E+02)
 number of electron       8.0000000 magnetization 
 augmentation part        8.0000000 magnetization 

 Free energy of the ion-electron system (eV)
  ---------------------------------------------------
  alpha Z        PSCENC =         3.29317992
  Ewald energy   TEWEN  =      -226.94489173
  -Hartree energ DENC   =       -11.32339116
  -exchange      EXHF   =         0.00000000
  -V(xc)+E(xc)   XCENC  =       -18.68518031
  PAW double counting   =       176.24759923     -391.62992928
  entropy T*S    EENTRO =         0.00000000
  eigenvalues    EBANDS =        -1.61911587
  atomic energy  EATOM  =       203.99906502
  ---------------------------------------------------
  free energy    TOTEN  =      -266.66266419 eV

  energy without entropy =     -266.66266419  energy(sigma->0) =     -266.66266419
  exchange ACFDT corr.  =         0.00000000  see jH, gK, PRB 81, 115126


--------------------------------------------------------------------------------------------------------




--------------------------------------- Iteration      1(   3)  ---------------------------------------


 BZINTS: Fermi energy:    5.904321;    8.000000 electrons
         Band energy:-0.228223E+01;  BLOECHL correction:   -0.000000
    TRIAL :  cpu time    0.1203: real time    0.1204
 BZINTS: Fermi energy:    5.904321;    8.000000 electrons
         Band energy:-0.228223E+01;  BLOECHL correction:   -0.000000
    CORREC:  cpu time    0.0002: real time    0.0002
    --------------------------------------------
      LOOP:  cpu time    0.1208: real time    0.1210

 eigenvalue-minimisations  :   236
 total energy-change (2. order) :-0.6631176E+00  (-0.6598472E+00)
 number of electron       8.0000000 magnetization 
 augmentation part        8.0000000 magnetization 

 Free energy of the ion-electron system (eV)
  ---------------------------------------------------
  alpha Z        PSCENC =         3.29317992
  Ewald energy   TEWEN  =      -226.94489173
  -Hartree energ DENC   =       -11.32339116
  -exchange      EXHF   =         0.00000000
  -V(xc)+E(xc)   XCENC  =       -18.68518031
  PAW double counting   =       176.24759923     -391.62992928
  entropy T*S    EENTRO =         0.00000000
  eigenvalues    EBANDS =        -2.28223347
  atomic energy  EATOM  =       203.99906502
  ---------------------------------------------------
  free energy    TOTEN  =      -267.32578178 eV

  energy without entropy =     -267.32578178  energy(sigma->0) =     -267.32578178
  exchange ACFDT corr.  =         0.00000000  see jH, gK, PRB 81, 115126


--------------------------------------------------------------------------------------------------------




--------------------------------------- Iteration      1(   4)  ---------------------------------------


 BZINTS: Fermi energy:    5.904075;    8.000000 electrons
         Band energy:-0.228824E+01;  BLOECHL correction:   -0.000000
    TRIAL :  cpu time    0.1156: real time    0.1160
 BZINTS: Fermi energy:    5.904075;    8.000000 electrons
         Band energy:-0.228824E+01;  BLOECHL correction:   -0.000000
    CORREC:  cpu time    0.0003: real time    0.0003
    --------------------------------------------
      LOOP:  cpu time    0.1162: real time    0.1166

 eigenvalue-minimisations  :   214
 total energy-change (2. order) :-0.6002237E-02  (-0.5999833E-02)
 number of electron       8.0000000 magnetization 
 augmentation part        8.0000000 magnetization 

 Free energy of the ion-electron system (eV)
  ---------------------------------------------------
  alpha Z        PSCENC =         3.29317992
  Ewald energy   TEWEN  =      -226.94489173
  -Hartree energ DENC   =       -11.32339116
  -exchange      EXHF   =         0.00000000
  -V(xc)+E(xc)   XCENC  =       -18.68518031
  PAW double counting   =       176.24759923     -391.62992928
  entropy T*S    EENTRO =         0.00000000
  eigenvalues    EBANDS =        -2.28823570
  atomic energy  EATOM  =       203.99906502
  ---------------------------------------------------
  free energy    TOTEN  =      -267.33178402 eV

  energy without entropy =     -267.33178402  energy(sigma->0) =     -267.33178402
  exchange ACFDT corr.  =         0.00000000  see jH, gK, PRB 81, 115126


--------------------------------------------------------------------------------------------------------




--------------------------------------- Iteration      1(   5)  ---------------------------------------


    POTLOK:  cpu time    0.1004: real time    0.1006
    SETDIJ:  cpu time    0.1470: real time    0.1472
 BZINTS: Fermi energy:    6.501991;    8.000000 electrons
         Band energy:-0.615903E+01;  BLOECHL correction:   -0.000000
    TRIAL :  cpu time    2.4800: real time    2.4918
 BZINTS: Fermi energy:    6.501991;    8.000000 electrons
         Band energy:-0.615903E+01;  BLOECHL correction:   -0.000000
    CORREC:  cpu time    0.0003: real time    0.0003
    CHARGE:  cpu time    0.0543: real time    0.0543
    --------------------------------------------
      LOOP:  cpu time    2.7824: real time    2.7946

 eigenvalue-minimisations  :   200
 total energy-change (2. order) : 0.2545296E+03  (-0.2012759E+00)
 number of electron       8.0000000 magnetization 
 augmentation part       -0.4454488 magnetization 

 Free energy of the ion-electron system (eV)
  ---------------------------------------------------
  alpha Z        PSCENC =         3.29317992
  Ewald energy   TEWEN  =      -226.94489173
  -Hartree energ DENC   =       -11.32339116
  -exchange      EXHF   =        11.45406923
  -V(xc)+E(xc)   XCENC  =       -14.94384288
  PAW double counting   =       171.63954155     -143.81684058
  entropy T*S    EENTRO =         0.00000000
  eigenvalues    EBANDS =        -6.15903435
  atomic energy  EATOM  =       203.99906502
  ---------------------------------------------------
  free energy    TOTEN  =       -12.80214499 eV

  energy without entropy =      -12.80214499  energy(sigma->0) =      -12.80214499
  exchange ACFDT corr.  =         0.00000000  see jH, gK, PRB 81, 115126


--------------------------------------------------------------------------------------------------------




--------------------------------------- Iteration      1(   6)  ---------------------------------------


    POTLOK:  cpu time    0.1083: real time    0.1085
    SETDIJ:  cpu time    0.1580: real time    0.1581
    TRIAL :  cpu time    2.8696: real time    2.8764
 BZINTS: Fermi energy:    6.544656;    8.000000 electrons
         Band energy:-0.518229E+01;  BLOECHL correction:   -0.000000
 BZINTS: Fermi energy:    6.578478;    8.000000 electrons
         Band energy:-0.441498E+01;  BLOECHL correction:   -0.000000
    CORREC:  cpu time    3.0088: real time    3.0158
    CHARGE:  cpu time    0.0488: real time    0.0489
    --------------------------------------------
      LOOP:  cpu time    6.1939: real time    6.2081

 eigenvalue-minimisations  :     0
 total energy-change (2. order) : 0.5136803E+00  (-0.9885361E-01)
 number of electron       8.0000000 magnetization 
 augmentation part       -0.4299969 magnetization 

 Free energy of the ion-electron system (eV)
  ---------------------------------------------------
  alpha Z        PSCENC =         3.29317992
  Ewald energy   TEWEN  =      -226.94489173
  -Hartree energ DENC   =       -17.39042212
  -exchange      EXHF   =        11.50336307
  -V(xc)+E(xc)   XCENC  =       -14.28817326
  PAW double counting   =      1566.23461511    -1538.65180518
  entropy T*S    EENTRO =         0.00000000
  eigenvalues    EBANDS =        -0.04339548
  atomic energy  EATOM  =       203.99906502
  ---------------------------------------------------
  free energy    TOTEN  =       -12.28846466 eV

  energy without entropy =      -12.28846466  energy(sigma->0) =      -12.28846466
  exchange ACFDT corr.  =         0.00000001  see jH, gK, PRB 81, 115126


--------------------------------------------------------------------------------------------------------




--------------------------------------- Iteration      1(   7)  ---------------------------------------


    POTLOK:  cpu time    0.1130: real time    0.1133
    SETDIJ:  cpu time    0.1664: real time    0.1665
    TRIAL :  cpu time    2.6245: real time    2.6293
 BZINTS: Fermi energy:    6.601397;    8.000000 electrons
         Band energy:-0.378522E+01;  BLOECHL correction:   -0.000000
 BZINTS: Fermi energy:    6.650372;    8.000000 electrons
         Band energy:-0.246696E+01;  BLOECHL correction:    0.000000
    CORREC:  cpu time    2.7633: real time    2.7692
    CHARGE:  cpu time    0.0403: real time    0.0403
    --------------------------------------------
      LOOP:  cpu time    5.7080: real time    5.7191

 eigenvalue-minimisations  :     0
 total energy-change (2. order) :-0.9868078E-01  (-0.2239585E-01)
 number of electron       8.0000000 magnetization 
 augmentation part       -0.4298740 magnetization 

 Free energy of the ion-electron system (eV)
  ---------------------------------------------------
  alpha Z        PSCENC =         3.29317992
  Ewald energy   TEWEN  =      -226.94489173
  -Hartree energ DENC   =       -15.95909637
  -exchange      EXHF   =        11.35905967
  -V(xc)+E(xc)   XCENC  =       -14.38402623
  PAW double counting   =      1668.20460102    -1640.56643598
  entropy T*S    EENTRO =         0.00000000
  eigenvalues    EBANDS =        -1.38860075
  atomic energy  EATOM  =       203.99906502
  ---------------------------------------------------
  free energy    TOTEN  =       -12.38714544 eV

  energy without entropy =      -12.38714544  energy(sigma->0) =      -12.38714544
  exchange ACFDT corr.  =         0.00000001  see jH, gK, PRB 81, 115126


--------------------------------------------------------------------------------------------------------




--------------------------------------- Iteration      1(   8)  ---------------------------------------


    POTLOK:  cpu time    0.1102: real time    0.1103
    SETDIJ:  cpu time    0.1616: real time    0.1617
    TRIAL :  cpu time    2.4144: real time    2.4197
 BZINTS: Fermi energy:    6.662728;    8.000000 electrons
         Band energy:-0.206798E+01;  BLOECHL correction:   -0.000000
 BZINTS: Fermi energy:    6.677536;    8.000000 electrons
         Band energy:-0.157003E+01;  BLOECHL correction:    0.000000
    CORREC:  cpu time    2.8103: real time    2.8147
    CHARGE:  cpu time    0.0396: real time    0.0396
    --------------------------------------------
      LOOP:  cpu time    5.5365: real time    5.5465

 eigenvalue-minimisations  :     0
 total energy-change (2. order) :-0.2227248E-01  (-0.6477698E-02)
 number of electron       8.0000000 magnetization 
 augmentation part       -0.4295842 magnetization 

 Free energy of the ion-electron system (eV)
  ---------------------------------------------------
  alpha Z        PSCENC =         3.29317992
  Ewald energy   TEWEN  =      -226.94489173
  -Hartree energ DENC   =       -15.64289947
  -exchange      EXHF   =        11.30639637
  -V(xc)+E(xc)   XCENC  =       -14.40947046
  PAW double counting   =      1672.14938015    -1644.50553794
  entropy T*S    EENTRO =         0.00000000
  eigenvalues    EBANDS =        -1.65463977
  atomic energy  EATOM  =       203.99906502
  ---------------------------------------------------
  free energy    TOTEN  =       -12.40941792 eV

  energy without entropy =      -12.40941792  energy(sigma->0) =      -12.40941792
  exchange ACFDT corr.  =         0.00000000  see jH, gK, PRB 81, 115126


--------------------------------------------------------------------------------------------------------




--------------------------------------- Iteration      1(   9)  ---------------------------------------


    POTLOK:  cpu time    0.1091: real time    0.1092
    SETDIJ:  cpu time    0.1616: real time    0.1618
    TRIAL :  cpu time    2.1672: real time    2.1705
 BZINTS: Fermi energy:    6.674057;    8.000000 electrons
         Band energy:-0.153607E+01;  BLOECHL correction:    0.000000
 BZINTS: Fermi energy:    6.671074;    8.000000 electrons
         Band energy:-0.150962E+01;  BLOECHL correction:    0.000000
    CORREC:  cpu time    2.4447: real time    2.4486
    CHARGE:  cpu time    0.0408: real time    0.0408
    --------------------------------------------
      LOOP:  cpu time    4.9238: real time    4.9314

 eigenvalue-minimisations  :     0
 total energy-change (2. order) :-0.6456977E-02  (-0.8431244E-03)
 number of electron       8.0000000 magnetization 
 augmentation part       -0.4293170 magnetization 

 Free energy of the ion-electron system (eV)
  ---------------------------------------------------
  alpha Z        PSCENC =         3.29317992
  Ewald energy   TEWEN  =      -226.94489173
  -Hartree energ DENC   =       -15.54123732
  -exchange      EXHF   =        11.28269601
  -V(xc)+E(xc)   XCENC  =       -14.41742110
  PAW double counting   =      1661.90566713    -1634.26299348
  entropy T*S    EENTRO =         0.00000000
  eigenvalues    EBANDS =        -1.72993935
  atomic energy  EATOM  =       203.99906502
  ---------------------------------------------------
  free energy    TOTEN  =       -12.41587490 eV

  energy without entropy =      -12.41587490  energy(sigma->0) =      -12.41587490
  exchange ACFDT corr.  =         0.00000000  see jH, gK, PRB 81, 115126


--------------------------------------------------------------------------------------------------------




--------------------------------------- Iteration      1(  10)  ---------------------------------------


    POTLOK:  cpu time    0.1090: real time    0.1093
    SETDIJ:  cpu time    0.1594: real time    0.1595
    TRIAL :  cpu time    2.4171: real time    2.4236
 BZINTS: Fermi energy:    6.665752;    8.000000 electrons
         Band energy:-0.155479E+01;  BLOECHL correction:   -0.000000
 BZINTS: Fermi energy:    6.661051;    8.000000 electrons
         Band energy:-0.159540E+01;  BLOECHL correction:   -0.000000
    CORREC:  cpu time    2.5662: real time    2.5706
    CHARGE:  cpu time    0.0508: real time    0.0508
    --------------------------------------------
      LOOP:  cpu time    5.3029: real time    5.3141

 eigenvalue-minimisations  :     0
 total energy-change (2. order) :-0.8430567E-03  (-0.7999179E-04)
 number of electron       8.0000000 magnetization 
 augmentation part       -0.4292721 magnetization 

 Free energy of the ion-electron system (eV)
  ---------------------------------------------------
  alpha Z        PSCENC =         3.29317992
  Ewald energy   TEWEN  =      -226.94489173
  -Hartree energ DENC   =       -15.52006412
  -exchange      EXHF   =        11.27886355
  -V(xc)+E(xc)   XCENC  =       -14.41870049
  PAW double counting   =      1655.54336865    -1627.90054531
  entropy T*S    EENTRO =         0.00000000
  eigenvalues    EBANDS =        -1.74699344
  atomic energy  EATOM  =       203.99906502
  ---------------------------------------------------
  free energy    TOTEN  =       -12.41671795 eV

  energy without entropy =      -12.41671795  energy(sigma->0) =      -12.41671795
  exchange ACFDT corr.  =         0.00000000  see jH, gK, PRB 81, 115126


--------------------------------------------------------------------------------------------------------




--------------------------------------- Iteration      1(  11)  ---------------------------------------


    POTLOK:  cpu time    0.1095: real time    0.1095
    SETDIJ:  cpu time    0.1583: real time    0.1585
    TRIAL :  cpu time    2.4848: real time    2.4889
 BZINTS: Fermi energy:    6.656138;    8.000000 electrons
         Band energy:-0.163344E+01;  BLOECHL correction:    0.000000
 BZINTS: Fermi energy:    6.652551;    8.000000 electrons
         Band energy:-0.166768E+01;  BLOECHL correction:    0.000000
    CORREC:  cpu time    2.4595: real time    2.4645
    CHARGE:  cpu time    0.0406: real time    0.0407
    --------------------------------------------
      LOOP:  cpu time    5.2532: real time    5.2626

 eigenvalue-minimisations  :     0
 total energy-change (2. order) :-0.7946041E-04  (-0.9614451E-05)
 number of electron       8.0000000 magnetization 
 augmentation part       -0.4292971 magnetization 

 Free energy of the ion-electron system (eV)
  ---------------------------------------------------
  alpha Z        PSCENC =         3.29317992
  Ewald energy   TEWEN  =      -226.94489173
  -Hartree energ DENC   =       -15.51858550
  -exchange      EXHF   =        11.27896914
  -V(xc)+E(xc)   XCENC  =       -14.41877500
  PAW double counting   =      1651.32468200    -1623.68162575
  entropy T*S    EENTRO =         0.00000000
  eigenvalues    EBANDS =        -1.74881552
  atomic energy  EATOM  =       203.99906502
  ---------------------------------------------------
  free energy    TOTEN  =       -12.41679741 eV

  energy without entropy =      -12.41679741  energy(sigma->0) =      -12.41679741
  exchange ACFDT corr.  =         0.00000001  see jH, gK, PRB 81, 115126


--------------------------------------------------------------------------------------------------------




--------------------------------------- Iteration      1(  12)  ---------------------------------------


    POTLOK:  cpu time    0.1390: real time    0.1392
    SETDIJ:  cpu time    0.1612: real time    0.1614
    TRIAL :  cpu time    2.3695: real time    2.3762
 BZINTS: Fermi energy:    6.649988;    8.000000 electrons
         Band energy:-0.169429E+01;  BLOECHL correction:    0.000000
 BZINTS: Fermi energy:    6.644951;    8.000000 electrons
         Band energy:-0.174681E+01;  BLOECHL correction:   -0.000000
    CORREC:  cpu time    2.5350: real time    2.5391
    EDDIAG:  cpu time    2.7796: real time    2.7835
    CHARGE:  cpu time    0.0514: real time    0.0515
    --------------------------------------------
      LOOP:  cpu time    8.0362: real time    8.0515

 eigenvalue-minimisations  :     0
 total energy-change (2. order) :-0.9802291E-05  (-0.3696995E-05)
 number of electron       8.0000000 magnetization 
 augmentation part       -0.4293708 magnetization 

 Free energy of the ion-electron system (eV)
  ---------------------------------------------------
  alpha Z        PSCENC =         3.29317992
  Ewald energy   TEWEN  =      -226.94489173
  -Hartree energ DENC   =       -15.52031324
  -exchange      EXHF   =        11.27973869
  -V(xc)+E(xc)   XCENC  =       -14.41870250
  PAW double counting   =      1649.08984896    -1621.44677770
  entropy T*S    EENTRO =         0.00000000
  eigenvalues    EBANDS =        -1.74745037
  atomic energy  EATOM  =       203.99906502
  ---------------------------------------------------
  free energy    TOTEN  =       -12.41680722 eV

  energy without entropy =      -12.41680722  energy(sigma->0) =      -12.41680722
  exchange ACFDT corr.  =         0.00000000  see jH, gK, PRB 81, 115126


--------------------------------------------------------------------------------------------------------


  average scaling for gradient   0.8714


 average (electrostatic) potential at core
  the test charge radii are     0.9892
  (the norm of the test charge is              1.0000)
       1 -79.7091       2 -79.7091
 
 
 
 E-fermi :   6.6450     XC(G=0):  -7.7536     alpha+bet :-11.7317

 Fermi energy:         6.6449514137

 k-point     1 :       0.0000    0.0000    0.0000
  band No.  band energies     occupation 
      1      -7.8527      2.00000
      2       5.2608      2.00000
      3       5.2608      2.00000
      4       5.2608      2.00000
      5       8.6185      0.00000
      6       8.6185      0.00000
      7       8.6185      0.00000
      8       9.4022      0.00000
      9      14.0260      0.00000
     10      14.0640      0.00000
     11      14.0640      0.00000

 k-point     2 :       0.2500    0.0000    0.0000
  band No.  band energies     occupation 
      1      -6.9816      2.00000
      2       1.0362      2.00000
      3       4.4651      2.00000
      4       4.4651      2.00000
      5       8.0128      0.00000
      6       9.6109      0.00000
      7       9.6109      0.00000
      8      13.1232      0.00000
      9      13.4812      0.00000
     10      13.4812      0.00000
     11      15.1516      0.00000

 k-point     3 :       0.5000    0.0000    0.0000
  band No.  band energies     occupation 
      1      -5.3167      2.00000
      2      -2.3237      2.00000
      3       3.9722      2.00000
      4       3.9722      2.00000
      5       7.4893      0.00000
      6       9.4459      0.00000
      7       9.4459      0.00000
      8      13.8953      0.00000
      9      17.0413      0.00000
     10      17.0784      0.00000
     11      17.7486      0.00000

 k-point     4 :       0.2500    0.2500    0.0000
  band No.  band energies     occupation 
      1      -6.6727      2.00000
      2       1.4529      2.00000
      3       3.2597      2.00000
      4       3.2597      2.00000
      5       7.0797      0.00000
      6       9.1998      0.00000
      7      11.9845      0.00000
      8      11.9845      0.00000
      9      14.3173      0.00000
     10      15.3278      0.00000
     11      17.6577      0.00000

 k-point     5 :       0.5000    0.2500    0.0000
  band No.  band energies     occupation 
      1      -4.8864      2.00000
      2      -1.7124      2.00000
      3       1.5225      2.00000
      4       2.9025      2.00000
      5       7.4960     -0.00000
      6      10.5565     -0.00000
      7      11.9460      0.00000
      8      12.1644      0.00000
      9      16.6025      0.00000
     10      17.0001      0.00000
     11      18.6971      0.00000

 k-point     6 :      -0.2500    0.2500    0.0000
  band No.  band energies     occupation 
      1      -5.6236      2.00000
      2      -0.7189      2.00000
      3       1.2947      2.00000
      4       3.8530      2.00000
      5       8.4843      0.00000
      6      11.0043      0.00000
      7      11.2336      0.00000
      8      12.3622      0.00000
      9      12.6689      0.00000
     10      16.0400      0.00000
     11      19.1532      0.00000

 k-point     7 :       0.5000    0.5000    0.0000
  band No.  band energies     occupation 
      1      -3.3122      2.00000
      2      -3.3122      2.00000
      3       2.1909      2.00000
      4       2.1909      2.00000
      5       6.6450      0.00000
      6       6.6450      0.00000
      7      16.6057      0.00000
      8      16.6057      0.00000
      9      17.4594      0.00000
     10      17.4609      0.00000
     11      19.3712      0.00000

 k-point     8 :      -0.2500    0.5000    0.2500
  band No.  band energies     occupation 
      1      -3.1403      2.00000
      2      -3.1403      2.00000
      3       1.1842      2.00000
      4       1.1842      2.00000
      5      10.3444     -0.00000
      6      10.3444     -0.00000
      7      11.1992      0.00000
      8      11.1992      0.00000
      9      17.0713      0.00000
     10      17.0718      0.00000
     11      19.5355      0.00000


--------------------------------------------------------------------------------------------------------


 soft charge-density along one line, spin component           1
         0         1         2         3         4         5         6         7         8         9
 total charge-density along one line
 
 pseudopotential strength for first ion, spin component:           1
 17.873  24.937   0.000   0.000  -0.000   0.000   0.000  -0.000
 24.937  34.798   0.000   0.000  -0.000   0.000   0.000  -0.000
  0.000   0.000   4.078  -0.000   0.000   7.603  -0.000   0.000
  0.000   0.000  -0.000   4.078  -0.000  -0.000   7.603  -0.000
 -0.000  -0.000   0.000  -0.000   4.078   0.000  -0.000   7.603
  0.000   0.000   7.603  -0.000   0.000  14.183   0.000   0.000
  0.000   0.000  -0.000   7.603  -0.000   0.000  14.183  -0.000
 -0.000  -0.000   0.000  -0.000   7.603   0.000  -0.000  14.183
 total augmentation occupancy for first ion, spin component:           1
 10.807  -5.053   0.000  -0.000  -0.000  -0.000   0.000   0.000
 -5.053   2.406   0.000   0.000   0.000   0.000  -0.000  -0.000
  0.000   0.000   3.871   0.000   0.000  -1.022  -0.000   0.000
 -0.000   0.000   0.000   3.871  -0.000  -0.000  -1.022  -0.000
 -0.000   0.000   0.000  -0.000   3.871  -0.000   0.000  -1.022
 -0.000   0.000  -1.022  -0.000  -0.000   0.276   0.000   0.000
  0.000  -0.000  -0.000  -1.022   0.000   0.000   0.276  -0.000
  0.000  -0.000   0.000  -0.000  -1.022   0.000  -0.000   0.276


------------------------ aborting loop because EDIFF is reached ----------------------------------------





 total charge

# of ion       s       p       d       tot
------------------------------------------
    1        0.747   0.964   0.000   1.711
    2        0.747   0.964   0.000   1.711
--------------------------------------------------
tot          1.495   1.928   0.000   3.423
 
    FORLOC:  cpu time    0.0018: real time    0.0019
    FORHF :  cpu time    2.4322: real time    2.4371
    FORNL :  cpu time    0.0107: real time    0.0164
    STRESS:  cpu time    0.0325: real time    0.0326
    FORCOR:  cpu time    0.1068: real time    0.1071
    OFIELD:  cpu time    0.0003: real time    0.0003

  FORCE on cell =-STRESS in cart. coord.  units (eV):
  Direction    XX          YY          ZZ          XY          YZ          ZX
  --------------------------------------------------------------------------------------
  Alpha Z     3.29318     3.29318     3.29318
  Ewald     -75.64832   -75.64835   -75.64832    -0.00001     0.00001     0.00001
  Hartree     5.17490     5.17490     5.17492     0.00000     0.00001     0.00002
  E(xc)     -19.55990   -19.55990   -19.55990     0.00000     0.00000    -0.00000
  Local     -29.52151   -29.52154   -29.52156     0.00000    -0.00001    -0.00003
  n-local    69.52009    72.84232    77.65674    -0.85123    -0.12436     0.08788
  augment   -10.57915   -10.57915   -10.57916    -0.00000    -0.00000    -0.00000
  Kinetic    52.27130    55.22796    61.89313     0.64718     0.30394    -0.21495
  Fock       -3.41540    -3.31294    -3.14001    -0.01213     0.00443    -0.00081
  -------------------------------------------------------------------------------------
  Total      -0.32644    -0.32644    -0.32644     0.00000     0.00000     0.00000
  in kB     -12.79113   -12.79113   -12.79113     0.00000     0.00000     0.00000
  external pressure =      -12.79 kB  Pullay stress =        0.00 kB


 VOLUME and BASIS-vectors are now :
 -----------------------------------------------------------------------------
  energy-cutoff  :      680.00
  volume of cell :       40.89
      direct lattice vectors                 reciprocal lattice vectors
     3.348898000  0.000000000  1.933487000     0.298605691 -0.105573000  0.000000000
     1.116299000  3.157372000  1.933487000     0.000000000  0.316719094  0.000000000
     0.000000000  0.000000000  3.866975000    -0.149302807 -0.105573020  0.258600069

  length of vectors
     3.866974243  3.866974707  3.866975000     0.316719145  0.316719094  0.316719096


 FORCES acting on ions:
    Electron-Ion                     Ewald-Force                    Non-Local-Force
 -----------------------------------------------------------------------------------------------
   0.939E-05 -.378E-04 0.395E-05   -.634E-05 0.116E-04 0.142E-04   0.372E-16 0.315E-16 -.961E-17
   -.193E-05 0.304E-04 0.436E-04   0.634E-05 -.116E-04 -.142E-04   -.323E-16 -.115E-16 0.252E-16
 -----------------------------------------------------------------------------------------------
   0.816E-05 -.740E-05 0.505E-04   0.718E-18 -.107E-15 0.148E-15   0.497E-17 0.200E-16 0.156E-16
 
 
 POSITION                                       TOTAL-FORCE (eV/Angst)
 -----------------------------------------------------------------------------------
      1.11630      0.78934      1.93349        -0.000000     -0.000000     -0.000000
      0.00000      0.00000      0.00000         0.000000      0.000000      0.000000
 -----------------------------------------------------------------------------------
    total drift:                                0.000008     -0.000007      0.000051


--------------------------------------------------------------------------------------------------------



  FREE ENERGIE OF THE ION-ELECTRON SYSTEM (eV)
  ---------------------------------------------------
  free  energy   TOTEN  =       -12.41680722 eV

  energy  without entropy=      -12.41680722  energy(sigma->0) =      -12.41680722
 


--------------------------------------------------------------------------------------------------------


    POTLOK:  cpu time    0.2591: real time    0.2598


--------------------------------------------------------------------------------------------------------


     LOOP+:  cpu time   47.3272: real time   47.4316


--------------------------------------------------------------------------------------------------------



 plasma frequency squared (from intraband transitions) (eV^2)
  --------------------------------------------------------------------------------------
       0.000       0.000       0.000
       0.000       0.000       0.000
       0.000       0.000       0.000

 electrical conductivity sigma (Mega S m-1) (frequency dependency in vasprun.xml)
  --------------------------------------------------------------------------------------
       0.000       0.000       0.000
       0.000       0.000       0.000
       0.000       0.000       0.000

 plasma frequency squared (from interband transitions, int dw w eps(2)(w)) (eV^2)
  --------------------------------------------------------------------------------------
     390.710       0.000      -0.000       0.000      -0.000       0.000
      -0.000       0.000     390.710       0.000      -0.000       0.000
      -0.000       0.000      -0.000       0.000     390.710       0.000
  --------------------------------------------------------------------------------------
 sumrule: sum of plasma frequencies squared should yield (valence only):     269.783

 Anomalous Hall contribution (eV) 2/pi Imag((f_n-f_m)<u_m| d/dk_a u_n> <u_m| d/dk_b u_n>^*) 
  --------------------------------------------------------------------------------------
       0.000       0.000       0.000
       0.000       0.000       0.000
       0.000       0.000       0.000

  frequency dependent IMAGINARY DIELECTRIC FUNCTION (independent particle, no local field effects) density-density
     E(ev)      X         Y         Z        XY        YZ        ZX
  --------------------------------------------------------------------------------------------------------------
    0.000000    0.000000    0.000000    0.000000    0.000000    0.000000    0.000000
    0.006494    0.000764    0.000764    0.000764   -0.000000   -0.000000   -0.000000
    0.012988    0.001528    0.001528    0.001528   -0.000000   -0.000000   -0.000000
    0.019482    0.002293    0.002293    0.002293   -0.000000   -0.000000   -0.000000
    0.025976    0.003057    0.003057    0.003057   -0.000000   -0.000000   -0.000000
    0.032470    0.003821    0.003821    0.003821   -0.000000   -0.000000   -0.000000
    0.038964    0.004586    0.004586    0.004586   -0.000000   -0.000000   -0.000000
    0.045458    0.005350    0.005350    0.005350   -0.000000   -0.000000   -0.000000
    0.051952    0.006115    0.006115    0.006115   -0.000000   -0.000000   -0.000000
    0.058445    0.006880    0.006880    0.006880   -0.000000   -0.000000   -0.000000
    0.064939    0.007645    0.007645    0.007645   -0.000000   -0.000000   -0.000000
    0.071433    0.008410    0.008410    0.008410   -0.000000   -0.000000   -0.000000
    0.077927    0.009176    0.009176    0.009176   -0.000000   -0.000000   -0.000000
    0.084421    0.009942    0.009942    0.009942   -0.000000   -0.000000   -0.000000
    0.090915    0.010708    0.010708    0.010708   -0.000000   -0.000000   -0.000000
    0.097409    0.011474    0.011474    0.011474   -0.000000   -0.000000   -0.000000
    0.103903    0.012241    0.012241    0.012241   -0.000000   -0.000000   -0.000000
    0.110397    0.013008    0.013008    0.013008   -0.000000   -0.000000   -0.000000
    0.116891    0.013775    0.013775    0.013775   -0.000000   -0.000000   -0.000000
    0.123385    0.014543    0.014543    0.014543   -0.000000   -0.000000   -0.000000
    0.129879    0.015311    0.015311    0.015311   -0.000000   -0.000000   -0.000000
    0.136373    0.016080    0.016080    0.016080   -0.000000   -0.000000   -0.000000
    0.142867    0.016849    0.016849    0.016849   -0.000000   -0.000000   -0.000000
    0.149361    0.017618    0.017618    0.017618   -0.000000   -0.000000   -0.000000
    0.155855    0.018388    0.018388    0.018388   -0.000000   -0.000000   -0.000000
    0.162349    0.019159    0.019159    0.019159   -0.000000   -0.000000   -0.000000
    0.168843    0.019930    0.019930    0.019930   -0.000000   -0.000000   -0.000000
    0.175336    0.020701    0.020701    0.020701   -0.000000   -0.000000   -0.000000
    0.181830    0.021473    0.021473    0.021473   -0.000000   -0.000000   -0.000000
    0.188324    0.022246    0.022246    0.022246   -0.000000   -0.000000   -0.000000
    0.194818    0.023019    0.023019    0.023019   -0.000000   -0.000000   -0.000000
    0.201312    0.023793    0.023793    0.023793   -0.000000   -0.000000   -0.000000
    0.207806    0.024568    0.024568    0.024568   -0.000000   -0.000000   -0.000000
    0.214300    0.025343    0.025343    0.025343   -0.000000   -0.000000   -0.000000
    0.220794    0.026119    0.026119    0.026119   -0.000000   -0.000000   -0.000000
    0.227288    0.026896    0.026896    0.026896   -0.000000   -0.000000   -0.000000
    0.233782    0.027674    0.027674    0.027674   -0.000000   -0.000000   -0.000000
    0.240276    0.028452    0.028452    0.028452   -0.000000   -0.000000   -0.000000
    0.246770    0.029231    0.029231    0.029231   -0.000000   -0.000000   -0.000000
    0.253264    0.030011    0.030011    0.030011   -0.000000   -0.000000   -0.000000
    0.259758    0.030791    0.030791    0.030791   -0.000000   -0.000000   -0.000000
    0.266252    0.031573    0.031573    0.031573   -0.000000   -0.000000   -0.000000
    0.272746    0.032355    0.032355    0.032355   -0.000000   -0.000000   -0.000000
    0.279240    0.033139    0.033139    0.033139   -0.000000   -0.000000   -0.000000
    0.285734    0.033923    0.033923    0.033923   -0.000000   -0.000000   -0.000000
    0.292227    0.034708    0.034708    0.034708   -0.000000   -0.000000   -0.000000
    0.298721    0.035494    0.035494    0.035494   -0.000000   -0.000000   -0.000000
    0.305215    0.036282    0.036282    0.036282   -0.000000   -0.000000   -0.000000
    0.311709    0.037070    0.037070    0.037070   -0.000000   -0.000000   -0.000000
    0.318203    0.037859    0.037859    0.037859   -0.000000   -0.000000   -0.000000
    0.324697    0.038649    0.038649    0.038649   -0.000000   -0.000000   -0.000000
    0.331191    0.039441    0.039441    0.039441   -0.000000   -0.000000   -0.000000
    0.337685    0.040233    0.040233    0.040233   -0.000000   -0.000000   -0.000000
    0.344179    0.041027    0.041027    0.041027   -0.000000   -0.000000   -0.000000
    0.350673    0.041821    0.041821    0.041821   -0.000000   -0.000000   -0.000000
    0.357167    0.042617    0.042617    0.042617   -0.000000   -0.000000   -0.000000
    0.363661    0.043414    0.043414    0.043414   -0.000000   -0.000000   -0.000000
    0.370155    0.044213    0.044213    0.044213   -0.000000   -0.000000   -0.000000
    0.376649    0.045012    0.045012    0.045012   -0.000000   -0.000000   -0.000000
    0.383143    0.045813    0.045813    0.045813   -0.000000   -0.000000   -0.000000
    0.389637    0.046615    0.046615    0.046615   -0.000000   -0.000000   -0.000000
    0.396131    0.047419    0.047419    0.047419   -0.000000   -0.000000   -0.000000
    0.402624    0.048224    0.048224    0.048224   -0.000000   -0.000000   -0.000000
    0.409118    0.049030    0.049030    0.049030   -0.000000   -0.000000   -0.000000
    0.415612    0.049837    0.049838    0.049838   -0.000000   -0.000000   -0.000000
    0.422106    0.050646    0.050647    0.050647   -0.000000   -0.000000   -0.000000
    0.428600    0.051457    0.051457    0.051457   -0.000000   -0.000000   -0.000000
    0.435094    0.052269    0.052269    0.052269   -0.000000   -0.000000   -0.000000
    0.441588    0.053082    0.053082    0.053082   -0.000000   -0.000000   -0.000000
    0.448082    0.053897    0.053897    0.053897   -0.000000   -0.000000   -0.000000
    0.454576    0.054714    0.054714    0.054714   -0.000000   -0.000000   -0.000000
    0.461070    0.055532    0.055532    0.055532   -0.000000   -0.000000   -0.000000
    0.467564    0.056351    0.056351    0.056351   -0.000000   -0.000000   -0.000000
    0.474058    0.057172    0.057172    0.057172   -0.000000   -0.000000   -0.000000
    0.480552    0.057995    0.057995    0.057995   -0.000000   -0.000000   -0.000000
    0.487046    0.058820    0.058820    0.058820   -0.000000   -0.000000   -0.000000
    0.493540    0.059646    0.059646    0.059646   -0.000000   -0.000000   -0.000000
    0.500034    0.060474    0.060474    0.060474   -0.000000   -0.000000   -0.000000
    0.506528    0.061304    0.061304    0.061304   -0.000000   -0.000000   -0.000000
    0.513022    0.062135    0.062135    0.062135   -0.000000   -0.000000   -0.000000
    0.519515    0.062968    0.062968    0.062968   -0.000000   -0.000000   -0.000000
    0.526009    0.063803    0.063803    0.063803   -0.000000   -0.000000   -0.000000
    0.532503    0.064640    0.064640    0.064640   -0.000000   -0.000000   -0.000000
    0.538997    0.065479    0.065479    0.065479   -0.000000   -0.000000   -0.000000
    0.545491    0.066320    0.066320    0.066320   -0.000000   -0.000000   -0.000000
    0.551985    0.067162    0.067162    0.067162   -0.000000   -0.000000   -0.000000
    0.558479    0.068007    0.068007    0.068007   -0.000000   -0.000000   -0.000000
    0.564973    0.068853    0.068854    0.068854   -0.000000   -0.000000   -0.000000
    0.571467    0.069702    0.069702    0.069702   -0.000000   -0.000000   -0.000000
    0.577961    0.070553    0.070553    0.070553   -0.000000   -0.000000   -0.000000
    0.584455    0.071405    0.071405    0.071405   -0.000000   -0.000000   -0.000000
    0.590949    0.072260    0.072260    0.072260   -0.000000   -0.000000   -0.000000
    0.597443    0.073117    0.073117    0.073117   -0.000000   -0.000000   -0.000000
    0.603937    0.073976    0.073976    0.073976   -0.000000   -0.000000   -0.000000
    0.610431    0.074837    0.074837    0.074837   -0.000000   -0.000000   -0.000000
    0.616925    0.075701    0.075701    0.075701   -0.000000   -0.000000   -0.000000
    0.623419    0.076566    0.076566    0.076566   -0.000000   -0.000000   -0.000000
    0.629912    0.077434    0.077434    0.077434   -0.000000   -0.000000   -0.000000
    0.636406    0.078305    0.078305    0.078305   -0.000000   -0.000000   -0.000000
    0.642900    0.079177    0.079177    0.079177   -0.000000   -0.000000   -0.000000
    0.649394    0.080052    0.080052    0.080052   -0.000000   -0.000000   -0.000000
    0.655888    0.080929    0.080929    0.080929   -0.000000   -0.000000   -0.000000
    0.662382    0.081809    0.081809    0.081809   -0.000000   -0.000000   -0.000000
    0.668876    0.082691    0.082691    0.082691   -0.000000   -0.000000   -0.000000
    0.675370    0.083576    0.083576    0.083576   -0.000000   -0.000000   -0.000000
    0.681864    0.084463    0.084463    0.084463   -0.000000   -0.000000   -0.000000
    0.688358    0.085353    0.085353    0.085353   -0.000000   -0.000000   -0.000000
    0.694852    0.086245    0.086245    0.086245   -0.000000   -0.000000   -0.000000
    0.701346    0.087140    0.087140    0.087140   -0.000000   -0.000000   -0.000000
    0.707840    0.088038    0.088038    0.088038   -0.000000   -0.000000   -0.000000
    0.714334    0.088938    0.088938    0.088938   -0.000000   -0.000000   -0.000000
    0.720828    0.089841    0.089841    0.089841   -0.000000   -0.000000   -0.000000
    0.727322    0.090746    0.090746    0.090746   -0.000000   -0.000000   -0.000000
    0.733816    0.091655    0.091655    0.091655   -0.000000   -0.000000   -0.000000
    0.740310    0.092566    0.092566    0.092566   -0.000000   -0.000000   -0.000000
    0.746803    0.093480    0.093480    0.093480   -0.000000   -0.000000   -0.000000
    0.753297    0.094397    0.094397    0.094397   -0.000000   -0.000000   -0.000000
    0.759791    0.095316    0.095316    0.095316   -0.000000   -0.000000   -0.000000
    0.766285    0.096239    0.096239    0.096239   -0.000000   -0.000000   -0.000000
    0.772779    0.097165    0.097165    0.097165   -0.000000   -0.000000   -0.000000
    0.779273    0.098093    0.098093    0.098093   -0.000000   -0.000000   -0.000000
    0.785767    0.099025    0.099025    0.099025   -0.000000   -0.000000   -0.000000
    0.792261    0.099960    0.099960    0.099960   -0.000000   -0.000000   -0.000000
    0.798755    0.100897    0.100897    0.100897   -0.000000   -0.000000   -0.000000
    0.805249    0.101838    0.101838    0.101838   -0.000000   -0.000000   -0.000000
    0.811743    0.102783    0.102783    0.102783   -0.000000   -0.000000   -0.000000
    0.818237    0.103730    0.103730    0.103730   -0.000000   -0.000000   -0.000000
    0.824731    0.104681    0.104681    0.104681   -0.000000   -0.000000   -0.000000
    0.831225    0.105634    0.105634    0.105634   -0.000000   -0.000000   -0.000000
    0.837719    0.106592    0.106592    0.106592   -0.000000   -0.000000   -0.000000
    0.844213    0.107552    0.107552    0.107552   -0.000000   -0.000000   -0.000000
    0.850707    0.108516    0.108516    0.108516   -0.000000   -0.000000   -0.000000
    0.857201    0.109484    0.109484    0.109484   -0.000000   -0.000000   -0.000000
    0.863694    0.110454    0.110454    0.110454   -0.000000   -0.000000   -0.000000
    0.870188    0.111429    0.111429    0.111429   -0.000000   -0.000000   -0.000000
    0.876682    0.112407    0.112407    0.112407   -0.000000   -0.000000   -0.000000
    0.883176    0.113388    0.113388    0.113388   -0.000000   -0.000000   -0.000000
    0.889670    0.114373    0.114373    0.114373   -0.000000   -0.000000   -0.000000
    0.896164    0.115362    0.115362    0.115362   -0.000000   -0.000000   -0.000000
    0.902658    0.116355    0.116355    0.116355   -0.000000   -0.000000   -0.000000
    0.909152    0.117351    0.117351    0.117351   -0.000000   -0.000000   -0.000000
    0.915646    0.118351    0.118351    0.118351   -0.000000   -0.000000   -0.000000
    0.922140    0.119355    0.119355    0.119355   -0.000000   -0.000000   -0.000000
    0.928634    0.120363    0.120363    0.120363   -0.000000   -0.000000   -0.000000
    0.935128    0.121374    0.121374    0.121374   -0.000000   -0.000000   -0.000000
    0.941622    0.122390    0.122390    0.122390   -0.000000   -0.000000   -0.000000
    0.948116    0.123410    0.123410    0.123410   -0.000000   -0.000000   -0.000000
    0.954610    0.124433    0.124433    0.124433   -0.000000   -0.000000   -0.000000
    0.961104    0.125461    0.125461    0.125461   -0.000000   -0.000000   -0.000000
    0.967598    0.126493    0.126493    0.126493   -0.000000   -0.000000   -0.000000
    0.974091    0.127529    0.127529    0.127529   -0.000000   -0.000000   -0.000000
    0.980585    0.128569    0.128569    0.128569   -0.000000   -0.000000   -0.000000
    0.987079    0.129614    0.129614    0.129614   -0.000000   -0.000000   -0.000000
    0.993573    0.130663    0.130663    0.130663   -0.000000   -0.000000   -0.000000
    1.000067    0.131716    0.131716    0.131716   -0.000000   -0.000000   -0.000000
    1.006561    0.132773    0.132774    0.132774   -0.000000   -0.000000   -0.000000
    1.013055    0.133836    0.133836    0.133836   -0.000000   -0.000000   -0.000000
    1.019549    0.134902    0.134902    0.134902   -0.000000   -0.000000   -0.000000
    1.026043    0.135973    0.135973    0.135973   -0.000000   -0.000000   -0.000000
    1.032537    0.137049    0.137049    0.137049   -0.000000   -0.000000   -0.000000
    1.039031    0.138129    0.138129    0.138129   -0.000000   -0.000000   -0.000000
    1.045525    0.139214    0.139214    0.139214   -0.000000   -0.000000   -0.000000
    1.052019    0.140304    0.140304    0.140304   -0.000000   -0.000000   -0.000000
    1.058513    0.141399    0.141399    0.141399   -0.000000   -0.000000   -0.000000
    1.065007    0.142498    0.142498    0.142498   -0.000000   -0.000000   -0.000000
    1.071501    0.143603    0.143603    0.143603   -0.000000   -0.000000   -0.000000
    1.077995    0.144712    0.144712    0.144712   -0.000000   -0.000000   -0.000000
    1.084489    0.145826    0.145826    0.145826   -0.000000   -0.000000   -0.000000
    1.090982    0.146945    0.146945    0.146945   -0.000000   -0.000000   -0.000000
    1.097476    0.148070    0.148070    0.148070   -0.000000   -0.000000   -0.000000
    1.103970    0.149199    0.149200    0.149200   -0.000000   -0.000000   -0.000000
    1.110464    0.150334    0.150334    0.150334   -0.000000   -0.000000   -0.000000
    1.116958    0.151474    0.151474    0.151474   -0.000000   -0.000000   -0.000000
    1.123452    0.152620    0.152620    0.152620   -0.000000   -0.000000   -0.000000
    1.129946    0.153771    0.153771    0.153771   -0.000000   -0.000000   -0.000000
    1.136440    0.154927    0.154927    0.154927   -0.000000   -0.000000   -0.000000
    1.142934    0.156089    0.156089    0.156089   -0.000000   -0.000000   -0.000000
    1.149428    0.157256    0.157256    0.157256   -0.000000   -0.000000   -0.000000
    1.155922    0.158429    0.158429    0.158429   -0.000000   -0.000000   -0.000000
    1.162416    0.159607    0.159607    0.159607   -0.000000   -0.000000   -0.000000
    1.168910    0.160792    0.160792    0.160792   -0.000000   -0.000000   -0.000000
    1.175404    0.161982    0.161982    0.161982   -0.000000   -0.000000   -0.000000
    1.181898    0.163178    0.163178    0.163178   -0.000000   -0.000000   -0.000000
    1.188392    0.164380    0.164380    0.164380   -0.000000   -0.000000   -0.000000
[...]
   31.482637    0.682383    0.682383    0.682383    0.000000    0.000000    0.000000
   31.489131    0.682523    0.682522    0.682522    0.000000    0.000000    0.000000
   31.495625    0.682662    0.682662    0.682662    0.000000    0.000000    0.000000
   31.502119    0.682802    0.682802    0.682802    0.000000    0.000000    0.000000
   31.508613    0.682942    0.682942    0.682942    0.000000    0.000000    0.000000
   31.515107    0.683081    0.683081    0.683081    0.000000    0.000000    0.000000
   31.521601    0.683221    0.683221    0.683221    0.000000    0.000000    0.000000
   31.528095    0.683360    0.683360    0.683360    0.000000    0.000000    0.000000
   31.534588    0.683500    0.683499    0.683500    0.000000    0.000000    0.000000
   31.541082    0.683639    0.683639    0.683639    0.000000    0.000000    0.000000
   31.547576    0.683778    0.683778    0.683778    0.000000    0.000000    0.000000
   31.554070    0.683917    0.683917    0.683917    0.000000    0.000000    0.000000
   31.560564    0.684056    0.684056    0.684056    0.000000    0.000000    0.000000
   31.567058    0.684195    0.684194    0.684195    0.000000    0.000000    0.000000
   31.573552    0.684333    0.684333    0.684333    0.000000    0.000000    0.000000
   31.580046    0.684472    0.684472    0.684472    0.000000    0.000000    0.000000
   31.586540    0.684611    0.684610    0.684610    0.000000    0.000000    0.000000
   31.593034    0.684749    0.684749    0.684749    0.000000    0.000000    0.000000
   31.599528    0.684887    0.684887    0.684887    0.000000    0.000000    0.000000
   31.606022    0.685026    0.685025    0.685025    0.000000    0.000000    0.000000
   31.612516    0.685164    0.685164    0.685164    0.000000    0.000000    0.000000
   31.619010    0.685302    0.685302    0.685302    0.000000    0.000000    0.000000
   31.625504    0.685440    0.685440    0.685440    0.000000    0.000000    0.000000
   31.631998    0.685578    0.685577    0.685577    0.000000    0.000000    0.000000
   31.638492    0.685715    0.685715    0.685715    0.000000    0.000000    0.000000
   31.644986    0.685853    0.685853    0.685853    0.000000    0.000000    0.000000
   31.651479    0.685991    0.685991    0.685991    0.000000    0.000000    0.000000
   31.657973    0.686128    0.686128    0.686128    0.000000    0.000000    0.000000
   31.664467    0.686266    0.686265    0.686265    0.000000    0.000000    0.000000
   31.670961    0.686403    0.686403    0.686403    0.000000    0.000000    0.000000
   31.677455    0.686540    0.686540    0.686540    0.000000    0.000000    0.000000
   31.683949    0.686677    0.686677    0.686677    0.000000    0.000000    0.000000
   31.690443    0.686814    0.686814    0.686814    0.000000    0.000000    0.000000
   31.696937    0.686951    0.686951    0.686951    0.000000    0.000000    0.000000
   31.703431    0.687088    0.687088    0.687088    0.000000    0.000000    0.000000
   31.709925    0.687225    0.687225    0.687225    0.000000    0.000000    0.000000
   31.716419    0.687361    0.687361    0.687361    0.000000    0.000000    0.000000
   31.722913    0.687498    0.687498    0.687498    0.000000    0.000000    0.000000
   31.729407    0.687634    0.687634    0.687634    0.000000    0.000000    0.000000
   31.735901    0.687771    0.687771    0.687771    0.000000    0.000000    0.000000
   31.742395    0.687907    0.687907    0.687907    0.000000    0.000000    0.000000
   31.748889    0.688043    0.688043    0.688043    0.000000    0.000000    0.000000
   31.755383    0.688179    0.688179    0.688179    0.000000    0.000000    0.000000
   31.761876    0.688316    0.688315    0.688315    0.000000    0.000000    0.000000
   31.768370    0.688451    0.688451    0.688451    0.000000    0.000000    0.000000
   31.774864    0.688587    0.688587    0.688587    0.000000    0.000000    0.000000
   31.781358    0.688723    0.688723    0.688723    0.000000    0.000000    0.000000
   31.787852    0.688859    0.688859    0.688859    0.000000    0.000000    0.000000
   31.794346    0.688994    0.688994    0.688994    0.000000    0.000000    0.000000
   31.800840    0.689130    0.689130    0.689130    0.000000    0.000000    0.000000
   31.807334    0.689265    0.689265    0.689265    0.000000    0.000000    0.000000
   31.813828    0.689400    0.689400    0.689400    0.000000    0.000000    0.000000
   31.820322    0.689536    0.689535    0.689535    0.000000    0.000000    0.000000
   31.826816    0.689671    0.689670    0.689671    0.000000    0.000000    0.000000
   31.833310    0.689806    0.689806    0.689806    0.000000    0.000000    0.000000
   31.839804    0.689941    0.689940    0.689940    0.000000    0.000000    0.000000
   31.846298    0.690075    0.690075    0.690075    0.000000    0.000000    0.000000
   31.852792    0.690210    0.690210    0.690210    0.000000    0.000000    0.000000
   31.859286    0.690345    0.690345    0.690345    0.000000    0.000000    0.000000
   31.865780    0.690479    0.690479    0.690479    0.000000    0.000000    0.000000
   31.872274    0.690614    0.690614    0.690614    0.000000    0.000000    0.000000
   31.878767    0.690748    0.690748    0.690748    0.000000    0.000000    0.000000
   31.885261    0.690882    0.690882    0.690882    0.000000    0.000000    0.000000
   31.891755    0.691017    0.691017    0.691017    0.000000    0.000000    0.000000
   31.898249    0.691151    0.691151    0.691151    0.000000    0.000000    0.000000
   31.904743    0.691285    0.691285    0.691285    0.000000    0.000000    0.000000
   31.911237    0.691419    0.691419    0.691419    0.000000    0.000000    0.000000
   31.917731    0.691553    0.691552    0.691552    0.000000    0.000000    0.000000
   31.924225    0.691686    0.691686    0.691686    0.000000    0.000000    0.000000
   31.930719    0.691820    0.691820    0.691820    0.000000    0.000000    0.000000
   31.937213    0.691954    0.691953    0.691953    0.000000    0.000000    0.000000
   31.943707    0.692087    0.692087    0.692087    0.000000    0.000000    0.000000
   31.950201    0.692220    0.692220    0.692220    0.000000    0.000000    0.000000
   31.956695    0.692354    0.692354    0.692354    0.000000    0.000000    0.000000
   31.963189    0.692487    0.692487    0.692487    0.000000    0.000000    0.000000
   31.969683    0.692620    0.692620    0.692620    0.000000    0.000000    0.000000
   31.976177    0.692753    0.692753    0.692753    0.000000    0.000000    0.000000
   31.982671    0.692886    0.692886    0.692886    0.000000    0.000000    0.000000
   31.989165    0.693019    0.693019    0.693019    0.000000    0.000000    0.000000
   31.995658    0.693152    0.693151    0.693151    0.000000    0.000000    0.000000
   32.002152    0.693284    0.693284    0.693284    0.000000    0.000000    0.000000
   32.008646    0.693417    0.693417    0.693417    0.000000    0.000000    0.000000
   32.015140    0.693549    0.693549    0.693549    0.000000    0.000000    0.000000
   32.021634    0.693682    0.693682    0.693682    0.000000    0.000000    0.000000
   32.028128    0.693814    0.693814    0.693814    0.000000    0.000000    0.000000
   32.034622    0.693946    0.693946    0.693946    0.000000    0.000000    0.000000
   32.041116    0.694078    0.694078    0.694078    0.000000    0.000000    0.000000
   32.047610    0.694210    0.694210    0.694210    0.000000    0.000000    0.000000
   32.054104    0.694342    0.694342    0.694342    0.000000    0.000000    0.000000
   32.060598    0.694474    0.694474    0.694474    0.000000    0.000000    0.000000
   32.067092    0.694606    0.694606    0.694606    0.000000    0.000000    0.000000
   32.073586    0.694738    0.694738    0.694738    0.000000    0.000000    0.000000
   32.080080    0.694869    0.694869    0.694869    0.000000    0.000000    0.000000
   32.086574    0.695001    0.695001    0.695001    0.000000    0.000000    0.000000
   32.093068    0.695132    0.695132    0.695132    0.000000    0.000000    0.000000
   32.099562    0.695264    0.695264    0.695264    0.000000    0.000000    0.000000
   32.106055    0.695395    0.695395    0.695395    0.000000    0.000000    0.000000
   32.112549    0.695526    0.695526    0.695526    0.000000    0.000000    0.000000
   32.119043    0.695657    0.695657    0.695657    0.000000    0.000000    0.000000
   32.125537    0.695788    0.695788    0.695788    0.000000    0.000000    0.000000
   32.132031    0.695919    0.695919    0.695919    0.000000    0.000000    0.000000
   32.138525    0.696050    0.696050    0.696050    0.000000    0.000000    0.000000
   32.145019    0.696181    0.696181    0.696181    0.000000    0.000000    0.000000
   32.151513    0.696311    0.696311    0.696311    0.000000    0.000000    0.000000
   32.158007    0.696442    0.696442    0.696442    0.000000    0.000000    0.000000
   32.164501    0.696572    0.696572    0.696572    0.000000    0.000000    0.000000
   32.170995    0.696703    0.696703    0.696703    0.000000    0.000000    0.000000
   32.177489    0.696833    0.696833    0.696833    0.000000    0.000000    0.000000
   32.183983    0.696963    0.696963    0.696963    0.000000    0.000000    0.000000
   32.190477    0.697094    0.697093    0.697093    0.000000    0.000000    0.000000
   32.196971    0.697224    0.697223    0.697223    0.000000    0.000000    0.000000
   32.203465    0.697354    0.697353    0.697353    0.000000    0.000000    0.000000
   32.209959    0.697483    0.697483    0.697483    0.000000    0.000000    0.000000
   32.216453    0.697613    0.697613    0.697613    0.000000    0.000000    0.000000
   32.222946    0.697743    0.697743    0.697743    0.000000    0.000000    0.000000
   32.229440    0.697873    0.697872    0.697872    0.000000    0.000000    0.000000
   32.235934    0.698002    0.698002    0.698002    0.000000    0.000000    0.000000
   32.242428    0.698131    0.698131    0.698131    0.000000    0.000000    0.000000
   32.248922    0.698261    0.698261    0.698261    0.000000    0.000000    0.000000
   32.255416    0.698390    0.698390    0.698390    0.000000    0.000000    0.000000
   32.261910    0.698519    0.698519    0.698519    0.000000    0.000000    0.000000
   32.268404    0.698648    0.698648    0.698648    0.000000    0.000000    0.000000
   32.274898    0.698777    0.698777    0.698777    0.000000    0.000000    0.000000
   32.281392    0.698906    0.698906    0.698906    0.000000    0.000000    0.000000
   32.287886    0.699035    0.699035    0.699035    0.000000    0.000000    0.000000
   32.294380    0.699164    0.699164    0.699164    0.000000    0.000000    0.000000
   32.300874    0.699293    0.699292    0.699293    0.000000    0.000000    0.000000
   32.307368    0.699421    0.699421    0.699421    0.000000    0.000000    0.000000
   32.313862    0.699550    0.699550    0.699550    0.000000    0.000000    0.000000
   32.320356    0.699678    0.699678    0.699678    0.000000    0.000000    0.000000
   32.326850    0.699806    0.699806    0.699806    0.000000    0.000000    0.000000
   32.333344    0.699935    0.699935    0.699935    0.000000    0.000000    0.000000
   32.339837    0.700063    0.700063    0.700063    0.000000    0.000000    0.000000
   32.346331    0.700191    0.700191    0.700191    0.000000    0.000000    0.000000
   32.352825    0.700319    0.700319    0.700319    0.000000    0.000000    0.000000
   32.359319    0.700447    0.700447    0.700447    0.000000    0.000000    0.000000
   32.365813    0.700575    0.700575    0.700575    0.000000    0.000000    0.000000
   32.372307    0.700702    0.700702    0.700702    0.000000    0.000000    0.000000
   32.378801    0.700830    0.700830    0.700830    0.000000    0.000000    0.000000
   32.385295    0.700958    0.700958    0.700958    0.000000    0.000000    0.000000
   32.391789    0.701085    0.701085    0.701085    0.000000    0.000000    0.000000
   32.398283    0.701213    0.701212    0.701212    0.000000    0.000000    0.000000
   32.404777    0.701340    0.701340    0.701340    0.000000    0.000000    0.000000
   32.411271    0.701467    0.701467    0.701467    0.000000    0.000000    0.000000
   32.417765    0.701594    0.701594    0.701594    0.000000    0.000000    0.000000
   32.424259    0.701721    0.701721    0.701721    0.000000    0.000000    0.000000
   32.430753    0.701848    0.701848    0.701848    0.000000    0.000000    0.000000
   32.437247    0.701975    0.701975    0.701975    0.000000    0.000000    0.000000
   32.443741    0.702102    0.702102    0.702102    0.000000    0.000000    0.000000
   32.450234    0.702229    0.702229    0.702229    0.000000    0.000000    0.000000
   32.456728    0.702355    0.702355    0.702355    0.000000    0.000000    0.000000
   32.463222    0.702482    0.702482    0.702482    0.000000    0.000000    0.000000
   32.469716    0.702609    0.702608    0.702608    0.000000    0.000000    0.000000
   32.476210    0.702735    0.702735    0.702735    0.000000    0.000000    0.000000
   32.482704    0.702861    0.702861    0.702861    0.000000    0.000000    0.000000
   32.489198    0.702988    0.702987    0.702987    0.000000    0.000000    0.000000
   32.495692    0.703114    0.703114    0.703114    0.000000    0.000000    0.000000
   32.502186    0.703240    0.703240    0.703240    0.000000    0.000000    0.000000
   32.508680    0.703366    0.703366    0.703366    0.000000    0.000000    0.000000
   32.515174    0.703492    0.703492    0.703492    0.000000    0.000000    0.000000
   32.521668    0.703617    0.703617    0.703617    0.000000    0.000000    0.000000
   32.528162    0.703743    0.703743    0.703743    0.000000    0.000000    0.000000
   32.534656    0.703869    0.703869    0.703869    0.000000    0.000000    0.000000
   32.541150    0.703994    0.703994    0.703994    0.000000    0.000000    0.000000
   32.547644    0.704120    0.704120    0.704120    0.000000    0.000000    0.000000
   32.554138    0.704245    0.704245    0.704245    0.000000    0.000000    0.000000
   32.560632    0.704371    0.704371    0.704371    0.000000    0.000000    0.000000
   32.567125    0.704496    0.704496    0.704496    0.000000    0.000000    0.000000
   32.573619    0.704621    0.704621    0.704621    0.000000    0.000000    0.000000
   32.580113    0.704746    0.704746    0.704746    0.000000    0.000000    0.000000
   32.586607    0.704871    0.704871    0.704871    0.000000    0.000000    0.000000
   32.593101    0.704996    0.704996    0.704996    0.000000    0.000000    0.000000
   32.599595    0.705121    0.705121    0.705121    0.000000    0.000000    0.000000
   32.606089    0.705246    0.705246    0.705246    0.000000    0.000000    0.000000
   32.612583    0.705370    0.705370    0.705370    0.000000    0.000000    0.000000
   32.619077    0.705495    0.705495    0.705495    0.000000    0.000000    0.000000
   32.625571    0.705620    0.705619    0.705619    0.000000    0.000000    0.000000
   32.632065    0.705744    0.705744    0.705744    0.000000    0.000000    0.000000
   32.638559    0.705868    0.705868    0.705868    0.000000    0.000000    0.000000
   32.645053    0.705993    0.705992    0.705992    0.000000    0.000000    0.000000
   32.651547    0.706117    0.706117    0.706117    0.000000    0.000000    0.000000
   32.658041    0.706241    0.706241    0.706241    0.000000    0.000000    0.000000
   32.664535    0.706365    0.706365    0.706365    0.000000    0.000000    0.000000
   32.671029    0.706489    0.706489    0.706489    0.000000    0.000000    0.000000
   32.677522    0.706613    0.706613    0.706613    0.000000    0.000000    0.000000
   32.684016    0.706737    0.706736    0.706736    0.000000    0.000000    0.000000
   32.690510    0.706860    0.706860    0.706860    0.000000    0.000000    0.000000
   32.697004    0.706984    0.706984    0.706984    0.000000    0.000000    0.000000
   32.703498    0.707107    0.707107    0.707107    0.000000    0.000000    0.000000
   32.709992    0.707231    0.707231    0.707231    0.000000    0.000000    0.000000
   32.716486    0.707354    0.707354    0.707354    0.000000    0.000000    0.000000
   32.722980    0.707478    0.707477    0.707477    0.000000    0.000000    0.000000
   32.729474    0.707601    0.707601    0.707601    0.000000    0.000000    0.000000
   32.735968    0.707724    0.707724    0.707724    0.000000    0.000000    0.000000
   32.742462    0.707847    0.707847    0.707847    0.000000    0.000000    0.000000
   32.748956    0.707970    0.707970    0.707970    0.000000    0.000000    0.000000
   32.755450    0.708093    0.708093    0.708093    0.000000    0.000000    0.000000
   32.761944    0.708216    0.708216    0.708216    0.000000    0.000000    0.000000
   32.768438    0.708338    0.708338    0.708338    0.000000    0.000000    0.000000
   32.774932    0.708461    0.708461    0.708461    0.000000    0.000000    0.000000
   32.781426    0.708584    0.708584    0.708584    0.000000    0.000000    0.000000
   32.787920    0.708706    0.708706    0.708706    0.000000    0.000000    0.000000
   32.794413    0.708829    0.708829    0.708829    0.000000    0.000000    0.000000
   32.800907    0.708951    0.708951    0.708951    0.000000    0.000000    0.000000
   32.807401    0.709073    0.709073    0.709073    0.000000    0.000000    0.000000
   32.813895    0.709195    0.709195    0.709195    0.000000    0.000000    0.000000
   32.820389    0.709318    0.709317    0.709317    0.000000    0.000000    0.000000
   32.826883    0.709440    0.709439    0.709439    0.000000    0.000000    0.000000
   32.833377    0.709562    0.709561    0.709561    0.000000    0.000000    0.000000
   32.839871    0.709683    0.709683    0.709683    0.000000    0.000000    0.000000
   32.846365    0.709805    0.709805    0.709805    0.000000    0.000000    0.000000
   32.852859    0.709927    0.709927    0.709927    0.000000    0.000000    0.000000
   32.859353    0.710049    0.710048    0.710048    0.000000    0.000000    0.000000
   32.865847    0.710170    0.710170    0.710170    0.000000    0.000000    0.000000
 
 The outermost node in the dielectric function lies at epsilon=  21.5


--------------------------------------------------------------------------------------------------------


    OPTICS:  cpu time    1.6426: real time    1.6694
    4ORBIT:  cpu time    0.0000: real time    0.0000



 total charge

# of ion       s       p       d       tot
------------------------------------------
    1        0.747   0.964   0.000   1.711
    2        0.747   0.964   0.000   1.711
--------------------------------------------------
tot          1.495   1.928   0.000   3.423
 
 BZINTS: Fermi energy:    6.645055;    8.000000 electrons
         Band energy:-0.174651E+01;  BLOECHL correction:   -0.000000

 total amount of memory used by VASP MPI-rank0    42178. kBytes
=======================================================================

   base      :      30000. kBytes
   nonl-proj :        244. kBytes
   fftplans  :       3650. kBytes
   grid      :       5033. kBytes
   one-center:          3. kBytes
   HF        :          4. kBytes
   nonlr-proj:        580. kBytes
   wavefun   :       1932. kBytes
   fock_wrk  :        732. kBytes
 
  
  
 General timing and accounting informations for this job:
 ========================================================
  
                  Total CPU time used (sec):       68.310
                            User time (sec):       66.682
                          System time (sec):        1.628
                         Elapsed time (sec):       68.523
  
                   Maximum memory used (kb):   147275776.
                   Average memory used (kb):          N/A
  
                          Minor page faults:        72816
                          Major page faults:          171
                 Voluntary context switches:           12
