<?xml version="1.0" encoding="ISO-8859-1"?>
<modeling>
 <generator>
  <i name="program" type="string">vasp </i>
  <i name="version" type="string">6.2.1  </i>
  <i name="subversion" type="string">16May21 (build Oct 27 2021 18:14:32) complex                          parallel </i>
  <i name="platform" type="string">LinuxIFC </i>
  <i name="date" type="string">2021 11 21 </i>
  <i name="time" type="string">15:04:50 </i>
 </generator>
 <incar>
  <i type="string" name="PREC">Accurate</i>
  <i type="string" name="ALGO">All</i>
  <i type="int" name="ISPIN">     1</i>
  <i type="int" name="NELM">   200</i>
  <i type="int" name="NELMIN">     5</i>
  <i type="int" name="IBRION">     2</i>
  <i name="EDIFF">      0.00001000</i>
  <i name="EDIFFG">     -0.02000000</i>
  <i type="int" name="NSW">     0</i>
  <i type="int" name="ISIF">     3</i>
  <i name="ENCUT">    680.00000000</i>
  <i name="ENAUG">   1360.00000000</i>
  <i type="int" name="NBANDS">    11</i>
  <i type="int" name="NEDOS">  5062</i>
  <i type="logical" name="LREAL"> F  </i>
  <i type="int" name="ISMEAR">    -5</i>
  <i name="SIGMA">      0.05000000</i>
  <i name="KSPACING">      0.50000000</i>
  <i type="logical" name="LWAVE"> F  </i>
  <i type="logical" name="LCHARG"> F  </i>
  <i type="logical" name="LVTOT"> T  </i>
  <i type="int" name="LORBIT">    11</i>
  <i type="logical" name="LELF"> T  </i>
  <i type="logical" name="LOPTICS"> T  </i>
  <i type="logical" name="LASPH"> T  </i>
  <i type="logical" name="LAECHG"> T  </i>
  <i name="HFSCREEN">      0.20000000</i>
  <i type="logical" name="LHFCALC"> T  </i>
  <i type="string" name="GGA">Pe</i>
  <i type="string" name="PRECFOCK">Fast</i>
  <i type="logical" name="LMIXTAU"> T  </i>
 </incar>
 <primitive_cell>
  <structure name="primitive_cell" >
   <crystal>
    <varray name="basis" >
     <v>       3.34889800       0.00000000       1.93348700 </v>
     <v>       1.11629900       3.15737200       1.93348700 </v>
     <v>       0.00000000       0.00000000       3.86697500 </v>
    </varray>
    <i name="volume">     40.88829843 </i>
    <varray name="rec_basis" >
     <v>       0.29860569      -0.10557300       0.00000000 </v>
     <v>       0.00000000       0.31671909       0.00000000 </v>
     <v>      -0.14930281      -0.10557302       0.25860007 </v>
    </varray>
   </crystal>
   <varray name="positions" >
    <v>       0.25000000       0.25000000       0.25000000 </v>
    <v>       0.00000000       0.00000000       0.00000000 </v>
   </varray>
  </structure>
  <varray name="primitive_index" >
   <v type="int" >        1 </v>
   <v type="int" >        2 </v>
  </varray>
 </primitive_cell>
 <kpoints>
  <generation param="Gamma">
   <v type="int" name="divisions">       4        4        4 </v>
   <v name="usershift">      0.00000000       0.00000000       0.00000000 </v>
   <v name="genvec1">      0.25000000      -0.00000000       0.00000000 </v>
   <v name="genvec2">      0.00000000       0.25000000       0.00000000 </v>
   <v name="genvec3">      0.00000000       0.00000000       0.25000000 </v>
   <v name="shift">      0.00000000       0.00000000       0.00000000 </v>
  </generation>
  <varray name="kpointlist" >
   <v>       0.00000000       0.00000000       0.00000000 </v>
   <v>       0.25000000       0.00000000       0.00000000 </v>
   <v>       0.50000000       0.00000000       0.00000000 </v>
   <v>       0.25000000       0.25000000       0.00000000 </v>
   <v>       0.50000000       0.25000000       0.00000000 </v>
   <v>      -0.25000000       0.25000000       0.00000000 </v>
   <v>       0.50000000       0.50000000       0.00000000 </v>
   <v>      -0.25000000       0.50000000       0.25000000 </v>
  </varray>
  <varray name="weights" >
   <v>       0.01562500 </v>
   <v>       0.12500000 </v>
   <v>       0.06250000 </v>
   <v>       0.09375000 </v>
   <v>       0.37500000 </v>
   <v>       0.18750000 </v>
   <v>       0.04687500 </v>
   <v>       0.09375000 </v>
  </varray>
  <varray name="tetrahedronlist"  type="int" >
   <v type="int" >       24        1        2        2        4 </v>
   <v type="int" >       48        2        4        5        6 </v>
   <v type="int" >       48        2        3        5        6 </v>
   <v type="int" >       24        2        2        4        6 </v>
   <v type="int" >       48        3        5        5        6 </v>
   <v type="int" >       24        4        5        5        7 </v>
   <v type="int" >       24        4        5        5        6 </v>
   <v type="int" >       48        5        5        7        8 </v>
   <v type="int" >       96        5        5        6        8 </v>
  </varray>
  <i name="volumeweight">      0.00260417 </i>
 </kpoints>
 <parameters>
  <separator name="general" >
   <i type="string" name="SYSTEM">unknown system</i>
   <i type="logical" name="LCOMPAT"> F  </i>
  </separator>
  <separator name="electronic" >
   <i type="string" name="PREC">accura</i>
   <i name="ENMAX">    680.00000000</i>
   <i name="ENAUG">   1360.00000000</i>
   <i name="EDIFF">      0.00001000</i>
   <i type="int" name="IALGO">    58</i>
   <i type="int" name="IWAVPR">    10</i>
   <i type="int" name="NBANDS">    11</i>
   <i type="int" name="NBANDSLOW">    -1</i>
   <i type="int" name="NBANDSHIGH">    -1</i>
   <i name="NELECT">      8.00000000</i>
   <i type="int" name="TURBO">     0</i>
   <i type="int" name="IRESTART">     0</i>
   <i type="int" name="NREBOOT">     0</i>
   <i type="int" name="NMIN">     0</i>
   <i name="EREF">      0.00000000</i>
   <separator name="electronic smearing" >
    <i type="int" name="ISMEAR">    -5</i>
    <i name="SIGMA">      0.05000000</i>
    <i name="KSPACING">      0.50000000</i>
    <i type="logical" name="KGAMMA"> T  </i>
    <i type="logical" name="KBLOWUP"> T  </i>
   </separator>
   <separator name="electronic projectors" >
    <i type="logical" name="LREAL"> F  </i>
    <v name="ROPT">      0.00000000</v>
    <i type="int" name="LMAXPAW">  -100</i>
    <i type="int" name="LMAXMIX">     2</i>
    <i type="logical" name="NLSPLINE"> F  </i>
   </separator>
   <separator name="electronic startup" >
    <i type="int" name="ISTART">     0</i>
    <i type="int" name="ICHARG">     2</i>
    <i type="int" name="INIWAV">     1</i>
   </separator>
   <separator name="electronic spin" >
    <i type="int" name="ISPIN">     1</i>
    <i type="logical" name="LNONCOLLINEAR"> F  </i>
    <v name="MAGMOM">      1.00000000      1.00000000</v>
    <i name="NUPDOWN">     -1.00000000</i>
    <i type="logical" name="LSORBIT"> F  </i>
    <v name="SAXIS">      0.00000000      0.00000000      1.00000000</v>
    <i type="logical" name="LSPIRAL"> F  </i>
    <v name="QSPIRAL">      0.00000000      0.00000000      0.00000000</v>
    <i type="logical" name="LZEROZ"> F  </i>
   </separator>
   <separator name="electronic exchange-correlation" >
    <i type="logical" name="LASPH"> T  </i>
    <i type="logical" name="LMETAGGA"> F  </i>
   </separator>
   <separator name="electronic convergence" >
    <i type="int" name="NELM">   200</i>
    <i type="int" name="NELMDL">    -5</i>
    <i type="int" name="NELMIN">     5</i>
    <i name="ENINI">    680.00000000</i>
    <separator name="electronic convergence detail" >
     <i type="logical" name="LDIAG"> T  </i>
     <i type="logical" name="LSUBROT"> F  </i>
     <i name="WEIMIN">      0.00000000</i>
     <i name="EBREAK">      0.00000023</i>
     <i name="DEPER">      0.30000000</i>
     <i type="int" name="NRMM">     4</i>
     <i name="TIME">      0.40000000</i>
    </separator>
   </separator>
   <separator name="electronic mixer" >
    <i name="AMIX">      0.40000000</i>
    <i name="BMIX">      1.00000000</i>
    <i name="AMIN">      0.10000000</i>
    <i name="AMIX_MAG">      1.60000000</i>
    <i name="BMIX_MAG">      1.00000000</i>
    <separator name="electronic mixer details" >
     <i type="int" name="IMIX">     4</i>
     <i type="logical" name="MIXFIRST"> F  </i>
     <i type="int" name="MAXMIX">   -45</i>
     <i name="WC">    100.00000000</i>
     <i type="int" name="INIMIX">     1</i>
     <i type="int" name="MIXPRE">     1</i>
     <i type="int" name="MREMOVE">     5</i>
    </separator>
   </separator>
   <separator name="electronic dipolcorrection" >
    <i type="logical" name="LDIPOL"> F  </i>
    <i type="logical" name="LMONO"> F  </i>
    <i type="int" name="IDIPOL">     0</i>
    <i name="EPSILON">      1.00000000</i>
    <v name="DIPOL">   -100.00000000   -100.00000000   -100.00000000</v>
    <i name="EFIELD">      0.00000000</i>
   </separator>
  </separator>
  <separator name="grids" >
   <i type="int" name="NGX">    36</i>
   <i type="int" name="NGY">    36</i>
   <i type="int" name="NGZ">    36</i>
   <i type="int" name="NGXF">    72</i>
   <i type="int" name="NGYF">    72</i>
   <i type="int" name="NGZF">    72</i>
   <i type="logical" name="ADDGRID"> F  </i>
  </separator>
  <separator name="ionic" >
   <i type="int" name="NSW">     0</i>
   <i type="int" name="IBRION">    -1</i>
   <i type="int" name="MDALGO">     0</i>
   <i type="int" name="ISIF">     3</i>
   <i name="PSTRESS">      0.00000000</i>
   <i name="EDIFFG">     -0.02000000</i>
   <i type="int" name="NFREE">     1</i>
   <i name="POTIM">      0.50000000</i>
   <i name="SMASS">     -3.00000000</i>
   <i name="SCALEE">      1.00000000</i>
  </separator>
  <separator name="ionic md" >
   <i name="TEBEG">      0.00010000</i>
   <i name="TEEND">      0.00010000</i>
   <i type="int" name="NBLOCK">     1</i>
   <i type="int" name="KBLOCK">     1</i>
   <i type="int" name="NPACO">   256</i>
   <i name="APACO">     16.00000000</i>
  </separator>
  <separator name="symmetry" >
   <i type="int" name="ISYM">     3</i>
   <i name="SYMPREC">      0.00001000</i>
  </separator>
  <separator name="dos" >
   <i type="int" name="LORBIT">    11</i>
   <v name="RWIGS">     -1.00000000</v>
   <i type="int" name="NEDOS">  5062</i>
   <i name="EMIN">     10.00000000</i>
   <i name="EMAX">    -10.00000000</i>
   <i name="EFERMI">      0.00000000</i>
  </separator>
  <separator name="writing" >
   <i type="int" name="NWRITE">     2</i>
   <i type="logical" name="LWAVE"> F  </i>
   <i type="logical" name="LDOWNSAMPLE"> F  </i>
   <i type="logical" name="LCHARG"> F  </i>
   <i type="logical" name="LPARD"> F  </i>
   <i type="logical" name="LVTOT"> T  </i>
   <i type="logical" name="LVHAR"> F  </i>
   <i type="logical" name="LELF"> T  </i>
   <i type="logical" name="LOPTICS"> T  </i>
   <v name="STM">      0.00000000      0.00000000      0.00000000      0.00000000      0.00000000      0.00000000      0.00000000</v>
  </separator>
  <separator name="performance" >
   <i type="int" name="NPAR">     1</i>
   <i type="int" name="NSIM">     4</i>
   <i type="int" name="NBLK">    -1</i>
   <i type="logical" name="LPLANE"> T  </i>
   <i type="logical" name="LSCALAPACK"> F  </i>
   <i type="logical" name="LSCAAWARE"> F  </i>
   <i type="logical" name="LSCALU"> F  </i>
   <i type="logical" name="LASYNC"> F  </i>
   <i type="logical" name="LORBITALREAL"> F  </i>
  </separator>
  <separator name="miscellaneous" >
   <i type="int" name="IDIOT">     3</i>
   <i type="int" name="PHON_NSTRUCT">    -1</i>
   <i type="logical" name="LMUSIC"> F  </i>
   <v name="POMASS">     28.08500000</v>
   <v name="DARWINR">      0.00000000</v>
   <v name="DARWINV">      1.00000000</v>
   <i type="logical" name="LCORR"> T  </i>
  </separator>
  <i type="logical" name="GGA_COMPAT"> T  </i>
  <i type="logical" name="LBERRY"> F  </i>
  <i type="int" name="ICORELEVEL">     0</i>
  <i type="logical" name="LDAU"> F  </i>
  <i type="int" name="I_CONSTRAINED_M">     0</i>
  <separator name="electronic exchange-correlation" >
   <i type="string" name="GGA">PE</i>
   <i type="int" name="VOSKOWN">     0</i>
   <i type="logical" name="LHFCALC"> T  </i>
   <i type="string" name="PRECFOCK">fast</i>
   <i type="logical" name="LSYMGRAD"> F  </i>
   <i type="logical" name="LHFONE"> F  </i>
   <i type="logical" name="LRHFCALC"> F  </i>
   <i type="logical" name="LTHOMAS"> F  </i>
   <i type="logical" name="LMODELHF"> F  </i>
   <i type="logical" name="LFOCKACE"> T  </i>
   <i name="ENCUT4O">     -1.00000000</i>
   <i type="int" name="EXXOEP">     0</i>
   <i type="int" name="FOURORBIT">     0</i>
   <i name="AEXX">      0.25000000</i>
   <i name="HFALPHA">     -1.00000000</i>
   <i name="MCALPHA">      0.00000000</i>
   <i name="ALDAX">      0.75000000</i>
   <i name="AGGAX">      0.75000000</i>
   <i name="ALDAC">      1.00000000</i>
   <i name="AGGAC">      1.00000000</i>
   <i type="int" name="NKREDX">     1</i>
   <i type="int" name="NKREDY">     1</i>
   <i type="int" name="NKREDZ">     1</i>
   <i type="logical" name="SHIFTRED"> F  </i>
   <i type="logical" name="ODDONLY"> F  </i>
   <i type="logical" name="EVENONLY"> F  </i>
   <i type="int" name="LMAXFOCK">     4</i>
   <i type="int" name="NMAXFOCKAE">     1</i>
   <i type="logical" name="LFOCKAEDFT"> F  </i>
   <i name="HFSCREEN">      0.20000000</i>
   <i name="HFSCREENC">      0.20000000</i>
   <i type="int" name="NBANDSGWLOW">     1</i>
  </separator>
  <separator name="vdW DFT" >
   <i type="logical" name="LUSE_VDW"> F  </i>
   <i name="Zab_VDW">     -0.84910000</i>
   <i name="PARAM1">      0.12340000</i>
   <i name="PARAM2">      1.00000000</i>
   <i name="PARAM3">      0.00000000</i>
  </separator>
  <separator name="model GW" >
   <i type="int" name="MODEL_GW">     0</i>
   <i name="MODEL_EPS0">     12.26648953</i>
   <i name="MODEL_ALPHA">      1.00000000</i>
  </separator>
  <separator name="linear response parameters" >
   <i type="logical" name="LEPSILON"> F  </i>
   <i type="logical" name="LRPA"> F  </i>
   <i type="logical" name="LNABLA"> F  </i>
   <i type="logical" name="LVEL"> F  </i>
   <i type="int" name="KINTER">     0</i>
   <i name="CSHIFT">      0.10000000</i>
   <i name="OMEGAMAX">     -1.00000000</i>
   <i name="DEG_THRESHOLD">      0.00200000</i>
   <i name="RTIME">     -0.10000000</i>
   <i name="WPLASMAI">      0.00000000</i>
   <v name="DFIELD">      0.00000000      0.00000000      0.00000000</v>
   <v name="WPLASMA">      0.00000000      0.00000000      0.00000000      0.00000000      0.00000000      0.00000000      0.00000000      0.00000000      0.00000000</v>
  </separator>
  <separator name="orbital magnetization" >
   <i type="logical" name="NUCIND"> F  </i>
   <v name="MAGPOS">      0.00000000      0.00000000      0.00000000</v>
   <i type="logical" name="LNICSALL"> T  </i>
   <i type="logical" name="ORBITALMAG"> F  </i>
   <i type="logical" name="LMAGBLOCH"> F  </i>
   <i type="logical" name="LCHIMAG"> F  </i>
   <i type="logical" name="LGAUGE"> T  </i>
   <i type="int" name="MAGATOM">     0</i>
   <v name="MAGDIPOL">      0.00000000      0.00000000      0.00000000</v>
   <v name="AVECCONST">      0.00000000      0.00000000      0.00000000</v>
  </separator>
  <separator name="response functions" >
   <i type="logical" name="LFINITE_TEMPERATURE"> F  </i>
   <i type="logical" name="LADDER"> F  </i>
   <i type="logical" name="LRPAFORCE"> F  </i>
   <i type="logical" name="LFXC"> F  </i>
   <i type="logical" name="LHARTREE"> T  </i>
   <i type="int" name="IBSE">     0</i>
   <v type="int" name="KPOINT">    -1     0     0     0</v>
   <i type="logical" name="LTCTC"> F  </i>
   <i type="logical" name="LTCTE"> F  </i>
   <i type="logical" name="LTETE"> F  </i>
   <i type="logical" name="LTRIPLET"> F  </i>
   <i type="logical" name="LFXCEPS"> F  </i>
   <i type="logical" name="LFXHEG"> F  </i>
   <i type="int" name="NATURALO">     2</i>
   <i type="logical" name="LHOLEGF"> F  </i>
   <i type="logical" name="L2ORDER"> F  </i>
   <i type="logical" name="LDMP1"> F  </i>
   <i type="logical" name="LMP2LT"> F  </i>
   <i type="logical" name="LSMP2LT"> F  </i>
   <i type="logical" name="LGWLF"> F  </i>
   <i name="ENCUTGW">     -2.00000000</i>
   <i name="ENCUTGWSOFT">     -2.00000000</i>
   <i name="ENCUTLF">     -1.00000000</i>
   <i type="logical" name="LESF_SPLINES"> F  </i>
   <i type="int" name="LMAXMP2">    -1</i>
   <i name="SCISSOR">      0.00000000</i>
   <i type="int" name="NOMEGA">     0</i>
   <i type="int" name="NOMEGAR">     0</i>
   <i type="int" name="NBANDSGW">    -1</i>
   <i type="int" name="NBANDSO">    -1</i>
   <i type="int" name="NBANDSV">    -1</i>
   <i type="int" name="NELM">   200</i>
   <i type="int" name="NELMHF">     1</i>
   <i type="int" name="DIM">     3</i>
   <i type="int" name="IESPILON">     4</i>
   <i type="int" name="ANTIRES">     0</i>
   <i name="OMEGAMAX">    -30.00000000</i>
   <i name="OMEGAMIN">    -30.00000000</i>
   <i name="OMEGATL">   -200.00000000</i>
   <i type="int" name="OMEGAGRID">     0</i>
   <i name="CSHIFT">     -0.10000000</i>
   <i type="logical" name="LSELFENERGY"> F  </i>
   <i type="logical" name="LSPECTRAL"> F  </i>
   <i type="logical" name="LSPECTRALGW"> F  </i>
   <i type="logical" name="LSINGLES"> F  </i>
   <i type="logical" name="LFERMIGW"> F  </i>
   <i type="logical" name="ODDONLYGW"> F  </i>
   <i type="logical" name="EVENONLYGW"> F  </i>
   <i type="int" name="NKREDLFX">     1</i>
   <i type="int" name="NKREDLFY">     1</i>
   <i type="int" name="NKREDLFZ">     1</i>
   <i type="int" name="MAXMEM">  2800</i>
   <i type="int" name="TELESCOPE">     0</i>
   <i type="int" name="NTAUPAR">    -1</i>
   <i type="int" name="NOMEGAPAR">    -1</i>
   <i name="DAMP_NEWTON">      0.80000001</i>
   <i name="LAMBDA">      1.00000000</i>
  </separator>
  <separator name="External order field" >
   <i name="OFIELD_KAPPA">      0.00000000</i>
   <v name="OFIELD_K">      0.00000000      0.00000000      0.00000000</v>
   <i name="OFIELD_Q6_NEAR">      0.00000000</i>
   <i name="OFIELD_Q6_FAR">      0.00000000</i>
   <i name="OFIELD_A">      0.00000000</i>
  </separator>
 </parameters>
 <atominfo>
  <atoms>       2 </atoms>
  <types>       1 </types>
  <array name="atoms" >
   <dimension dim="1">ion</dimension>
   <field type="string">element</field>
   <field type="int">atomtype</field>
   <set>
    <rc><c>Si</c><c>   1</c></rc>
    <rc><c>Si</c><c>   1</c></rc>
   </set>
  </array>
  <array name="atomtypes" >
   <dimension dim="1">type</dimension>
   <field type="int">atomspertype</field>
   <field type="string">element</field>
   <field>mass</field>
   <field>valence</field>
   <field type="string">pseudopotential</field>
   <set>
    <rc><c>   2</c><c>Si</c><c>     28.08500000</c><c>      4.00000000</c><c>  PAW_PBE Si 05Jan2001                  </c></rc>
   </set>
  </array>
 </atominfo>
 <structure name="initialpos" >
  <crystal>
   <varray name="basis" >
    <v>       3.34889800       0.00000000       1.93348700 </v>
    <v>       1.11629900       3.15737200       1.93348700 </v>
    <v>       0.00000000       0.00000000       3.86697500 </v>
   </varray>
   <i name="volume">     40.88829843 </i>
   <varray name="rec_basis" >
    <v>       0.29860569      -0.10557300       0.00000000 </v>
    <v>       0.00000000       0.31671909       0.00000000 </v>
    <v>      -0.14930281      -0.10557302       0.25860007 </v>
   </varray>
  </crystal>
  <varray name="positions" >
   <v>       0.25000000       0.25000000       0.25000000 </v>
   <v>       0.00000000       0.00000000       0.00000000 </v>
  </varray>
 </structure>
 <calculation>
  <scstep>
   <time name="total">    0.23    0.23</time>
   <energy>
    <i name="alphaZ">      3.29317992 </i>
    <i name="ewald">   -226.94489173 </i>
    <i name="hartreedc">    -11.32339116 </i>
    <i name="XCdc">    -18.68518031 </i>
    <i name="pawpsdc">    176.24759923 </i>
    <i name="pawaedc">   -391.62992928 </i>
    <i name="eentropy">      0.00000000 </i>
    <i name="bandstr">     17.05177666 </i>
    <i name="atom">    203.99906502 </i>
    <i name="e_fr_energy">   -247.99177166 </i>
    <i name="e_wo_entrp">   -247.99177166 </i>
    <i name="e_0_energy">   -247.99177166 </i>
   </energy>
  </scstep>
  <scstep>
   <time name="total">    0.12    0.12</time>
   <energy>
    <i name="e_fr_energy">   -266.66266419 </i>
    <i name="e_wo_entrp">   -266.66266419 </i>
    <i name="e_0_energy">   -266.66266419 </i>
   </energy>
  </scstep>
  <scstep>
   <time name="total">    0.12    0.12</time>
   <energy>
    <i name="e_fr_energy">   -267.32578178 </i>
    <i name="e_wo_entrp">   -267.32578178 </i>
    <i name="e_0_energy">   -267.32578178 </i>
   </energy>
  </scstep>
  <scstep>
   <time name="total">    0.12    0.12</time>
   <energy>
    <i name="e_fr_energy">   -267.33178402 </i>
    <i name="e_wo_entrp">   -267.33178402 </i>
    <i name="e_0_energy">   -267.33178402 </i>
   </energy>
  </scstep>
  <scstep>
   <time name="total">    2.78    2.79</time>
   <energy>
    <i name="e_fr_energy">    -12.80214499 </i>
    <i name="e_wo_entrp">    -12.80214499 </i>
    <i name="e_0_energy">    -12.80214499 </i>
   </energy>
  </scstep>
  <scstep>
   <time name="total">    6.19    6.21</time>
   <energy>
    <i name="e_fr_energy">    -12.28846466 </i>
    <i name="e_wo_entrp">    -12.28846466 </i>
    <i name="e_0_energy">    -12.28846466 </i>
   </energy>
  </scstep>
  <scstep>
   <time name="total">    5.71    5.72</time>
   <energy>
    <i name="e_fr_energy">    -12.38714544 </i>
    <i name="e_wo_entrp">    -12.38714544 </i>
    <i name="e_0_energy">    -12.38714544 </i>
   </energy>
  </scstep>
  <scstep>
   <time name="total">    5.54    5.55</time>
   <energy>
    <i name="e_fr_energy">    -12.40941792 </i>
    <i name="e_wo_entrp">    -12.40941792 </i>
    <i name="e_0_energy">    -12.40941792 </i>
   </energy>
  </scstep>
  <scstep>
   <time name="total">    4.92    4.93</time>
   <energy>
    <i name="e_fr_energy">    -12.41587490 </i>
    <i name="e_wo_entrp">    -12.41587490 </i>
    <i name="e_0_energy">    -12.41587490 </i>
   </energy>
  </scstep>
  <scstep>
   <time name="total">    5.30    5.31</time>
   <energy>
    <i name="e_fr_energy">    -12.41671795 </i>
    <i name="e_wo_entrp">    -12.41671795 </i>
    <i name="e_0_energy">    -12.41671795 </i>
   </energy>
  </scstep>
  <scstep>
   <time name="total">    5.25    5.26</time>
   <energy>
    <i name="e_fr_energy">    -12.41679741 </i>
    <i name="e_wo_entrp">    -12.41679741 </i>
    <i name="e_0_energy">    -12.41679741 </i>
   </energy>
  </scstep>
  <scstep>
   <time name="total">    8.04    8.05</time>
   <energy>
    <i name="alphaZ">      3.29317992 </i>
    <i name="ewald">   -226.94489173 </i>
    <i name="hartreedc">    -15.52031324 </i>
    <i name="XCdc">    -14.41870250 </i>
    <i name="pawpsdc">   1649.08984896 </i>
    <i name="pawaedc">  -1621.44677770 </i>
    <i name="eentropy">      0.00000000 </i>
    <i name="bandstr">     -1.74745037 </i>
    <i name="atom">    203.99906502 </i>
    <i name="e_fr_energy">    -12.41680722 </i>
    <i name="e_wo_entrp">    -12.41680722 </i>
    <i name="e_0_energy">    -12.41680722 </i>
   </energy>
  </scstep>
  <structure>
   <crystal>
    <varray name="basis" >
     <v>       3.34889800       0.00000000       1.93348700 </v>
     <v>       1.11629900       3.15737200       1.93348700 </v>
     <v>       0.00000000       0.00000000       3.86697500 </v>
    </varray>
    <i name="volume">     40.88829843 </i>
    <varray name="rec_basis" >
     <v>       0.29860569      -0.10557300       0.00000000 </v>
     <v>       0.00000000       0.31671909       0.00000000 </v>
     <v>      -0.14930281      -0.10557302       0.25860007 </v>
    </varray>
   </crystal>
   <varray name="positions" >
    <v>       0.25000000       0.25000000       0.25000000 </v>
    <v>       0.00000000       0.00000000       0.00000000 </v>
   </varray>
  </structure>
  <varray name="forces" >
   <v>      -0.00000000      -0.00000000      -0.00000000 </v>
   <v>       0.00000000       0.00000000       0.00000000 </v>
  </varray>
  <varray name="stress" >
   <v>     -12.79112922       0.00000135       0.00000191 </v>
   <v>       0.00000135     -12.79113478       0.00000135 </v>
   <v>       0.00000191       0.00000135     -12.79113370 </v>
  </varray>
  <energy>
   <i name="e_fr_energy">    -12.41680722 </i>
   <i name="e_wo_entrp">    -12.41680722 </i>
   <i name="e_0_energy">    -12.41680722 </i>
  </energy>
  <time name="totalsc">   47.33   47.43</time>
  <eigenvalues>
   <array>
    <dimension dim="1">band</dimension>
    <dimension dim="2">kpoint</dimension>
    <dimension dim="3">spin</dimension>
    <field>eigene</field>
    <field>occ</field>
    <set>
     <set comment="spin 1">
      <set comment="kpoint 1">
       <r>   -7.8527    1.0000 </r>
       <r>    5.2608    1.0000 </r>
       <r>    5.2608    1.0000 </r>
       <r>    5.2608    1.0000 </r>
       <r>    8.6185    0.0000 </r>
       <r>    8.6185    0.0000 </r>
       <r>    8.6185    0.0000 </r>
       <r>    9.4022    0.0000 </r>
       <r>   14.0260    0.0000 </r>
       <r>   14.0640    0.0000 </r>
       <r>   14.0640    0.0000 </r>
      </set>
      <set comment="kpoint 2">
       <r>   -6.9816    1.0000 </r>
       <r>    1.0362    1.0000 </r>
       <r>    4.4651    1.0000 </r>
       <r>    4.4651    1.0000 </r>
       <r>    8.0128    0.0000 </r>
       <r>    9.6109    0.0000 </r>
       <r>    9.6109    0.0000 </r>
       <r>   13.1232    0.0000 </r>
       <r>   13.4812    0.0000 </r>
       <r>   13.4812    0.0000 </r>
       <r>   15.1516    0.0000 </r>
      </set>
      <set comment="kpoint 3">
       <r>   -5.3167    1.0000 </r>
       <r>   -2.3237    1.0000 </r>
       <r>    3.9722    1.0000 </r>
       <r>    3.9722    1.0000 </r>
       <r>    7.4893    0.0000 </r>
       <r>    9.4459    0.0000 </r>
       <r>    9.4459    0.0000 </r>
       <r>   13.8953    0.0000 </r>
       <r>   17.0413    0.0000 </r>
       <r>   17.0784    0.0000 </r>
       <r>   17.7486    0.0000 </r>
      </set>
      <set comment="kpoint 4">
       <r>   -6.6727    1.0000 </r>
       <r>    1.4529    1.0000 </r>
       <r>    3.2597    1.0000 </r>
       <r>    3.2597    1.0000 </r>
       <r>    7.0797    0.0000 </r>
       <r>    9.1998    0.0000 </r>
       <r>   11.9845    0.0000 </r>
       <r>   11.9845    0.0000 </r>
       <r>   14.3173    0.0000 </r>
       <r>   15.3278    0.0000 </r>
       <r>   17.6577    0.0000 </r>
      </set>
      <set comment="kpoint 5">
       <r>   -4.8864    1.0000 </r>
       <r>   -1.7124    1.0000 </r>
       <r>    1.5225    1.0000 </r>
       <r>    2.9025    1.0000 </r>
       <r>    7.4960   -0.0000 </r>
       <r>   10.5565   -0.0000 </r>
       <r>   11.9460    0.0000 </r>
       <r>   12.1644    0.0000 </r>
       <r>   16.6025    0.0000 </r>
       <r>   17.0001    0.0000 </r>
       <r>   18.6971    0.0000 </r>
      </set>
      <set comment="kpoint 6">
       <r>   -5.6236    1.0000 </r>
       <r>   -0.7189    1.0000 </r>
       <r>    1.2947    1.0000 </r>
       <r>    3.8530    1.0000 </r>
       <r>    8.4843    0.0000 </r>
       <r>   11.0043    0.0000 </r>
       <r>   11.2336    0.0000 </r>
       <r>   12.3622    0.0000 </r>
       <r>   12.6689    0.0000 </r>
       <r>   16.0400    0.0000 </r>
       <r>   19.1532    0.0000 </r>
      </set>
      <set comment="kpoint 7">
       <r>   -3.3122    1.0000 </r>
       <r>   -3.3122    1.0000 </r>
       <r>    2.1909    1.0000 </r>
       <r>    2.1909    1.0000 </r>
       <r>    6.6450    0.0000 </r>
       <r>    6.6450    0.0000 </r>
       <r>   16.6057    0.0000 </r>
       <r>   16.6057    0.0000 </r>
       <r>   17.4594    0.0000 </r>
       <r>   17.4609    0.0000 </r>
       <r>   19.3712    0.0000 </r>
      </set>
      <set comment="kpoint 8">
       <r>   -3.1403    1.0000 </r>
       <r>   -3.1403    1.0000 </r>
       <r>    1.1842    1.0000 </r>
       <r>    1.1842    1.0000 </r>
       <r>   10.3444   -0.0000 </r>
       <r>   10.3444   -0.0000 </r>
       <r>   11.1992    0.0000 </r>
       <r>   11.1992    0.0000 </r>
       <r>   17.0713    0.0000 </r>
       <r>   17.0718    0.0000 </r>
       <r>   19.5355    0.0000 </r>
      </set>
     </set>
    </set>
   </array>
  </eigenvalues>
  <separator name="orbital magnetization" >
   <v name="MAGDIPOLOUT">      0.00000000      0.00000000      0.00000000</v>
  </separator>
  <dielectricfunction comment="density-density">
   <imag>
    <array>
     <dimension dim="1">gridpoints</dimension>
     <field>energy</field>
     <field>xx</field>
     <field>yy</field>
     <field>zz</field>
     <field>xy</field>
     <field>yz</field>
     <field>zx</field>
     <set>
      <r>     0.0000     0.0000     0.0000     0.0000     0.0000     0.0000     0.0000 </r>
      <r>     0.0065     0.0008     0.0008     0.0008    -0.0000    -0.0000    -0.0000 </r>
      <r>     0.0130     0.0015     0.0015     0.0015    -0.0000    -0.0000    -0.0000 </r>
      <r>     0.0195     0.0023     0.0023     0.0023    -0.0000    -0.0000    -0.0000 </r>
      <r>     0.0260     0.0031     0.0031     0.0031    -0.0000    -0.0000    -0.0000 </r>
      <r>     0.0325     0.0038     0.0038     0.0038    -0.0000    -0.0000    -0.0000 </r>
      <r>     0.0390     0.0046     0.0046     0.0046    -0.0000    -0.0000    -0.0000 </r>
      <r>     0.0455     0.0054     0.0054     0.0054    -0.0000    -0.0000    -0.0000 </r>
      <r>     0.0520     0.0061     0.0061     0.0061    -0.0000    -0.0000    -0.0000 </r>
      <r>     0.0584     0.0069     0.0069     0.0069    -0.0000    -0.0000    -0.0000 </r>
      <r>     0.0649     0.0076     0.0076     0.0076    -0.0000    -0.0000    -0.0000 </r>
      <r>     0.0714     0.0084     0.0084     0.0084    -0.0000    -0.0000    -0.0000 </r>
      <r>     0.0779     0.0092     0.0092     0.0092    -0.0000    -0.0000    -0.0000 </r>
      <r>     0.0844     0.0099     0.0099     0.0099    -0.0000    -0.0000    -0.0000 </r>
      <r>     0.0909     0.0107     0.0107     0.0107    -0.0000    -0.0000    -0.0000 </r>
      <r>     0.0974     0.0115     0.0115     0.0115    -0.0000    -0.0000    -0.0000 </r>
      <r>     0.1039     0.0122     0.0122     0.0122    -0.0000    -0.0000    -0.0000 </r>
      <r>     0.1104     0.0130     0.0130     0.0130    -0.0000    -0.0000    -0.0000 </r>
      <r>     0.1169     0.0138     0.0138     0.0138    -0.0000    -0.0000    -0.0000 </r>
      <r>     0.1234     0.0145     0.0145     0.0145    -0.0000    -0.0000    -0.0000 </r>
      <r>     0.1299     0.0153     0.0153     0.0153    -0.0000    -0.0000    -0.0000 </r>
      <r>     0.1364     0.0161     0.0161     0.0161    -0.0000    -0.0000    -0.0000 </r>
      <r>     0.1429     0.0168     0.0168     0.0168    -0.0000    -0.0000    -0.0000 </r>
      <r>     0.1494     0.0176     0.0176     0.0176    -0.0000    -0.0000    -0.0000 </r>
      <r>     0.1559     0.0184     0.0184     0.0184    -0.0000    -0.0000    -0.0000 </r>
      <r>     0.1623     0.0192     0.0192     0.0192    -0.0000    -0.0000    -0.0000 </r>
      <r>     0.1688     0.0199     0.0199     0.0199    -0.0000    -0.0000    -0.0000 </r>
      <r>     0.1753     0.0207     0.0207     0.0207    -0.0000    -0.0000    -0.0000 </r>
      <r>     0.1818     0.0215     0.0215     0.0215    -0.0000    -0.0000    -0.0000 </r>
      <r>     0.1883     0.0222     0.0222     0.0222    -0.0000    -0.0000    -0.0000 </r>
      <r>     0.1948     0.0230     0.0230     0.0230    -0.0000    -0.0000    -0.0000 </r>
      <r>     0.2013     0.0238     0.0238     0.0238    -0.0000    -0.0000    -0.0000 </r>
      <r>     0.2078     0.0246     0.0246     0.0246    -0.0000    -0.0000    -0.0000 </r>
      <r>     0.2143     0.0253     0.0253     0.0253    -0.0000    -0.0000    -0.0000 </r>
      <r>     0.2208     0.0261     0.0261     0.0261    -0.0000    -0.0000    -0.0000 </r>
      <r>     0.2273     0.0269     0.0269     0.0269    -0.0000    -0.0000    -0.0000 </r>
      <r>     0.2338     0.0277     0.0277     0.0277    -0.0000    -0.0000    -0.0000 </r>
      <r>     0.2403     0.0285     0.0285     0.0285    -0.0000    -0.0000    -0.0000 </r>
      <r>     0.2468     0.0292     0.0292     0.0292    -0.0000    -0.0000    -0.0000 </r>
      <r>     0.2533     0.0300     0.0300     0.0300    -0.0000    -0.0000    -0.0000 </r>
      <r>     0.2598     0.0308     0.0308     0.0308    -0.0000    -0.0000    -0.0000 </r>
      <r>     0.2663     0.0316     0.0316     0.0316    -0.0000    -0.0000    -0.0000 </r>
      <r>     0.2727     0.0324     0.0324     0.0324    -0.0000    -0.0000    -0.0000 </r>
      <r>     0.2792     0.0331     0.0331     0.0331    -0.0000    -0.0000    -0.0000 </r>
      <r>     0.2857     0.0339     0.0339     0.0339    -0.0000    -0.0000    -0.0000 </r>
      <r>     0.2922     0.0347     0.0347     0.0347    -0.0000    -0.0000    -0.0000 </r>
      <r>     0.2987     0.0355     0.0355     0.0355    -0.0000    -0.0000    -0.0000 </r>
      <r>     0.3052     0.0363     0.0363     0.0363    -0.0000    -0.0000    -0.0000 </r>
      <r>     0.3117     0.0371     0.0371     0.0371    -0.0000    -0.0000    -0.0000 </r>
      <r>     0.3182     0.0379     0.0379     0.0379    -0.0000    -0.0000    -0.0000 </r>
      <r>     0.3247     0.0386     0.0386     0.0386    -0.0000    -0.0000    -0.0000 </r>
      <r>     0.3312     0.0394     0.0394     0.0394    -0.0000    -0.0000    -0.0000 </r>
      <r>     0.3377     0.0402     0.0402     0.0402    -0.0000    -0.0000    -0.0000 </r>
      <r>     0.3442     0.0410     0.0410     0.0410    -0.0000    -0.0000    -0.0000 </r>
      <r>     0.3507     0.0418     0.0418     0.0418    -0.0000    -0.0000    -0.0000 </r>
      <r>     0.3572     0.0426     0.0426     0.0426    -0.0000    -0.0000    -0.0000 </r>
      <r>     0.3637     0.0434     0.0434     0.0434    -0.0000    -0.0000    -0.0000 </r>
      <r>     0.3702     0.0442     0.0442     0.0442    -0.0000    -0.0000    -0.0000 </r>
      <r>     0.3766     0.0450     0.0450     0.0450    -0.0000    -0.0000    -0.0000 </r>
      <r>     0.3831     0.0458     0.0458     0.0458    -0.0000    -0.0000    -0.0000 </r>
      <r>     0.3896     0.0466     0.0466     0.0466    -0.0000    -0.0000    -0.0000 </r>
      <r>     0.3961     0.0474     0.0474     0.0474    -0.0000    -0.0000    -0.0000 </r>
      <r>     0.4026     0.0482     0.0482     0.0482    -0.0000    -0.0000    -0.0000 </r>
      <r>     0.4091     0.0490     0.0490     0.0490    -0.0000    -0.0000    -0.0000 </r>
      <r>     0.4156     0.0498     0.0498     0.0498    -0.0000    -0.0000    -0.0000 </r>
      <r>     0.4221     0.0506     0.0506     0.0506    -0.0000    -0.0000    -0.0000 </r>
      <r>     0.4286     0.0515     0.0515     0.0515    -0.0000    -0.0000    -0.0000 </r>
      <r>     0.4351     0.0523     0.0523     0.0523    -0.0000    -0.0000    -0.0000 </r>
      <r>     0.4416     0.0531     0.0531     0.0531    -0.0000    -0.0000    -0.0000 </r>
      <r>     0.4481     0.0539     0.0539     0.0539    -0.0000    -0.0000    -0.0000 </r>
      <r>     0.4546     0.0547     0.0547     0.0547    -0.0000    -0.0000    -0.0000 </r>
      <r>     0.4611     0.0555     0.0555     0.0555    -0.0000    -0.0000    -0.0000 </r>
      <r>     0.4676     0.0564     0.0564     0.0564    -0.0000    -0.0000    -0.0000 </r>
      <r>     0.4741     0.0572     0.0572     0.0572    -0.0000    -0.0000    -0.0000 </r>
      <r>     0.4806     0.0580     0.0580     0.0580    -0.0000    -0.0000    -0.0000 </r>
      <r>     0.4870     0.0588     0.0588     0.0588    -0.0000    -0.0000    -0.0000 </r>
      <r>     0.4935     0.0596     0.0596     0.0596    -0.0000    -0.0000    -0.0000 </r>
      <r>     0.5000     0.0605     0.0605     0.0605    -0.0000    -0.0000    -0.0000 </r>
      <r>     0.5065     0.0613     0.0613     0.0613    -0.0000    -0.0000    -0.0000 </r>
      <r>     0.5130     0.0621     0.0621     0.0621    -0.0000    -0.0000    -0.0000 </r>
      <r>     0.5195     0.0630     0.0630     0.0630    -0.0000    -0.0000    -0.0000 </r>
      <r>     0.5260     0.0638     0.0638     0.0638    -0.0000    -0.0000    -0.0000 </r>
      <r>     0.5325     0.0646     0.0646     0.0646    -0.0000    -0.0000    -0.0000 </r>
      <r>     0.5390     0.0655     0.0655     0.0655    -0.0000    -0.0000    -0.0000 </r>
      <r>     0.5455     0.0663     0.0663     0.0663    -0.0000    -0.0000    -0.0000 </r>
      <r>     0.5520     0.0672     0.0672     0.0672    -0.0000    -0.0000    -0.0000 </r>
      <r>     0.5585     0.0680     0.0680     0.0680    -0.0000    -0.0000    -0.0000 </r>
      <r>     0.5650     0.0689     0.0689     0.0689    -0.0000    -0.0000    -0.0000 </r>
      <r>     0.5715     0.0697     0.0697     0.0697    -0.0000    -0.0000    -0.0000 </r>
      <r>     0.5780     0.0706     0.0706     0.0706    -0.0000    -0.0000    -0.0000 </r>
      <r>     0.5845     0.0714     0.0714     0.0714    -0.0000    -0.0000    -0.0000 </r>
      <r>     0.5909     0.0723     0.0723     0.0723    -0.0000    -0.0000    -0.0000 </r>
      <r>     0.5974     0.0731     0.0731     0.0731    -0.0000    -0.0000    -0.0000 </r>
      <r>     0.6039     0.0740     0.0740     0.0740    -0.0000    -0.0000    -0.0000 </r>
      <r>     0.6104     0.0748     0.0748     0.0748    -0.0000    -0.0000    -0.0000 </r>
      <r>     0.6169     0.0757     0.0757     0.0757    -0.0000    -0.0000    -0.0000 </r>
      <r>     0.6234     0.0766     0.0766     0.0766    -0.0000    -0.0000    -0.0000 </r>
      <r>     0.6299     0.0774     0.0774     0.0774    -0.0000    -0.0000    -0.0000 </r>
      <r>     0.6364     0.0783     0.0783     0.0783    -0.0000    -0.0000    -0.0000 </r>
      <r>     0.6429     0.0792     0.0792     0.0792    -0.0000    -0.0000    -0.0000 </r>
      <r>     0.6494     0.0801     0.0801     0.0801    -0.0000    -0.0000    -0.0000 </r>
      <r>     0.6559     0.0809     0.0809     0.0809    -0.0000    -0.0000    -0.0000 </r>
      <r>     0.6624     0.0818     0.0818     0.0818    -0.0000    -0.0000    -0.0000 </r>
      <r>     0.6689     0.0827     0.0827     0.0827    -0.0000    -0.0000    -0.0000 </r>
      <r>     0.6754     0.0836     0.0836     0.0836    -0.0000    -0.0000    -0.0000 </r>
      <r>     0.6819     0.0845     0.0845     0.0845    -0.0000    -0.0000    -0.0000 </r>
      <r>     0.6884     0.0854     0.0854     0.0854    -0.0000    -0.0000    -0.0000 </r>
      <r>     0.6949     0.0862     0.0862     0.0862    -0.0000    -0.0000    -0.0000 </r>
      <r>     0.7013     0.0871     0.0871     0.0871    -0.0000    -0.0000    -0.0000 </r>
      <r>     0.7078     0.0880     0.0880     0.0880    -0.0000    -0.0000    -0.0000 </r>
      <r>     0.7143     0.0889     0.0889     0.0889    -0.0000    -0.0000    -0.0000 </r>
      <r>     0.7208     0.0898     0.0898     0.0898    -0.0000    -0.0000    -0.0000 </r>
      <r>     0.7273     0.0907     0.0907     0.0907    -0.0000    -0.0000    -0.0000 </r>
      <r>     0.7338     0.0917     0.0917     0.0917    -0.0000    -0.0000    -0.0000 </r>
      <r>     0.7403     0.0926     0.0926     0.0926    -0.0000    -0.0000    -0.0000 </r>
      <r>     0.7468     0.0935     0.0935     0.0935    -0.0000    -0.0000    -0.0000 </r>
      <r>     0.7533     0.0944     0.0944     0.0944    -0.0000    -0.0000    -0.0000 </r>
      <r>     0.7598     0.0953     0.0953     0.0953    -0.0000    -0.0000    -0.0000 </r>
      <r>     0.7663     0.0962     0.0962     0.0962    -0.0000    -0.0000    -0.0000 </r>
      <r>     0.7728     0.0972     0.0972     0.0972    -0.0000    -0.0000    -0.0000 </r>
      <r>     0.7793     0.0981     0.0981     0.0981    -0.0000    -0.0000    -0.0000 </r>
      <r>     0.7858     0.0990     0.0990     0.0990    -0.0000    -0.0000    -0.0000 </r>
      <r>     0.7923     0.1000     0.1000     0.1000    -0.0000    -0.0000    -0.0000 </r>
      <r>     0.7988     0.1009     0.1009     0.1009    -0.0000    -0.0000    -0.0000 </r>
      <r>     0.8052     0.1018     0.1018     0.1018    -0.0000    -0.0000    -0.0000 </r>
      <r>     0.8117     0.1028     0.1028     0.1028    -0.0000    -0.0000    -0.0000 </r>
      <r>     0.8182     0.1037     0.1037     0.1037    -0.0000    -0.0000    -0.0000 </r>
      <r>     0.8247     0.1047     0.1047     0.1047    -0.0000    -0.0000    -0.0000 </r>
      <r>     0.8312     0.1056     0.1056     0.1056    -0.0000    -0.0000    -0.0000 </r>
      <r>     0.8377     0.1066     0.1066     0.1066    -0.0000    -0.0000    -0.0000 </r>
      <r>     0.8442     0.1076     0.1076     0.1076    -0.0000    -0.0000    -0.0000 </r>
      <r>     0.8507     0.1085     0.1085     0.1085    -0.0000    -0.0000    -0.0000 </r>
      <r>     0.8572     0.1095     0.1095     0.1095    -0.0000    -0.0000    -0.0000 </r>
      <r>     0.8637     0.1105     0.1105     0.1105    -0.0000    -0.0000    -0.0000 </r>
      <r>     0.8702     0.1114     0.1114     0.1114    -0.0000    -0.0000    -0.0000 </r>
      <r>     0.8767     0.1124     0.1124     0.1124    -0.0000    -0.0000    -0.0000 </r>
      <r>     0.8832     0.1134     0.1134     0.1134    -0.0000    -0.0000    -0.0000 </r>
      <r>     0.8897     0.1144     0.1144     0.1144    -0.0000    -0.0000    -0.0000 </r>
      <r>     0.8962     0.1154     0.1154     0.1154    -0.0000    -0.0000    -0.0000 </r>
      <r>     0.9027     0.1164     0.1164     0.1164    -0.0000    -0.0000    -0.0000 </r>
      <r>     0.9092     0.1174     0.1174     0.1174    -0.0000    -0.0000    -0.0000 </r>
      <r>     0.9156     0.1184     0.1184     0.1184    -0.0000    -0.0000    -0.0000 </r>
      <r>     0.9221     0.1194     0.1194     0.1194    -0.0000    -0.0000    -0.0000 </r>
      <r>     0.9286     0.1204     0.1204     0.1204    -0.0000    -0.0000    -0.0000 </r>
      <r>     0.9351     0.1214     0.1214     0.1214    -0.0000    -0.0000    -0.0000 </r>
      <r>     0.9416     0.1224     0.1224     0.1224    -0.0000    -0.0000    -0.0000 </r>
      <r>     0.9481     0.1234     0.1234     0.1234    -0.0000    -0.0000    -0.0000 </r>
      <r>     0.9546     0.1244     0.1244     0.1244    -0.0000    -0.0000    -0.0000 </r>
      <r>     0.9611     0.1255     0.1255     0.1255    -0.0000    -0.0000    -0.0000 </r>
      <r>     0.9676     0.1265     0.1265     0.1265    -0.0000    -0.0000    -0.0000 </r>
      <r>     0.9741     0.1275     0.1275     0.1275    -0.0000    -0.0000    -0.0000 </r>
      <r>     0.9806     0.1286     0.1286     0.1286    -0.0000    -0.0000    -0.0000 </r>
      <r>     0.9871     0.1296     0.1296     0.1296    -0.0000    -0.0000    -0.0000 </r>
      <r>     0.9936     0.1307     0.1307     0.1307    -0.0000    -0.0000    -0.0000 </r>
      <r>     1.0001     0.1317     0.1317     0.1317    -0.0000    -0.0000    -0.0000 </r>
      <r>     1.0066     0.1328     0.1328     0.1328    -0.0000    -0.0000    -0.0000 </r>
      <r>     1.0131     0.1338     0.1338     0.1338    -0.0000    -0.0000    -0.0000 </r>
      <r>     1.0195     0.1349     0.1349     0.1349    -0.0000    -0.0000    -0.0000 </r>
      <r>     1.0260     0.1360     0.1360     0.1360    -0.0000    -0.0000    -0.0000 </r>
      <r>     1.0325     0.1370     0.1370     0.1370    -0.0000    -0.0000    -0.0000 </r>
      <r>     1.0390     0.1381     0.1381     0.1381    -0.0000    -0.0000    -0.0000 </r>
      <r>     1.0455     0.1392     0.1392     0.1392    -0.0000    -0.0000    -0.0000 </r>
      <r>     1.0520     0.1403     0.1403     0.1403    -0.0000    -0.0000    -0.0000 </r>
      <r>     1.0585     0.1414     0.1414     0.1414    -0.0000    -0.0000    -0.0000 </r>
      <r>     1.0650     0.1425     0.1425     0.1425    -0.0000    -0.0000    -0.0000 </r>
      <r>     1.0715     0.1436     0.1436     0.1436    -0.0000    -0.0000    -0.0000 </r>
      <r>     1.0780     0.1447     0.1447     0.1447    -0.0000    -0.0000    -0.0000 </r>
      <r>     1.0845     0.1458     0.1458     0.1458    -0.0000    -0.0000    -0.0000 </r>
      <r>     1.0910     0.1469     0.1469     0.1469    -0.0000    -0.0000    -0.0000 </r>
      <r>     1.0975     0.1481     0.1481     0.1481    -0.0000    -0.0000    -0.0000 </r>
      <r>     1.1040     0.1492     0.1492     0.1492    -0.0000    -0.0000    -0.0000 </r>
      <r>     1.1105     0.1503     0.1503     0.1503    -0.0000    -0.0000    -0.0000 </r>
      <r>     1.1170     0.1515     0.1515     0.1515    -0.0000    -0.0000    -0.0000 </r>
      <r>     1.1235     0.1526     0.1526     0.1526    -0.0000    -0.0000    -0.0000 </r>
      <r>     1.1299     0.1538     0.1538     0.1538    -0.0000    -0.0000    -0.0000 </r>
      <r>     1.1364     0.1549     0.1549     0.1549    -0.0000    -0.0000    -0.0000 </r>
      <r>     1.1429     0.1561     0.1561     0.1561    -0.0000    -0.0000    -0.0000 </r>
      <r>     1.1494     0.1573     0.1573     0.1573    -0.0000    -0.0000    -0.0000 </r>
      <r>     1.1559     0.1584     0.1584     0.1584    -0.0000    -0.0000    -0.0000 </r>
      <r>     1.1624     0.1596     0.1596     0.1596    -0.0000    -0.0000    -0.0000 </r>
      <r>     1.1689     0.1608     0.1608     0.1608    -0.0000    -0.0000    -0.0000 </r>
      <r>     1.1754     0.1620     0.1620     0.1620    -0.0000    -0.0000    -0.0000 </r>
      <r>     1.1819     0.1632     0.1632     0.1632    -0.0000    -0.0000    -0.0000 </r>
      <r>     1.1884     0.1644     0.1644     0.1644    -0.0000    -0.0000    -0.0000 </r>
      <r>     1.1949     0.1656     0.1656     0.1656    -0.0000    -0.0000    -0.0000 </r>
      <r>     1.2014     0.1668     0.1668     0.1668    -0.0000    -0.0000    -0.0000 </r>
      <r>     1.2079     0.1680     0.1680     0.1680    -0.0000    -0.0000    -0.0000 </r>
      <r>     1.2144     0.1692     0.1692     0.1692    -0.0000    -0.0000    -0.0000 </r>
      <r>     1.2209     0.1705     0.1705     0.1705    -0.0000    -0.0000    -0.0000 </r>
      <r>     1.2274     0.1717     0.1717     0.1717    -0.0000    -0.0000    -0.0000 </r>
      <r>     1.2338     0.1730     0.1730     0.1730    -0.0000    -0.0000    -0.0000 </r>
      <r>     1.2403     0.1742     0.1742     0.1742    -0.0000    -0.0000    -0.0000 </r>
      <r>     1.2468     0.1755     0.1755     0.1755    -0.0000    -0.0000    -0.0000 </r>
      <r>     1.2533     0.1767     0.1767     0.1767    -0.0000    -0.0000    -0.0000 </r>
      <r>     1.2598     0.1780     0.1780     0.1780    -0.0000    -0.0000    -0.0000 </r>
      <r>     1.2663     0.1793     0.1793     0.1793    -0.0000    -0.0000    -0.0000 </r>
      <r>     1.2728     0.1806     0.1806     0.1806    -0.0000    -0.0000    -0.0000 </r>
      <r>     1.2793     0.1819     0.1819     0.1819    -0.0000    -0.0000    -0.0000 </r>
      <r>     1.2858     0.1832     0.1832     0.1832    -0.0000    -0.0000    -0.0000 </r>
      <r>     1.2923     0.1845     0.1845     0.1845    -0.0000    -0.0000    -0.0000 </r>
      <r>     1.2988     0.1858     0.1858     0.1858    -0.0000    -0.0000    -0.0000 </r>
      <r>     1.3053     0.1871     0.1871     0.1871    -0.0000    -0.0000    -0.0000 </r>
      <r>     1.3118     0.1884     0.1884     0.1884    -0.0000    -0.0000    -0.0000 </r>
      <r>     1.3183     0.1898     0.1898     0.1898    -0.0000    -0.0000    -0.0000 </r>
      <r>     1.3248     0.1911     0.1911     0.1911    -0.0000    -0.0000    -0.0000 </r>
      <r>     1.3313     0.1925     0.1925     0.1925    -0.0000    -0.0000    -0.0000 </r>
      <r>     1.3378     0.1938     0.1938     0.1938    -0.0000    -0.0000    -0.0000 </r>
      <r>     1.3442     0.1952     0.1952     0.1952    -0.0000    -0.0000    -0.0000 </r>
      <r>     1.3507     0.1965     0.1965     0.1965    -0.0000    -0.0000    -0.0000 </r>
      <r>     1.3572     0.1979     0.1979     0.1979    -0.0000    -0.0000    -0.0000 </r>
      <r>     1.3637     0.1993     0.1993     0.1993    -0.0000    -0.0000    -0.0000 </r>
      <r>     1.3702     0.2007     0.2007     0.2007    -0.0000    -0.0000    -0.0000 </r>
      <r>     1.3767     0.2021     0.2021     0.2021    -0.0000    -0.0000    -0.0000 </r>
      <r>     1.3832     0.2035     0.2035     0.2035    -0.0000    -0.0000    -0.0000 </r>
      <r>     1.3897     0.2049     0.2049     0.2049    -0.0000    -0.0000    -0.0000 </r>
      <r>     1.3962     0.2064     0.2064     0.2064    -0.0000    -0.0000    -0.0000 </r>
      <r>     1.4027     0.2078     0.2078     0.2078    -0.0000    -0.0000    -0.0000 </r>
      <r>     1.4092     0.2093     0.2093     0.2093    -0.0000    -0.0000    -0.0000 </r>
      <r>     1.4157     0.2107     0.2107     0.2107    -0.0000    -0.0000    -0.0000 </r>
      <r>     1.4222     0.2122     0.2122     0.2122    -0.0000    -0.0000    -0.0000 </r>
      <r>     1.4287     0.2136     0.2136     0.2136    -0.0000    -0.0000    -0.0000 </r>
      <r>     1.4352     0.2151     0.2151     0.2151    -0.0000    -0.0000    -0.0000 </r>
      <r>     1.4417     0.2166     0.2166     0.2166    -0.0000    -0.0000    -0.0000 </r>
      <r>     1.4481     0.2181     0.2181     0.2181    -0.0000    -0.0000    -0.0000 </r>
      <r>     1.4546     0.2196     0.2196     0.2196    -0.0000    -0.0000    -0.0000 </r>
      <r>     1.4611     0.2211     0.2211     0.2211    -0.0000    -0.0000    -0.0000 </r>
      <r>     1.4676     0.2227     0.2227     0.2227    -0.0000    -0.0000    -0.0000 </r>
      <r>     1.4741     0.2242     0.2242     0.2242    -0.0000    -0.0000    -0.0000 </r>
      <r>     1.4806     0.2257     0.2257     0.2257    -0.0000    -0.0000    -0.0000 </r>
      <r>     1.4871     0.2273     0.2273     0.2273    -0.0000    -0.0000    -0.0000 </r>
      <r>     1.4936     0.2289     0.2289     0.2289    -0.0000    -0.0000    -0.0000 </r>
      <r>     1.5001     0.2304     0.2304     0.2304    -0.0000    -0.0000    -0.0000 </r>
      <r>     1.5066     0.2320     0.2320     0.2320    -0.0000    -0.0000    -0.0000 </r>
      <r>     1.5131     0.2336     0.2336     0.2336    -0.0000    -0.0000    -0.0000 </r>
      <r>     1.5196     0.2352     0.2352     0.2352    -0.0000    -0.0000    -0.0000 </r>
      <r>     1.5261     0.2368     0.2368     0.2368    -0.0000    -0.0000    -0.0000 </r>
      <r>     1.5326     0.2385     0.2385     0.2385    -0.0000    -0.0000    -0.0000 </r>
      <r>     1.5391     0.2401     0.2401     0.2401    -0.0000    -0.0000    -0.0000 </r>
      <r>     1.5456     0.2417     0.2417     0.2417    -0.0000    -0.0000    -0.0000 </r>
      <r>     1.5521     0.2434     0.2434     0.2434    -0.0000    -0.0000    -0.0000 </r>
      <r>     1.5585     0.2451     0.2451     0.2451    -0.0000    -0.0000    -0.0000 </r>
      <r>     1.5650     0.2468     0.2468     0.2468    -0.0000    -0.0000    -0.0000 </r>
      <r>     1.5715     0.2484     0.2484     0.2484    -0.0000    -0.0000    -0.0000 </r>
      <r>     1.5780     0.2501     0.2501     0.2501    -0.0000    -0.0000    -0.0000 </r>
      <r>     1.5845     0.2519     0.2519     0.2519    -0.0000    -0.0000    -0.0000 </r>
      <r>     1.5910     0.2536     0.2536     0.2536    -0.0000    -0.0000    -0.0000 </r>
      <r>     1.5975     0.2553     0.2553     0.2553    -0.0000    -0.0000    -0.0000 </r>
      <r>     1.6040     0.2571     0.2571     0.2571    -0.0000    -0.0000    -0.0000 </r>
      <r>     1.6105     0.2588     0.2588     0.2588    -0.0000    -0.0000    -0.0000 </r>
      <r>     1.6170     0.2606     0.2606     0.2606    -0.0000    -0.0000    -0.0000 </r>
      <r>     1.6235     0.2624     0.2624     0.2624    -0.0000    -0.0000    -0.0000 </r>
      <r>     1.6300     0.2642     0.2642     0.2642    -0.0000    -0.0000    -0.0000 </r>
      <r>     1.6365     0.2660     0.2660     0.2660    -0.0000    -0.0000    -0.0000 </r>
      <r>     1.6430     0.2678     0.2678     0.2678    -0.0000    -0.0000    -0.0000 </r>
      <r>     1.6495     0.2697     0.2697     0.2697    -0.0000    -0.0000    -0.0000 </r>
      <r>     1.6560     0.2715     0.2715     0.2715    -0.0000    -0.0000    -0.0000 </r>
      <r>     1.6624     0.2734     0.2734     0.2734    -0.0000    -0.0000    -0.0000 </r>
      <r>     1.6689     0.2753     0.2753     0.2753    -0.0000    -0.0000    -0.0000 </r>
      <r>     1.6754     0.2771     0.2771     0.2771    -0.0000    -0.0000    -0.0000 </r>
      <r>     1.6819     0.2790     0.2790     0.2790    -0.0000    -0.0000    -0.0000 </r>
      <r>     1.6884     0.2810     0.2810     0.2810    -0.0000    -0.0000    -0.0000 </r>
      <r>     1.6949     0.2829     0.2829     0.2829    -0.0000    -0.0000    -0.0000 </r>
      <r>     1.7014     0.2848     0.2848     0.2848    -0.0000    -0.0000    -0.0000 </r>
      <r>     1.7079     0.2868     0.2868     0.2868    -0.0000    -0.0000    -0.0000 </r>
      <r>     1.7144     0.2888     0.2888     0.2888    -0.0000    -0.0000    -0.0000 </r>
      <r>     1.7209     0.2908     0.2908     0.2908    -0.0000    -0.0000    -0.0000 </r>
      <r>     1.7274     0.2928     0.2928     0.2928    -0.0000    -0.0000    -0.0000 </r>
      <r>     1.7339     0.2948     0.2948     0.2948    -0.0000    -0.0000    -0.0000 </r>
      <r>     1.7404     0.2968     0.2968     0.2968    -0.0000    -0.0000    -0.0000 </r>
      <r>     1.7469     0.2989     0.2989     0.2989    -0.0000    -0.0000    -0.0000 </r>
      <r>     1.7534     0.3009     0.3009     0.3009    -0.0000    -0.0000    -0.0000 </r>
      <r>     1.7599     0.3030     0.3030     0.3030    -0.0000    -0.0000    -0.0000 </r>
      <r>     1.7664     0.3051     0.3051     0.3051    -0.0000    -0.0000    -0.0000 </r>
      <r>     1.7728     0.3072     0.3072     0.3072    -0.0000    -0.0000    -0.0000 </r>
      <r>     1.7793     0.3094     0.3094     0.3094    -0.0000    -0.0000    -0.0000 </r>
      <r>     1.7858     0.3115     0.3115     0.3115    -0.0000    -0.0000    -0.0000 </r>
      <r>     1.7923     0.3137     0.3137     0.3137    -0.0000    -0.0000    -0.0000 </r>
      <r>     1.7988     0.3158     0.3158     0.3158    -0.0000    -0.0000    -0.0000 </r>
      <r>     1.8053     0.3180     0.3180     0.3180    -0.0000    -0.0000    -0.0000 </r>
      <r>     1.8118     0.3203     0.3203     0.3203    -0.0000    -0.0000    -0.0000 </r>
      <r>     1.8183     0.3225     0.3225     0.3225    -0.0000    -0.0000    -0.0000 </r>
      <r>     1.8248     0.3247     0.3247     0.3247    -0.0000    -0.0000    -0.0000 </r>
      <r>     1.8313     0.3270     0.3270     0.3270    -0.0000    -0.0000    -0.0000 </r>
      <r>     1.8378     0.3293     0.3293     0.3293    -0.0000    -0.0000    -0.0000 </r>
      <r>     1.8443     0.3316     0.3316     0.3316    -0.0000    -0.0000    -0.0000 </r>
      <r>     1.8508     0.3339     0.3339     0.3339    -0.0000    -0.0000    -0.0000 </r>
      <r>     1.8573     0.3363     0.3363     0.3363    -0.0000    -0.0000    -0.0000 </r>
      <r>     1.8638     0.3386     0.3386     0.3386    -0.0000    -0.0000    -0.0000 </r>
      <r>     1.8703     0.3410     0.3410     0.3410    -0.0000    -0.0000    -0.0000 </r>
      <r>     1.8767     0.3434     0.3434     0.3434    -0.0000    -0.0000    -0.0000 </r>
      <r>     1.8832     0.3458     0.3458     0.3458    -0.0000    -0.0000    -0.0000 </r>
      <r>     1.8897     0.3483     0.3483     0.3483    -0.0000    -0.0000    -0.0000 </r>
      <r>     1.8962     0.3507     0.3507     0.3507    -0.0000    -0.0000    -0.0000 </r>
      <r>     1.9027     0.3532     0.3532     0.3532    -0.0000    -0.0000    -0.0000 </r>
      <r>     1.9092     0.3557     0.3557     0.3557    -0.0000    -0.0000    -0.0000 </r>
      <r>     1.9157     0.3582     0.3582     0.3582    -0.0000    -0.0000    -0.0000 </r>
      <r>     1.9222     0.3608     0.3608     0.3608    -0.0000    -0.0000    -0.0000 </r>
      <r>     1.9287     0.3634     0.3634     0.3634    -0.0000    -0.0000    -0.0000 </r>
      <r>     1.9352     0.3659     0.3659     0.3659    -0.0000    -0.0000    -0.0000 </r>
      <r>     1.9417     0.3686     0.3686     0.3686    -0.0000    -0.0000    -0.0000 </r>
      <r>     1.9482     0.3712     0.3712     0.3712    -0.0000    -0.0000    -0.0000 </r>
      <r>     1.9547     0.3739     0.3739     0.3739    -0.0000    -0.0000    -0.0000 </r>
      <r>     1.9612     0.3765     0.3765     0.3765    -0.0000    -0.0000    -0.0000 </r>
      <r>     1.9677     0.3792     0.3792     0.3792    -0.0000    -0.0000    -0.0000 </r>
      <r>     1.9742     0.3820     0.3820     0.3820    -0.0000    -0.0000    -0.0000 </r>
      <r>     1.9807     0.3847     0.3847     0.3847    -0.0000    -0.0000    -0.0000 </r>
      <r>     1.9871     0.3875     0.3875     0.3875    -0.0000    -0.0000    -0.0000 </r>
      <r>     1.9936     0.3903     0.3903     0.3903    -0.0000    -0.0000    -0.0000 </r>
      <r>     2.0001     0.3932     0.3932     0.3932    -0.0000    -0.0000    -0.0000 </r>
      <r>     2.0066     0.3960     0.3960     0.3960    -0.0000    -0.0000    -0.0000 </r>
      <r>     2.0131     0.3989     0.3989     0.3989    -0.0000    -0.0000    -0.0000 </r>
      <r>     2.0196     0.4018     0.4018     0.4018    -0.0000    -0.0000    -0.0000 </r>
      <r>     2.0261     0.4047     0.4047     0.4047    -0.0000    -0.0000    -0.0000 </r>
      <r>     2.0326     0.4077     0.4077     0.4077    -0.0000    -0.0000    -0.0000 </r>
      <r>     2.0391     0.4107     0.4107     0.4107    -0.0000    -0.0000    -0.0000 </r>
      <r>     2.0456     0.4137     0.4137     0.4137    -0.0000    -0.0000    -0.0000 </r>
      <r>     2.0521     0.4168     0.4168     0.4168    -0.0000    -0.0000    -0.0000 </r>
      <r>     2.0586     0.4198     0.4198     0.4198    -0.0000    -0.0000    -0.0000 </r>
      <r>     2.0651     0.4230     0.4230     0.4230    -0.0000    -0.0000    -0.0000 </r>
      <r>     2.0716     0.4261     0.4261     0.4261    -0.0000    -0.0000    -0.0000 </r>
      <r>     2.0781     0.4293     0.4293     0.4293    -0.0000    -0.0000    -0.0000 </r>
      <r>     2.0846     0.4325     0.4325     0.4325    -0.0000    -0.0000    -0.0000 </r>
      <r>     2.0910     0.4357     0.4357     0.4357    -0.0000    -0.0000    -0.0000 </r>
      <r>     2.0975     0.4389     0.4389     0.4389    -0.0000    -0.0000    -0.0000 </r>
      <r>     2.1040     0.4422     0.4422     0.4422    -0.0000    -0.0000    -0.0000 </r>
      <r>     2.1105     0.4456     0.4456     0.4456    -0.0000    -0.0000    -0.0000 </r>
      <r>     2.1170     0.4489     0.4489     0.4489    -0.0000    -0.0000    -0.0000 </r>
      <r>     2.1235     0.4523     0.4523     0.4523    -0.0000    -0.0000    -0.0000 </r>
      <r>     2.1300     0.4557     0.4557     0.4557    -0.0000    -0.0000    -0.0000 </r>
      <r>     2.1365     0.4592     0.4592     0.4592    -0.0000    -0.0000    -0.0000 </r>
      <r>     2.1430     0.4627     0.4627     0.4627    -0.0000    -0.0000    -0.0000 </r>
      <r>     2.1495     0.4662     0.4662     0.4662    -0.0000    -0.0000    -0.0000 </r>
      <r>     2.1560     0.4698     0.4698     0.4698    -0.0000    -0.0000    -0.0000 </r>
      <r>     2.1625     0.4734     0.4734     0.4734    -0.0000    -0.0000    -0.0000 </r>
      <r>     2.1690     0.4770     0.4770     0.4770    -0.0000    -0.0000    -0.0000 </r>
      <r>     2.1755     0.4807     0.4807     0.4807    -0.0000    -0.0000    -0.0000 </r>
      <r>     2.1820     0.4844     0.4844     0.4844    -0.0000    -0.0000    -0.0000 </r>
      <r>     2.1885     0.4882     0.4882     0.4882    -0.0000    -0.0000    -0.0000 </r>
      <r>     2.1950     0.4920     0.4920     0.4920    -0.0000    -0.0000    -0.0000 </r>
      <r>     2.2014     0.4958     0.4958     0.4958    -0.0000    -0.0000    -0.0000 </r>
      <r>     2.2079     0.4997     0.4997     0.4997    -0.0000    -0.0000    -0.0000 </r>
      <r>     2.2144     0.5036     0.5036     0.5036    -0.0000    -0.0000    -0.0000 </r>
      <r>     2.2209     0.5076     0.5076     0.5076    -0.0000    -0.0000    -0.0000 </r>
      <r>     2.2274     0.5116     0.5116     0.5116    -0.0000    -0.0000    -0.0000 </r>
      <r>     2.2339     0.5156     0.5156     0.5156    -0.0000    -0.0000    -0.0000 </r>
      <r>     2.2404     0.5197     0.5197     0.5197    -0.0000    -0.0000    -0.0000 </r>
      <r>     2.2469     0.5239     0.5239     0.5239    -0.0000    -0.0000    -0.0000 </r>
      <r>     2.2534     0.5281     0.5281     0.5281    -0.0000    -0.0000    -0.0000 </r>
      <r>     2.2599     0.5323     0.5323     0.5323    -0.0000    -0.0000    -0.0000 </r>
      <r>     2.2664     0.5366     0.5366     0.5366    -0.0000    -0.0000    -0.0000 </r>
      <r>     2.2729     0.5409     0.5409     0.5409    -0.0000    -0.0000    -0.0000 </r>
      <r>     2.2794     0.5453     0.5453     0.5453    -0.0000    -0.0000    -0.0000 </r>
      <r>     2.2859     0.5497     0.5497     0.5497    -0.0000    -0.0000    -0.0000 </r>
      <r>     2.2924     0.5542     0.5542     0.5542    -0.0000    -0.0000    -0.0000 </r>
      <r>     2.2989     0.5587     0.5587     0.5587    -0.0000    -0.0000    -0.0000 </r>
      <r>     2.3053     0.5633     0.5633     0.5633    -0.0000    -0.0000    -0.0000 </r>
      <r>     2.3118     0.5679     0.5679     0.5679    -0.0000    -0.0000    -0.0000 </r>
      <r>     2.3183     0.5726     0.5726     0.5726    -0.0000    -0.0000    -0.0000 </r>
      <r>     2.3248     0.5773     0.5773     0.5773    -0.0000    -0.0000    -0.0000 </r>
      <r>     2.3313     0.5821     0.5821     0.5821    -0.0000    -0.0000    -0.0000 </r>
      <r>     2.3378     0.5870     0.5870     0.5870    -0.0000    -0.0000    -0.0000 </r>
      <r>     2.3443     0.5919     0.5919     0.5919    -0.0000    -0.0000    -0.0000 </r>
      <r>     2.3508     0.5969     0.5969     0.5969    -0.0000    -0.0000    -0.0000 </r>
      <r>     2.3573     0.6019     0.6019     0.6019    -0.0000    -0.0000    -0.0000 </r>
      <r>     2.3638     0.6070     0.6070     0.6070    -0.0000    -0.0000    -0.0000 </r>
      <r>     2.3703     0.6122     0.6122     0.6122    -0.0000    -0.0000    -0.0000 </r>
      <r>     2.3768     0.6174     0.6174     0.6174    -0.0000    -0.0000    -0.0000 </r>
      <r>     2.3833     0.6227     0.6227     0.6227    -0.0000    -0.0000    -0.0000 </r>
      <r>     2.3898     0.6280     0.6280     0.6280    -0.0000    -0.0000    -0.0000 </r>
      <r>     2.3963     0.6334     0.6334     0.6334    -0.0000    -0.0000    -0.0000 </r>
      <r>     2.4028     0.6389     0.6389     0.6389    -0.0000    -0.0000    -0.0000 </r>
      <r>     2.4093     0.6445     0.6445     0.6445    -0.0000    -0.0000    -0.0000 </r>
      <r>     2.4157     0.6501     0.6501     0.6501    -0.0000    -0.0000    -0.0000 </r>
      <r>     2.4222     0.6558     0.6558     0.6558    -0.0000    -0.0000    -0.0000 </r>
      <r>     2.4287     0.6616     0.6616     0.6616    -0.0000    -0.0000    -0.0000 </r>
      <r>     2.4352     0.6674     0.6674     0.6674    -0.0000    -0.0000    -0.0000 </r>
      <r>     2.4417     0.6733     0.6733     0.6733    -0.0000    -0.0000    -0.0000 </r>
      <r>     2.4482     0.6793     0.6793     0.6793    -0.0000    -0.0000    -0.0000 </r>
      <r>     2.4547     0.6854     0.6854     0.6854    -0.0000    -0.0000    -0.0000 </r>
      <r>     2.4612     0.6916     0.6916     0.6916    -0.0000    -0.0000    -0.0000 </r>
      <r>     2.4677     0.6978     0.6978     0.6978    -0.0000    -0.0000    -0.0000 </r>
      <r>     2.4742     0.7042     0.7042     0.7042    -0.0000    -0.0000    -0.0000 </r>
      <r>     2.4807     0.7106     0.7106     0.7106    -0.0000    -0.0000    -0.0000 </r>
      <r>     2.4872     0.7171     0.7171     0.7171    -0.0000    -0.0000    -0.0000 </r>
      <r>     2.4937     0.7237     0.7237     0.7237    -0.0000    -0.0000    -0.0000 </r>
      <r>     2.5002     0.7303     0.7303     0.7303    -0.0000    -0.0000    -0.0000 </r>
      <r>     2.5067     0.7371     0.7371     0.7371    -0.0000    -0.0000    -0.0000 </r>
      <r>     2.5132     0.7440     0.7440     0.7440    -0.0000    -0.0000    -0.0000 </r>
      <r>     2.5196     0.7510     0.7510     0.7510    -0.0000    -0.0000    -0.0000 </r>
      <r>     2.5261     0.7580     0.7580     0.7580    -0.0000    -0.0000    -0.0000 </r>
      <r>     2.5326     0.7652     0.7652     0.7652    -0.0000    -0.0000    -0.0000 </r>
      <r>     2.5391     0.7725     0.7725     0.7725    -0.0000    -0.0000    -0.0000 </r>
      <r>     2.5456     0.7799     0.7799     0.7799    -0.0000    -0.0000    -0.0000 </r>
      <r>     2.5521     0.7873     0.7873     0.7873    -0.0000    -0.0000    -0.0000 </r>
      <r>     2.5586     0.7949     0.7949     0.7949    -0.0000    -0.0000    -0.0000 </r>
      <r>     2.5651     0.8026     0.8026     0.8026    -0.0000    -0.0000    -0.0000 </r>
      <r>     2.5716     0.8105     0.8105     0.8105    -0.0000    -0.0000    -0.0000 </r>
      <r>     2.5781     0.8184     0.8184     0.8184    -0.0000    -0.0000    -0.0000 </r>
      <r>     2.5846     0.8265     0.8265     0.8265    -0.0000    -0.0000    -0.0000 </r>
      <r>     2.5911     0.8346     0.8346     0.8346    -0.0000    -0.0000    -0.0000 </r>
      <r>     2.5976     0.8430     0.8430     0.8430    -0.0000    -0.0000    -0.0000 </r>
      <r>     2.6041     0.8514     0.8514     0.8514    -0.0000    -0.0000    -0.0000 </r>
      <r>     2.6106     0.8600     0.8600     0.8600    -0.0000    -0.0000    -0.0000 </r>
      <r>     2.6171     0.8687     0.8687     0.8687    -0.0000    -0.0000    -0.0000 </r>
      <r>     2.6236     0.8775     0.8775     0.8775    -0.0000    -0.0000    -0.0000 </r>
      <r>     2.6300     0.8865     0.8865     0.8865    -0.0000    -0.0000    -0.0000 </r>
      <r>     2.6365     0.8956     0.8956     0.8956    -0.0000    -0.0000    -0.0000 </r>
      <r>     2.6430     0.9049     0.9049     0.9049    -0.0000    -0.0000    -0.0000 </r>
      <r>     2.6495     0.9143     0.9143     0.9143    -0.0000    -0.0000    -0.0000 </r>
      <r>     2.6560     0.9239     0.9239     0.9239    -0.0000    -0.0000    -0.0000 </r>
      <r>     2.6625     0.9336     0.9336     0.9336    -0.0000    -0.0000    -0.0000 </r>
      <r>     2.6690     0.9435     0.9435     0.9435    -0.0000    -0.0000    -0.0000 </r>
      <r>     2.6755     0.9536     0.9536     0.9536    -0.0000    -0.0000    -0.0000 </r>
      <r>     2.6820     0.9638     0.9638     0.9638    -0.0000    -0.0000    -0.0000 </r>
      <r>     2.6885     0.9742     0.9742     0.9742    -0.0000    -0.0000    -0.0000 </r>
      <r>     2.6950     0.9848     0.9848     0.9848    -0.0000    -0.0000    -0.0000 </r>
      <r>     2.7015     0.9955     0.9955     0.9955    -0.0000    -0.0000    -0.0000 </r>
      <r>     2.7080     1.0065     1.0065     1.0065    -0.0000    -0.0000    -0.0000 </r>
      <r>     2.7145     1.0176     1.0176     1.0176    -0.0000    -0.0000    -0.0000 </r>
      <r>     2.7210     1.0290     1.0290     1.0290    -0.0000    -0.0000    -0.0000 </r>
      <r>     2.7275     1.0405     1.0405     1.0405    -0.0000    -0.0000    -0.0000 </r>
      <r>     2.7340     1.0523     1.0523     1.0523    -0.0000    -0.0000    -0.0000 </r>
      <r>     2.7404     1.0643     1.0643     1.0643    -0.0000    -0.0000    -0.0000 </r>
      <r>     2.7469     1.0765     1.0765     1.0765    -0.0000    -0.0000    -0.0000 </r>
      <r>     2.7534     1.0889     1.0889     1.0889    -0.0000    -0.0000    -0.0000 </r>
      <r>     2.7599     1.1015     1.1015     1.1015    -0.0000    -0.0000    -0.0000 </r>
      <r>     2.7664     1.1144     1.1144     1.1144    -0.0000    -0.0000    -0.0000 </r>
      <r>     2.7729     1.1275     1.1275     1.1275    -0.0000    -0.0000    -0.0000 </r>
      <r>     2.7794     1.1409     1.1409     1.1409    -0.0000    -0.0000    -0.0000 </r>
      <r>     2.7859     1.1545     1.1545     1.1545    -0.0000    -0.0000    -0.0000 </r>
      <r>     2.7924     1.1685     1.1685     1.1685    -0.0000    -0.0000    -0.0000 </r>
      <r>     2.7989     1.1826     1.1826     1.1826    -0.0000    -0.0000    -0.0000 </r>
      <r>     2.8054     1.1971     1.1971     1.1971    -0.0000    -0.0000    -0.0000 </r>
      <r>     2.8119     1.2118     1.2118     1.2118    -0.0000    -0.0000    -0.0000 </r>
      <r>     2.8184     1.2269     1.2269     1.2269    -0.0000    -0.0000    -0.0000 </r>
      <r>     2.8249     1.2422     1.2422     1.2422    -0.0000    -0.0000    -0.0000 </r>
      <r>     2.8314     1.2579     1.2579     1.2579    -0.0000    -0.0000    -0.0000 </r>
      <r>     2.8379     1.2739     1.2739     1.2739    -0.0000    -0.0000    -0.0000 </r>
      <r>     2.8443     1.2903     1.2903     1.2903    -0.0000    -0.0000    -0.0000 </r>
      <r>     2.8508     1.3069     1.3069     1.3069    -0.0000    -0.0000    -0.0000 </r>
      <r>     2.8573     1.3240     1.3240     1.3240    -0.0000    -0.0000    -0.0000 </r>
      <r>     2.8638     1.3414     1.3414     1.3414    -0.0000    -0.0000    -0.0000 </r>
      <r>     2.8703     1.3592     1.3592     1.3592    -0.0000    -0.0000    -0.0000 </r>
      <r>     2.8768     1.3774     1.3774     1.3774    -0.0000    -0.0000    -0.0000 </r>
      <r>     2.8833     1.3960     1.3960     1.3960    -0.0000    -0.0000    -0.0000 </r>
      <r>     2.8898     1.4150     1.4150     1.4150    -0.0000    -0.0000    -0.0000 </r>
      <r>     2.8963     1.4344     1.4344     1.4344    -0.0000    -0.0000    -0.0000 </r>
      <r>     2.9028     1.4543     1.4543     1.4543    -0.0000    -0.0000    -0.0000 </r>
      <r>     2.9093     1.4747     1.4747     1.4747    -0.0000    -0.0000    -0.0000 </r>
      <r>     2.9158     1.4955     1.4955     1.4955    -0.0000    -0.0000    -0.0000 </r>
      <r>     2.9223     1.5168     1.5168     1.5168    -0.0000    -0.0000    -0.0000 </r>
      <r>     2.9288     1.5387     1.5387     1.5387    -0.0000    -0.0000    -0.0000 </r>
      <r>     2.9353     1.5611     1.5611     1.5611    -0.0000    -0.0000    -0.0000 </r>
      <r>     2.9418     1.5840     1.5840     1.5840    -0.0000    -0.0000    -0.0000 </r>
      <r>     2.9483     1.6075     1.6075     1.6075    -0.0000    -0.0000    -0.0000 </r>
      <r>     2.9547     1.6316     1.6316     1.6316    -0.0000    -0.0000    -0.0000 </r>
      <r>     2.9612     1.6563     1.6563     1.6563    -0.0000    -0.0000    -0.0000 </r>
      <r>     2.9677     1.6817     1.6817     1.6817    -0.0000    -0.0000    -0.0000 </r>
      <r>     2.9742     1.7077     1.7077     1.7077    -0.0000    -0.0000    -0.0000 </r>
      <r>     2.9807     1.7344     1.7344     1.7344    -0.0000    -0.0000    -0.0000 </r>
      <r>     2.9872     1.7618     1.7618     1.7618    -0.0000    -0.0000    -0.0000 </r>
      <r>     2.9937     1.7900     1.7900     1.7900    -0.0000    -0.0000    -0.0000 </r>
      <r>     3.0002     1.8190     1.8190     1.8190    -0.0000    -0.0000    -0.0000 </r>
      <r>     3.0067     1.8487     1.8487     1.8487    -0.0000    -0.0000    -0.0000 </r>
      <r>     3.0132     1.8793     1.8793     1.8793    -0.0000    -0.0000    -0.0000 </r>
      <r>     3.0197     1.9108     1.9108     1.9108    -0.0000    -0.0000    -0.0000 </r>
      <r>     3.0262     1.9432     1.9432     1.9432    -0.0000    -0.0000    -0.0000 </r>
      <r>     3.0327     1.9765     1.9765     1.9765    -0.0000    -0.0000    -0.0000 </r>
      <r>     3.0392     2.0108     2.0108     2.0108    -0.0000    -0.0000    -0.0000 </r>
      <r>     3.0457     2.0462     2.0462     2.0462    -0.0000    -0.0000    -0.0000 </r>
      <r>     3.0522     2.0827     2.0827     2.0827    -0.0000    -0.0000    -0.0000 </r>
      <r>     3.0586     2.1203     2.1203     2.1203    -0.0000    -0.0000    -0.0000 </r>
      <r>     3.0651     2.1591     2.1591     2.1591    -0.0000    -0.0000    -0.0000 </r>
      <r>     3.0716     2.1991     2.1991     2.1991    -0.0000    -0.0000    -0.0000 </r>
      <r>     3.0781     2.2404     2.2404     2.2404    -0.0000    -0.0000    -0.0000 </r>
      <r>     3.0846     2.2831     2.2831     2.2831    -0.0000    -0.0000    -0.0000 </r>
      <r>     3.0911     2.3272     2.3272     2.3272    -0.0000    -0.0000    -0.0000 </r>
      <r>     3.0976     2.3729     2.3729     2.3729    -0.0000    -0.0000    -0.0000 </r>
      <r>     3.1041     2.4201     2.4201     2.4201    -0.0000    -0.0000    -0.0000 </r>
      <r>     3.1106     2.4690     2.4690     2.4690    -0.0000    -0.0000    -0.0000 </r>
      <r>     3.1171     2.5196     2.5196     2.5196    -0.0000    -0.0000    -0.0000 </r>
      <r>     3.1236     2.5720     2.5720     2.5720    -0.0000    -0.0000    -0.0000 </r>
      <r>     3.1301     2.6264     2.6264     2.6264    -0.0000    -0.0000    -0.0000 </r>
      <r>     3.1366     2.6829     2.6829     2.6829    -0.0000    -0.0000    -0.0000 </r>
      <r>     3.1431     2.7415     2.7415     2.7415    -0.0000    -0.0000    -0.0000 </r>
      <r>     3.1496     2.8024     2.8024     2.8024    -0.0000    -0.0000    -0.0000 </r>
      <r>     3.1561     2.8657     2.8657     2.8657    -0.0000    -0.0000    -0.0000 </r>
      <r>     3.1626     2.9316     2.9316     2.9316    -0.0000    -0.0000    -0.0000 </r>
      <r>     3.1690     3.0001     3.0001     3.0001    -0.0000    -0.0000    -0.0000 </r>
      <r>     3.1755     3.0716     3.0716     3.0716    -0.0000    -0.0000    -0.0000 </r>
      <r>     3.1820     3.1461     3.1461     3.1461    -0.0000    -0.0000    -0.0000 </r>
      <r>     3.1885     3.2238     3.2238     3.2238    -0.0000    -0.0000    -0.0000 </r>
      <r>     3.1950     3.3049     3.3049     3.3049    -0.0000    -0.0000    -0.0000 </r>
      <r>     3.2015     3.3897     3.3898     3.3898    -0.0000    -0.0000    -0.0000 </r>
      <r>     3.2080     3.4785     3.4785     3.4785    -0.0000    -0.0000    -0.0000 </r>
      <r>     3.2145     3.5713     3.5714     3.5714    -0.0000    -0.0000    -0.0000 </r>
      <r>     3.2210     3.6687     3.6687     3.6687    -0.0000    -0.0000    -0.0000 </r>
      <r>     3.2275     3.7707     3.7707     3.7707    -0.0000    -0.0000    -0.0000 </r>
      <r>     3.2340     3.8779     3.8779     3.8779    -0.0000    -0.0000    -0.0000 </r>
      <r>     3.2405     3.9905     3.9905     3.9905    -0.0000    -0.0000    -0.0000 </r>
      <r>     3.2470     4.1089     4.1089     4.1089    -0.0000    -0.0000    -0.0000 </r>
      <r>     3.2535     4.2335     4.2335     4.2335    -0.0000    -0.0000    -0.0000 </r>
      <r>     3.2600     4.3649     4.3649     4.3649    -0.0000    -0.0000    -0.0000 </r>
      <r>     3.2665     4.5034     4.5034     4.5034    -0.0000    -0.0000    -0.0000 </r>
      <r>     3.2729     4.6497     4.6497     4.6497    -0.0000    -0.0000    -0.0000 </r>
      <r>     3.2794     4.8043     4.8043     4.8043    -0.0000    -0.0000    -0.0000 </r>
      <r>     3.2859     4.9678     4.9678     4.9678    -0.0000    -0.0000    -0.0000 </r>
      <r>     3.2924     5.1409     5.1409     5.1409    -0.0000    -0.0000    -0.0000 </r>
      <r>     3.2989     5.3243     5.3243     5.3243    -0.0000    -0.0000    -0.0000 </r>
      <r>     3.3054     5.5188     5.5188     5.5188    -0.0000    -0.0000    -0.0000 </r>
      <r>     3.3119     5.7251     5.7251     5.7251    -0.0000    -0.0000    -0.0000 </r>
      <r>     3.3184     5.9442     5.9442     5.9442    -0.0000    -0.0000    -0.0000 </r>
      <r>     3.3249     6.1768     6.1768     6.1768    -0.0000    -0.0000    -0.0000 </r>
      <r>     3.3314     6.4240     6.4240     6.4240    -0.0000    -0.0000    -0.0000 </r>
      <r>     3.3379     6.6865     6.6865     6.6865    -0.0000    -0.0000    -0.0000 </r>
      <r>     3.3444     6.9654     6.9654     6.9654    -0.0000    -0.0000    -0.0000 </r>
      <r>     3.3509     7.2615     7.2615     7.2615    -0.0000    -0.0000    -0.0000 </r>
      <r>     3.3574     7.5756     7.5756     7.5756    -0.0000    -0.0000    -0.0000 </r>
      <r>     3.3639     7.9086     7.9086     7.9086    -0.0000    -0.0000    -0.0000 </r>
      <r>     3.3704     8.2612     8.2612     8.2612    -0.0000    -0.0000    -0.0000 </r>
      <r>     3.3769     8.6340     8.6340     8.6340    -0.0000    -0.0000    -0.0000 </r>
      <r>     3.3833     9.0275     9.0275     9.0275    -0.0000    -0.0000    -0.0000 </r>
      <r>     3.3898     9.4419     9.4419     9.4419    -0.0000    -0.0000    -0.0000 </r>
      <r>     3.3963     9.8775     9.8775     9.8775    -0.0000    -0.0000    -0.0000 </r>
      <r>     3.4028    10.3342    10.3342    10.3342    -0.0000    -0.0000    -0.0000 </r>
      <r>     3.4093    10.8117    10.8117    10.8117    -0.0000    -0.0000    -0.0000 </r>
      <r>     3.4158    11.3096    11.3096    11.3096    -0.0000    -0.0000    -0.0000 </r>
      <r>     3.4223    11.8271    11.8271    11.8271    -0.0000    -0.0000    -0.0000 </r>
      <r>     3.4288    12.3632    12.3633    12.3633    -0.0000    -0.0000    -0.0000 </r>
      <r>     3.4353    12.9168    12.9168    12.9168    -0.0000    -0.0000    -0.0000 </r>
      <r>     3.4418    13.4861    13.4861    13.4861    -0.0000    -0.0000    -0.0000 </r>
      <r>     3.4483    14.0696    14.0696    14.0696    -0.0000    -0.0000    -0.0000 </r>
      <r>     3.4548    14.6649    14.6649    14.6649    -0.0000    -0.0000    -0.0000 </r>
      <r>     3.4613    15.2699    15.2699    15.2699    -0.0000    -0.0000    -0.0000 </r>
      <r>     3.4678    15.8817    15.8817    15.8817    -0.0000    -0.0000    -0.0000 </r>
      <r>     3.4743    16.4975    16.4975    16.4975    -0.0000    -0.0000    -0.0000 </r>
      <r>     3.4808    17.1140    17.1140    17.1140    -0.0000    -0.0000    -0.0000 </r>
      <r>     3.4872    17.7278    17.7278    17.7278    -0.0000    -0.0000    -0.0000 </r>
      <r>     3.4937    18.3353    18.3353    18.3353    -0.0000    -0.0000    -0.0000 </r>
      <r>     3.5002    18.9327    18.9327    18.9327    -0.0000    -0.0000    -0.0000 </r>
      <r>     3.5067    19.5161    19.5161    19.5161    -0.0000    -0.0000    -0.0000 </r>
      <r>     3.5132    20.0818    20.0818    20.0818    -0.0000    -0.0000    -0.0000 </r>
      <r>     3.5197    20.6260    20.6260    20.6260    -0.0000    -0.0000    -0.0000 </r>
      <r>     3.5262    21.1451    21.1451    21.1451    -0.0000    -0.0000    -0.0000 </r>
      <r>     3.5327    21.6361    21.6361    21.6361    -0.0000    -0.0000    -0.0000 </r>
      <r>     3.5392    22.0961    22.0961    22.0961    -0.0000    -0.0000    -0.0000 </r>
      <r>     3.5457    22.5231    22.5231    22.5231    -0.0000    -0.0000    -0.0000 </r>
      <r>     3.5522    22.9154    22.9154    22.9154    -0.0000    -0.0000    -0.0000 </r>
      <r>     3.5587    23.2720    23.2720    23.2720    -0.0000    -0.0000    -0.0000 </r>
      <r>     3.5652    23.5928    23.5928    23.5928    -0.0000    -0.0000    -0.0000 </r>
      <r>     3.5717    23.8782    23.8782    23.8782    -0.0000    -0.0000    -0.0000 </r>
      <r>     3.5782    24.1290    24.1290    24.1290    -0.0000    -0.0000    -0.0000 </r>
      <r>     3.5847    24.3468    24.3468    24.3468    -0.0000    -0.0000    -0.0000 </r>
      <r>     3.5912    24.5335    24.5335    24.5335    -0.0000    -0.0000    -0.0000 </r>
      <r>     3.5976    24.6913    24.6913    24.6913    -0.0000    -0.0000    -0.0000 </r>
      <r>     3.6041    24.8226    24.8227    24.8227    -0.0000    -0.0000    -0.0000 </r>
      <r>     3.6106    24.9301    24.9302    24.9302    -0.0000    -0.0000    -0.0000 </r>
      <r>     3.6171    25.0164    25.0164    25.0164    -0.0000    -0.0000    -0.0000 </r>
      <r>     3.6236    25.0841    25.0841    25.0841    -0.0000    -0.0000    -0.0000 </r>
[...]
        <r>  0.0000  0.0078  0.0820  0.1251  0.0000  0.0000  0.0000  0.0000  0.0000 </r>
        <r>  0.0000  0.0078  0.0820  0.1251  0.0000  0.0000  0.0000  0.0000  0.0000 </r>
       </set>
       <set comment="band 5">
        <r>  0.0000  0.0690  0.0491  0.0314  0.0000  0.0000  0.0000  0.0000  0.0000 </r>
        <r>  0.0000  0.0690  0.0491  0.0314  0.0000  0.0000  0.0000  0.0000  0.0000 </r>
       </set>
       <set comment="band 6">
        <r>  0.0000  0.0280  0.0875  0.0340  0.0000  0.0000  0.0000  0.0000  0.0000 </r>
        <r>  0.0000  0.0280  0.0875  0.0340  0.0000  0.0000  0.0000  0.0000  0.0000 </r>
       </set>
       <set comment="band 7">
        <r>  0.0000  0.0526  0.0129  0.0841  0.0000  0.0000  0.0000  0.0000  0.0000 </r>
        <r>  0.0000  0.0526  0.0129  0.0841  0.0000  0.0000  0.0000  0.0000  0.0000 </r>
       </set>
       <set comment="band 8">
        <r>  0.3650  0.0000  0.0000  0.0000  0.0000  0.0000  0.0000  0.0000  0.0000 </r>
        <r>  0.3650  0.0000  0.0000  0.0000  0.0000  0.0000  0.0000  0.0000  0.0000 </r>
       </set>
       <set comment="band 9">
        <r>  0.1017  0.0000  0.0000  0.0000  0.0000  0.0000  0.0000  0.0000  0.0000 </r>
        <r>  0.1017  0.0000  0.0000  0.0000  0.0000  0.0000  0.0000  0.0000  0.0000 </r>
       </set>
       <set comment="band 10">
        <r>  0.0000  0.0000  0.0000  0.0000  0.0000  0.0000  0.0000  0.0000  0.0000 </r>
        <r>  0.0000  0.0000  0.0000  0.0000  0.0000  0.0000  0.0000  0.0000  0.0000 </r>
       </set>
       <set comment="band 11">
        <r>  0.0000  0.0000  0.0000  0.0000  0.0000  0.0000  0.0000  0.0000  0.0000 </r>
        <r>  0.0000  0.0000  0.0000  0.0000  0.0000  0.0000  0.0000  0.0000  0.0000 </r>
       </set>
      </set>
      <set comment="kpoint 2">
       <set comment="band 1">
        <r>  0.2148  0.0009  0.0000  0.0071  0.0000  0.0000  0.0000  0.0000  0.0000 </r>
        <r>  0.2148  0.0009  0.0000  0.0071  0.0000  0.0000  0.0000  0.0000  0.0000 </r>
       </set>
       <set comment="band 2">
        <r>  0.0956  0.0134  0.0000  0.1074  0.0000  0.0000  0.0000  0.0000  0.0000 </r>
        <r>  0.0956  0.0134  0.0000  0.1074  0.0000  0.0000  0.0000  0.0000  0.0000 </r>
       </set>
       <set comment="band 3">
        <r>  0.0000  0.1509  0.0433  0.0189  0.0000  0.0000  0.0000  0.0000  0.0000 </r>
        <r>  0.0000  0.1509  0.0433  0.0189  0.0000  0.0000  0.0000  0.0000  0.0000 </r>
       </set>
       <set comment="band 4">
        <r>  0.0000  0.0385  0.1697  0.0048  0.0000  0.0000  0.0000  0.0000  0.0000 </r>
        <r>  0.0000  0.0385  0.1697  0.0048  0.0000  0.0000  0.0000  0.0000  0.0000 </r>
       </set>
       <set comment="band 5">
        <r>  0.1557  0.0053  0.0000  0.0422  0.0000  0.0000  0.0000  0.0000  0.0000 </r>
        <r>  0.1557  0.0053  0.0000  0.0422  0.0000  0.0000  0.0000  0.0000  0.0000 </r>
       </set>
       <set comment="band 6">
        <r>  0.0000  0.0105  0.1242  0.0013  0.0000  0.0000  0.0000  0.0000  0.0000 </r>
        <r>  0.0000  0.0105  0.1242  0.0013  0.0000  0.0000  0.0000  0.0000  0.0000 </r>
       </set>
       <set comment="band 7">
        <r>  0.0000  0.1104  0.0119  0.0138  0.0000  0.0000  0.0000  0.0000  0.0000 </r>
        <r>  0.0000  0.1104  0.0119  0.0138  0.0000  0.0000  0.0000  0.0000  0.0000 </r>
       </set>
       <set comment="band 8">
        <r>  0.1168  0.0161  0.0000  0.1292  0.0000  0.0000  0.0000  0.0000  0.0000 </r>
        <r>  0.1168  0.0161  0.0000  0.1292  0.0000  0.0000  0.0000  0.0000  0.0000 </r>
       </set>
       <set comment="band 9">
        <r>  0.0000  0.0130  0.0022  0.0016  0.0000  0.0000  0.0000  0.0000  0.0000 </r>
        <r>  0.0000  0.0130  0.0022  0.0016  0.0000  0.0000  0.0000  0.0000  0.0000 </r>
       </set>
       <set comment="band 10">
        <r>  0.0000  0.0020  0.0147  0.0002  0.0000  0.0000  0.0000  0.0000  0.0000 </r>
        <r>  0.0000  0.0020  0.0147  0.0002  0.0000  0.0000  0.0000  0.0000  0.0000 </r>
       </set>
       <set comment="band 11">
        <r>  0.0514  0.0022  0.0000  0.0178  0.0000  0.0000  0.0000  0.0000  0.0000 </r>
        <r>  0.0514  0.0022  0.0000  0.0178  0.0000  0.0000  0.0000  0.0000  0.0000 </r>
       </set>
      </set>
      <set comment="kpoint 3">
       <set comment="band 1">
        <r>  0.2285  0.0015  0.0000  0.0124  0.0000  0.0000  0.0000  0.0000  0.0000 </r>
        <r>  0.2285  0.0015  0.0000  0.0124  0.0000  0.0000  0.0000  0.0000  0.0000 </r>
       </set>
       <set comment="band 2">
        <r>  0.1012  0.0104  0.0000  0.0835  0.0000  0.0000  0.0000  0.0000  0.0000 </r>
        <r>  0.1012  0.0104  0.0000  0.0835  0.0000  0.0000  0.0000  0.0000  0.0000 </r>
       </set>
       <set comment="band 3">
        <r>  0.0000  0.1475  0.0507  0.0184  0.0000  0.0000  0.0000  0.0000  0.0000 </r>
        <r>  0.0000  0.1475  0.0507  0.0184  0.0000  0.0000  0.0000  0.0000  0.0000 </r>
       </set>
       <set comment="band 4">
        <r>  0.0000  0.0451  0.1659  0.0056  0.0000  0.0000  0.0000  0.0000  0.0000 </r>
        <r>  0.0000  0.0451  0.1659  0.0056  0.0000  0.0000  0.0000  0.0000  0.0000 </r>
       </set>
       <set comment="band 5">
        <r>  0.1874  0.0021  0.0000  0.0169  0.0000  0.0000  0.0000  0.0000  0.0000 </r>
        <r>  0.1874  0.0021  0.0000  0.0169  0.0000  0.0000  0.0000  0.0000  0.0000 </r>
       </set>
       <set comment="band 6">
        <r>  0.0000  0.0070  0.0842  0.0009  0.0000  0.0000  0.0000  0.0000  0.0000 </r>
        <r>  0.0000  0.0070  0.0842  0.0009  0.0000  0.0000  0.0000  0.0000  0.0000 </r>
       </set>
       <set comment="band 7">
        <r>  0.0000  0.0749  0.0079  0.0094  0.0000  0.0000  0.0000  0.0000  0.0000 </r>
        <r>  0.0000  0.0749  0.0079  0.0094  0.0000  0.0000  0.0000  0.0000  0.0000 </r>
       </set>
       <set comment="band 8">
        <r>  0.0067  0.0052  0.0000  0.0419  0.0000  0.0000  0.0000  0.0000  0.0000 </r>
        <r>  0.0067  0.0052  0.0000  0.0419  0.0000  0.0000  0.0000  0.0000  0.0000 </r>
       </set>
       <set comment="band 9">
        <r>  0.0001  0.0004  0.0002  0.0002  0.0000  0.0000  0.0000  0.0000  0.0000 </r>
        <r>  0.0001  0.0003  0.0009  0.0003  0.0000  0.0000  0.0000  0.0000  0.0000 </r>
       </set>
       <set comment="band 10">
        <r>  0.0013  0.0028  0.0008  0.0039  0.0000  0.0000  0.0000  0.0000  0.0000 </r>
        <r>  0.0013  0.0045  0.0004  0.0045  0.0000  0.0000  0.0000  0.0000  0.0000 </r>
       </set>
       <set comment="band 11">
        <r>  0.0124  0.0151  0.0503  0.0633  0.0000  0.0000  0.0000  0.0000  0.0000 </r>
        <r>  0.0126  0.0152  0.0504  0.0626  0.0000  0.0000  0.0000  0.0000  0.0000 </r>
       </set>
      </set>
      <set comment="kpoint 4">
       <set comment="band 1">
        <r>  0.2122  0.0039  0.0000  0.0078  0.0000  0.0000  0.0000  0.0000  0.0000 </r>
        <r>  0.2122  0.0039  0.0000  0.0078  0.0000  0.0000  0.0000  0.0000  0.0000 </r>
       </set>
       <set comment="band 2">
        <r>  0.1534  0.0341  0.0000  0.0681  0.0000  0.0000  0.0000  0.0000  0.0000 </r>
        <r>  0.1534  0.0341  0.0000  0.0681  0.0000  0.0000  0.0000  0.0000  0.0000 </r>
       </set>
       <set comment="band 3">
        <r>  0.0000  0.1311  0.0014  0.0656  0.0000  0.0000  0.0000  0.0000  0.0000 </r>
        <r>  0.0000  0.1311  0.0014  0.0656  0.0000  0.0000  0.0000  0.0000  0.0000 </r>
       </set>
       <set comment="band 4">
        <r>  0.0000  0.0009  0.1967  0.0005  0.0000  0.0000  0.0000  0.0000  0.0000 </r>
        <r>  0.0000  0.0009  0.1967  0.0005  0.0000  0.0000  0.0000  0.0000  0.0000 </r>
       </set>
       <set comment="band 5">
        <r>  0.0435  0.0250  0.0000  0.0500  0.0000  0.0000  0.0000  0.0000  0.0000 </r>
        <r>  0.0435  0.0250  0.0000  0.0500  0.0000  0.0000  0.0000  0.0000  0.0000 </r>
       </set>
       <set comment="band 6">
        <r>  0.0509  0.0122  0.0000  0.0245  0.0000  0.0000  0.0000  0.0000  0.0000 </r>
        <r>  0.0509  0.0122  0.0000  0.0245  0.0000  0.0000  0.0000  0.0000  0.0000 </r>
       </set>
       <set comment="band 7">
        <r>  0.0000  0.0397  0.1051  0.0199  0.0000  0.0000  0.0000  0.0000  0.0000 </r>
        <r>  0.0000  0.0397  0.1051  0.0199  0.0000  0.0000  0.0000  0.0000  0.0000 </r>
       </set>
       <set comment="band 8">
        <r>  0.0000  0.0700  0.0596  0.0350  0.0000  0.0000  0.0000  0.0000  0.0000 </r>
        <r>  0.0000  0.0700  0.0596  0.0350  0.0000  0.0000  0.0000  0.0000  0.0000 </r>
       </set>
       <set comment="band 9">
        <r>  0.1606  0.0318  0.0000  0.0636  0.0000  0.0000  0.0000  0.0000  0.0000 </r>
        <r>  0.1606  0.0318  0.0000  0.0636  0.0000  0.0000  0.0000  0.0000  0.0000 </r>
       </set>
       <set comment="band 10">
        <r>  0.0000  0.0000  0.0000  0.0000  0.0000  0.0000  0.0000  0.0000  0.0000 </r>
        <r>  0.0000  0.0000  0.0000  0.0000  0.0000  0.0000  0.0000  0.0000  0.0000 </r>
       </set>
       <set comment="band 11">
        <r>  0.0342  0.0345  0.0000  0.0687  0.0000  0.0000  0.0000  0.0000  0.0000 </r>
        <r>  0.0343  0.0343  0.0000  0.0688  0.0000  0.0000  0.0000  0.0000  0.0000 </r>
       </set>
      </set>
      <set comment="kpoint 5">
       <set comment="band 1">
        <r>  0.2136  0.0047  0.0000  0.0201  0.0000  0.0000  0.0000  0.0000  0.0000 </r>
        <r>  0.2136  0.0047  0.0000  0.0201  0.0000  0.0000  0.0000  0.0000  0.0000 </r>
       </set>
       <set comment="band 2">
        <r>  0.1581  0.0100  0.0000  0.0651  0.0000  0.0000  0.0000  0.0000  0.0000 </r>
        <r>  0.1581  0.0100  0.0000  0.0651  0.0000  0.0000  0.0000  0.0000  0.0000 </r>
       </set>
       <set comment="band 3">
        <r>  0.0231  0.1215  0.0000  0.0346  0.0000  0.0000  0.0000  0.0000  0.0000 </r>
        <r>  0.0231  0.1215  0.0000  0.0346  0.0000  0.0000  0.0000  0.0000  0.0000 </r>
       </set>
       <set comment="band 4">
        <r>  0.0000  0.0000  0.2008  0.0000  0.0000  0.0000  0.0000  0.0000  0.0000 </r>
        <r>  0.0000  0.0000  0.2008  0.0000  0.0000  0.0000  0.0000  0.0000  0.0000 </r>
       </set>
       <set comment="band 5">
        <r>  0.0513  0.0307  0.0000  0.0185  0.0000  0.0000  0.0000  0.0000  0.0000 </r>
        <r>  0.0513  0.0307  0.0000  0.0185  0.0000  0.0000  0.0000  0.0000  0.0000 </r>
       </set>
       <set comment="band 6">
        <r>  0.0190  0.0461  0.0000  0.0298  0.0000  0.0000  0.0000  0.0000  0.0000 </r>
        <r>  0.0190  0.0461  0.0000  0.0298  0.0000  0.0000  0.0000  0.0000  0.0000 </r>
       </set>
       <set comment="band 7">
        <r>  0.0701  0.1189  0.0000  0.0076  0.0000  0.0000  0.0000  0.0000  0.0000 </r>
        <r>  0.0701  0.1189  0.0000  0.0076  0.0000  0.0000  0.0000  0.0000  0.0000 </r>
       </set>
       <set comment="band 8">
        <r>  0.0000  0.0000  0.1116  0.0000  0.0000  0.0000  0.0000  0.0000  0.0000 </r>
        <r>  0.0000  0.0000  0.1116  0.0000  0.0000  0.0000  0.0000  0.0000  0.0000 </r>
       </set>
       <set comment="band 9">
        <r>  0.0081  0.0153  0.0000  0.1225  0.0000  0.0000  0.0000  0.0000  0.0000 </r>
        <r>  0.0081  0.0153  0.0000  0.1222  0.0000  0.0000  0.0000  0.0000  0.0000 </r>
       </set>
       <set comment="band 10">
        <r>  0.0000  0.0000  0.0477  0.0000  0.0000  0.0000  0.0000  0.0000  0.0000 </r>
        <r>  0.0000  0.0000  0.0476  0.0000  0.0000  0.0000  0.0000  0.0000  0.0000 </r>
       </set>
       <set comment="band 11">
        <r>  0.0010  0.0003  0.0595  0.0032  0.0000  0.0000  0.0000  0.0000  0.0000 </r>
        <r>  0.0009  0.0002  0.0595  0.0033  0.0000  0.0000  0.0000  0.0000  0.0000 </r>
       </set>
      </set>
      <set comment="kpoint 6">
       <set comment="band 1">
        <r>  0.2132  0.0120  0.0000  0.0072  0.0000  0.0000  0.0000  0.0000  0.0000 </r>
        <r>  0.2132  0.0120  0.0000  0.0072  0.0000  0.0000  0.0000  0.0000  0.0000 </r>
       </set>
       <set comment="band 2">
        <r>  0.1550  0.0434  0.0000  0.0413  0.0000  0.0000  0.0000  0.0000  0.0000 </r>
        <r>  0.1550  0.0434  0.0000  0.0413  0.0000  0.0000  0.0000  0.0000  0.0000 </r>
       </set>
       <set comment="band 3">
        <r>  0.0124  0.0761  0.0000  0.0802  0.0000  0.0000  0.0000  0.0000  0.0000 </r>
        <r>  0.0124  0.0761  0.0000  0.0802  0.0000  0.0000  0.0000  0.0000  0.0000 </r>
       </set>
       <set comment="band 4">
        <r>  0.0000  0.0000  0.2111  0.0000  0.0000  0.0000  0.0000  0.0000  0.0000 </r>
        <r>  0.0000  0.0000  0.2111  0.0000  0.0000  0.0000  0.0000  0.0000  0.0000 </r>
       </set>
       <set comment="band 5">
        <r>  0.0655  0.0217  0.0000  0.0402  0.0000  0.0000  0.0000  0.0000  0.0000 </r>
        <r>  0.0655  0.0217  0.0000  0.0402  0.0000  0.0000  0.0000  0.0000  0.0000 </r>
       </set>
       <set comment="band 6">
        <r>  0.0000  0.0000  0.1474  0.0000  0.0000  0.0000  0.0000  0.0000  0.0000 </r>
        <r>  0.0000  0.0000  0.1474  0.0000  0.0000  0.0000  0.0000  0.0000  0.0000 </r>
       </set>
       <set comment="band 7">
        <r>  0.0319  0.0337  0.0000  0.0663  0.0000  0.0000  0.0000  0.0000  0.0000 </r>
        <r>  0.0319  0.0337  0.0000  0.0663  0.0000  0.0000  0.0000  0.0000  0.0000 </r>
       </set>
       <set comment="band 8">
        <r>  0.0786  0.0690  0.0000  0.0469  0.0000  0.0000  0.0000  0.0000  0.0000 </r>
        <r>  0.0786  0.0690  0.0000  0.0469  0.0000  0.0000  0.0000  0.0000  0.0000 </r>
       </set>
       <set comment="band 9">
        <r>  0.0000  0.0000  0.0070  0.0000  0.0000  0.0000  0.0000  0.0000  0.0000 </r>
        <r>  0.0000  0.0000  0.0070  0.0000  0.0000  0.0000  0.0000  0.0000  0.0000 </r>
       </set>
       <set comment="band 10">
        <r>  0.0046  0.0842  0.0000  0.0614  0.0000  0.0000  0.0000  0.0000  0.0000 </r>
        <r>  0.0046  0.0842  0.0000  0.0614  0.0000  0.0000  0.0000  0.0000  0.0000 </r>
       </set>
       <set comment="band 11">
        <r>  0.0579  0.0548  0.0000  0.0399  0.0000  0.0000  0.0000  0.0000  0.0000 </r>
        <r>  0.0591  0.0554  0.0000  0.0393  0.0000  0.0000  0.0000  0.0000  0.0000 </r>
       </set>
      </set>
      <set comment="kpoint 7">
       <set comment="band 1">
        <r>  0.0222  0.0285  0.0000  0.0571  0.0000  0.0000  0.0000  0.0000  0.0000 </r>
        <r>  0.3703  0.0017  0.0000  0.0034  0.0000  0.0000  0.0000  0.0000  0.0000 </r>
       </set>
       <set comment="band 2">
        <r>  0.3703  0.0017  0.0000  0.0034  0.0000  0.0000  0.0000  0.0000  0.0000 </r>
        <r>  0.0222  0.0285  0.0000  0.0571  0.0000  0.0000  0.0000  0.0000  0.0000 </r>
       </set>
       <set comment="band 3">
        <r>  0.0000  0.1305  0.0004  0.0653  0.0000  0.0000  0.0000  0.0000  0.0000 </r>
        <r>  0.0000  0.1305  0.0004  0.0653  0.0000  0.0000  0.0000  0.0000  0.0000 </r>
       </set>
       <set comment="band 4">
        <r>  0.0000  0.0003  0.1958  0.0001  0.0000  0.0000  0.0000  0.0000  0.0000 </r>
        <r>  0.0000  0.0003  0.1958  0.0001  0.0000  0.0000  0.0000  0.0000  0.0000 </r>
       </set>
       <set comment="band 5">
        <r>  0.0393  0.0141  0.0000  0.0282  0.0000  0.0000  0.0000  0.0000  0.0000 </r>
        <r>  0.0647  0.0086  0.0000  0.0172  0.0000  0.0000  0.0000  0.0000  0.0000 </r>
       </set>
       <set comment="band 6">
        <r>  0.0646  0.0086  0.0000  0.0172  0.0000  0.0000  0.0000  0.0000  0.0000 </r>
        <r>  0.0393  0.0141  0.0000  0.0282  0.0000  0.0000  0.0000  0.0000  0.0000 </r>
       </set>
       <set comment="band 7">
        <r>  0.0000  0.1279  0.0470  0.0642  0.0000  0.0000  0.0000  0.0000  0.0000 </r>
        <r>  0.0000  0.1280  0.0470  0.0641  0.0000  0.0000  0.0000  0.0000  0.0000 </r>
       </set>
       <set comment="band 8">
        <r>  0.0000  0.0315  0.1921  0.0155  0.0000  0.0000  0.0000  0.0000  0.0000 </r>
        <r>  0.0000  0.0312  0.1921  0.0158  0.0000  0.0000  0.0000  0.0000  0.0000 </r>
       </set>
       <set comment="band 9">
        <r>  0.0000  0.0030  0.0076  0.0015  0.0000  0.0000  0.0000  0.0000  0.0000 </r>
        <r>  0.0000  0.0032  0.0076  0.0013  0.0000  0.0000  0.0000  0.0000  0.0000 </r>
       </set>
       <set comment="band 10">
        <r>  0.0000  0.0055  0.0045  0.0022  0.0000  0.0000  0.0000  0.0000  0.0000 </r>
        <r>  0.0000  0.0049  0.0045  0.0026  0.0000  0.0000  0.0000  0.0000  0.0000 </r>
       </set>
       <set comment="band 11">
        <r>  0.0675  0.0261  0.0000  0.0520  0.0000  0.0000  0.0000  0.0000  0.0000 </r>
        <r>  0.0222  0.0790  0.0000  0.1586  0.0000  0.0000  0.0000  0.0000  0.0000 </r>
       </set>
      </set>
      <set comment="kpoint 8">
       <set comment="band 1">
        <r>  0.0126  0.0276  0.0207  0.0345  0.0000  0.0000  0.0000  0.0000  0.0000 </r>
        <r>  0.4012  0.0009  0.0006  0.0011  0.0000  0.0000  0.0000  0.0000  0.0000 </r>
       </set>
       <set comment="band 2">
        <r>  0.4012  0.0009  0.0006  0.0011  0.0000  0.0000  0.0000  0.0000  0.0000 </r>
        <r>  0.0126  0.0276  0.0207  0.0345  0.0000  0.0000  0.0000  0.0000  0.0000 </r>
       </set>
       <set comment="band 3">
        <r>  0.0000  0.0999  0.0342  0.0208  0.0000  0.0000  0.0000  0.0000  0.0000 </r>
        <r>  0.0000  0.1055  0.0232  0.0430  0.0000  0.0000  0.0000  0.0000  0.0000 </r>
       </set>
       <set comment="band 4">
        <r>  0.0000  0.0089  0.0834  0.0794  0.0000  0.0000  0.0000  0.0000  0.0000 </r>
        <r>  0.0000  0.0033  0.0943  0.0573  0.0000  0.0000  0.0000  0.0000  0.0000 </r>
       </set>
       <set comment="band 5">
        <r>  0.0000  0.0299  0.0413  0.0129  0.0000  0.0000  0.0000  0.0000  0.0000 </r>
        <r>  0.0000  0.0281  0.0386  0.0120  0.0000  0.0000  0.0000  0.0000  0.0000 </r>
       </set>
       <set comment="band 6">
        <r>  0.0000  0.0244  0.0400  0.0143  0.0000  0.0000  0.0000  0.0000  0.0000 </r>
        <r>  0.0000  0.0262  0.0427  0.0152  0.0000  0.0000  0.0000  0.0000  0.0000 </r>
       </set>
       <set comment="band 7">
        <r>  0.1082  0.0103  0.0078  0.0129  0.0000  0.0000  0.0000  0.0000  0.0000 </r>
        <r>  0.0196  0.0571  0.0428  0.0713  0.0000  0.0000  0.0000  0.0000  0.0000 </r>
       </set>
       <set comment="band 8">
        <r>  0.0196  0.0571  0.0428  0.0713  0.0000  0.0000  0.0000  0.0000  0.0000 </r>
        <r>  0.1082  0.0103  0.0078  0.0129  0.0000  0.0000  0.0000  0.0000  0.0000 </r>
       </set>
       <set comment="band 9">
        <r>  0.0000  0.0152  0.0725  0.0708  0.0000  0.0000  0.0000  0.0000  0.0000 </r>
        <r>  0.0000  0.0001  0.0689  0.0443  0.0000  0.0000  0.0000  0.0000  0.0000 </r>
       </set>
       <set comment="band 10">
        <r>  0.0000  0.0749  0.0152  0.0231  0.0000  0.0000  0.0000  0.0000  0.0000 </r>
        <r>  0.0000  0.0896  0.0194  0.0495  0.0000  0.0000  0.0000  0.0000  0.0000 </r>
       </set>
       <set comment="band 11">
        <r>  0.0061  0.0635  0.0476  0.0794  0.0000  0.0000  0.0000  0.0000  0.0000 </r>
        <r>  0.0474  0.0082  0.0062  0.0103  0.0000  0.0000  0.0000  0.0000  0.0000 </r>
       </set>
      </set>
     </set>
    </set>
   </array>
  </projected>
 </calculation>
 <structure name="finalpos" >
  <crystal>
   <varray name="basis" >
    <v>       3.34889800       0.00000000       1.93348700 </v>
    <v>       1.11629900       3.15737200       1.93348700 </v>
    <v>       0.00000000       0.00000000       3.86697500 </v>
   </varray>
   <i name="volume">     40.88829843 </i>
   <varray name="rec_basis" >
    <v>       0.29860569      -0.10557300       0.00000000 </v>
    <v>       0.00000000       0.31671909       0.00000000 </v>
    <v>      -0.14930281      -0.10557302       0.25860007 </v>
   </varray>
  </crystal>
  <varray name="positions" >
   <v>       0.25000000       0.25000000       0.25000000 </v>
   <v>       0.00000000       0.00000000       0.00000000 </v>
  </varray>
 </structure>
</modeling>
