 vasp.6.2.1 16May21 (build Oct 27 2021 18:14:32) complex                        
  
 executed on             LinuxIFC date 2021.10.29  17:21:38
 running on    4 total cores
 distrk:  each k-point on    4 cores,    1 groups
 distr:  one band on NCORE=   4 cores,    1 groups


--------------------------------------------------------------------------------------------------------


 INCAR:
   ALGO = All
   EDIFF = 1e-05
   EDIFFG = -0.02
   ENAUG = 1360.0
   ENCUT = 680.0
   GGA = Pe
   HFSCREEN = 0.2
   IBRION = 2
   ISIF = 3
   ISMEAR = -5
   ISPIN = 1
   LAECHG = True
   LASPH = True
   LCHARG = False
   LELF = True
   LHFCALC = True
   LMIXTAU = True
   LORBIT = 11
   LREAL = Auto
   LVTOT = True
   LWAVE = False
   NBANDS = 11
   NCORE = 4
   NEDOS = 5090
   NELM = 200
   NELMIN = 5
   NSW = 0
   PREC = Accurate
   PRECFOCK = Fast
   SIGMA = 0.05

 POTCAR:    PAW_PBE Si 05Jan2001                  
 WARNING: For LVTOT=.TRUE., VASP.5.x writes the TOTAL local potential to the
     file LOCPOT. If you want only the Hartree contributions, use LVHAR=.TRUE.
     instead. 

 POTCAR:    PAW_PBE Si 05Jan2001                  
   VRHFIN =Si: s2p2                                                                                 
   LEXCH  = PE                                                                                      
   EATOM  =   103.0669 eV,    7.5752 Ry                                                             
                                                                                                    
   TITEL  = PAW_PBE Si 05Jan2001                                                                    
   LULTRA =        F    use ultrasoft PP ?                                                          
   IUNSCR =        1    unscreen: 0-lin 1-nonlin 2-no                                               
   RPACOR =    1.500    partial core radius                                                         
   POMASS =   28.085; ZVAL   =    4.000    mass and valenz                                          
   RCORE  =    1.900    outmost cutoff radius                                                       
   RWIGS  =    2.480; RWIGS  =    1.312    wigner-seitz radius (au A)                               
   ENMAX  =  245.345; ENMIN  =  184.009 eV                                                          
   ICORE  =        2    local potential                                                             
   LCOR   =        T    correct aug charges                                                         
   LPAW   =        T    paw PP                                                                      
   EAUG   =  322.069                                                                                
   DEXC   =    0.000                                                                                
   RMAX   =    1.950    core radius for proj-oper                                                   
   RAUG   =    1.300    factor for augmentation sphere                                              
   RDEP   =    1.993    radius for radial grids                                                     
   RDEPT  =    1.837    core radius for aug-charge                                                  
                                                                                                    
   Atomic configuration                                                                             
    6 entries                                                                                       
     n  l   j            E        occ.                                                              
     1  0  0.50     -1785.8828   2.0000                                                             
     2  0  0.50      -139.4969   2.0000                                                             
     2  1  1.50       -95.5546   6.0000                                                             
     3  0  0.50       -10.8127   2.0000                                                             
     3  1  0.50        -4.0811   2.0000                                                             
     3  2  1.50        -4.0817   0.0000                                                             
   Description                                                                                      
     l       E           TYP  RCUT    TYP  RCUT                                                     
     0    -10.8127223     23  1.900                                                                 
     0     -7.6451159     23  1.900                                                                 
     1     -4.0811372     23  1.900                                                                 
     1      2.4879257     23  1.900                                                                 
     2     -4.0817478      7  1.900                                                                 
  local pseudopotential read in
  partial core-charges read in
  partial kinetic energy density read in
  atomic valenz-charges read in
  non local Contribution for L=           0  read in
    real space projection operators read in
  non local Contribution for L=           0  read in
    real space projection operators read in
  non local Contribution for L=           1  read in
    real space projection operators read in
  non local Contribution for L=           1  read in
    real space projection operators read in
    PAW grid and wavefunctions read in
 
   number of l-projection  operators is LMAX  =           4
   number of lm-projection operators is LMMAX =           8
 
 -----------------------------------------------------------------------------
|                                                                             |
|               ----> ADVICE to this user running VASP <----                  |
|                                                                             |
|     You have a (more or less) 'small supercell' and for smaller cells       |
|     it is recommended to use the reciprocal-space projection scheme!        |
|     The real-space optimization is not efficient for small cells and it     |
|     is also less accurate ...                                               |
|     Therefore, set LREAL=.FALSE. in the INCAR file.                         |
|                                                                             |
 -----------------------------------------------------------------------------

 Optimization of the real space projectors (new method)

 maximal supplied QI-value         = 19.84
 optimisation between [QCUT,QGAM] = [ 13.29, 26.59] = [ 49.49,197.96] Ry 
 Optimized for a Real-space Cutoff    1.12 Angstroem

   l    n(q)    QCUT    max X(q) W(low)/X(q) W(high)/X(q)  e(spline) 
   0      9    13.294   159.560    0.23E-03    0.88E-04    0.53E-07
   0      9    13.294   115.863    0.22E-03    0.87E-04    0.52E-07
   1      8    13.294    88.339    0.81E-04    0.17E-03    0.12E-06
   1      8    13.294    48.592    0.79E-04    0.17E-03    0.12E-06
  PAW_PBE Si 05Jan2001                  :
 energy of atom  1       EATOM= -103.0669
 kinetic energy error for atom=    0.0003 (will be added to EATOM!!)
 
 
 POSCAR: Si2
  positions in direct lattice
  No initial velocities read in
 exchange correlation table for  LEXCH =        8
   RHO(1)=    0.500       N(1)  =     2000
   RHO(2)=  100.500       N(2)  =     4000
 


--------------------------------------------------------------------------------------------------------


 ion  position               nearest neighbor table
   1  0.250  0.250  0.250-   2 2.37   2 2.37   2 2.37   2 2.37
   2  0.000  0.000  0.000-   1 2.37   1 2.37   1 2.37   1 2.37
 
  LATTYP: Found a face centered cubic cell.
 ALAT       =     5.4687280757
  
  Lattice vectors:
  
 A1 = (   3.3488980000,   0.0000000000,   1.9334870000)
 A2 = (   1.1162990000,   3.1573720000,   1.9334870000)
 A3 = (   0.0000000000,   0.0000000000,   3.8669750000)


Analysis of symmetry for initial positions (statically):
=====================================================================
 Subroutine PRICEL returns:
 Original cell was already a primitive cell.
 

 Routine SETGRP: Setting up the symmetry group for a 
 face centered cubic supercell.


 Subroutine GETGRP returns: Found 48 space group operations
 (whereof 24 operations were pure point group operations)
 out of a pool of 48 trial point group operations.


The static configuration has the point symmetry T_d .
 The point group associated with its full space group is O_h .


Analysis of symmetry for dynamics (positions and initial velocities):
=====================================================================
 Subroutine PRICEL returns:
 Original cell was already a primitive cell.
 

 Routine SETGRP: Setting up the symmetry group for a 
 face centered cubic supercell.


 Subroutine GETGRP returns: Found 48 space group operations
 (whereof 24 operations were pure point group operations)
 out of a pool of 48 trial point group operations.


The dynamic configuration has the point symmetry T_d .
 The point group associated with its full space group is O_h .


 Subroutine INISYM returns: Found 48 space group operations
 (whereof 24 operations are pure point group operations),
 and found     1 'primitive' translations


----------------------------------------------------------------------------------------

                                     Primitive cell                                     

  volume of cell :      40.8883

  direct lattice vectors                    reciprocal lattice vectors
     3.348898000  0.000000000  1.933487000     0.298605691 -0.105573000  0.000000000
     1.116299000  3.157372000  1.933487000     0.000000000  0.316719094  0.000000000
     0.000000000  0.000000000  3.866975000    -0.149302807 -0.105573020  0.258600069

  length of vectors
     3.866974243  3.866974707  3.866975000     0.316719145  0.316719094  0.316719096

  position of ions in fractional coordinates (direct lattice)
     0.250000000  0.250000000  0.250000000
     0.000000000  0.000000000  0.000000000

  ion indices of the primitive-cell ions
   primitive index   ion index
                 1           1
                 2           2

----------------------------------------------------------------------------------------

 
 
 KPOINTS: pymatgen with grid density = 607 / numbe

Automatic generation of k-mesh.
 Grid dimensions read from file:
 generate k-points for:    6    6    6

 Generating k-lattice:

  Cartesian coordinates                     Fractional coordinates (reciprocal lattice)
     0.049767615 -0.017595500  0.000000000     0.166666667 -0.000000000  0.000000000
     0.000000000  0.052786516  0.000000000     0.000000000  0.166666667  0.000000000
    -0.024883801 -0.017595503  0.043100011     0.000000000  0.000000000  0.166666667

  Length of vectors
     0.052786524  0.052786516  0.052786516

  Shift w.r.t. Gamma in fractional coordinates (k-lattice)
     0.000000000  0.000000000  0.000000000

 TETIRR: Found     35 inequivalent tetrahedra from     1296
 
 Subroutine IBZKPT returns following result:
 ===========================================
 
 Found     16 irreducible k-points:
 
 Following reciprocal coordinates:
            Coordinates               Weight
  0.000000  0.000000  0.000000      1.000000
  0.166667  0.000000  0.000000      8.000000
  0.333333  0.000000  0.000000      8.000000
  0.500000  0.000000  0.000000      4.000000
  0.166667  0.166667  0.000000      6.000000
  0.333333  0.166667  0.000000     24.000000
  0.500000  0.166667  0.000000     24.000000
 -0.333333  0.166667  0.000000     24.000000
 -0.166667  0.166667  0.000000     12.000000
  0.333333  0.333333  0.000000      6.000000
  0.500000  0.333333  0.000000     24.000000
 -0.333333  0.333333  0.000000     12.000000
  0.500000  0.500000  0.000000      3.000000
  0.500000  0.333333  0.166667     24.000000
 -0.333333  0.333333  0.166667     24.000000
 -0.333333  0.500000  0.166667     12.000000
 
 Following cartesian coordinates:
            Coordinates               Weight
  0.000000  0.000000  0.000000      1.000000
  0.049768 -0.017595  0.000000      8.000000
  0.099535 -0.035191  0.000000      8.000000
  0.149303 -0.052786  0.000000      4.000000
  0.049768  0.035191  0.000000      6.000000
  0.099535  0.017596  0.000000     24.000000
  0.149303  0.000000  0.000000     24.000000
 -0.099535  0.087978  0.000000     24.000000
 -0.049768  0.070382  0.000000     12.000000
  0.099535  0.070382  0.000000      6.000000
  0.149303  0.052787  0.000000     24.000000
 -0.099535  0.140764  0.000000     12.000000
  0.149303  0.105573  0.000000      3.000000
  0.124419  0.035191  0.043100     24.000000
 -0.124419  0.123169  0.043100     24.000000
 -0.124419  0.175955  0.043100     12.000000
 
 
 Subroutine IBZKPT_HF returns following result:
 ==============================================
 
 Found    216 k-points in 1st BZ
 the following    216 k-points will be used (e.g. in the exchange kernel)
 Following reciprocal coordinates:   # in IRBZ
  0.000000  0.000000  0.000000    0.00462963   1 t-inv F
  0.166667  0.000000  0.000000    0.00462963   2 t-inv F
  0.333333  0.000000  0.000000    0.00462963   3 t-inv F
  0.500000  0.000000  0.000000    0.00462963   4 t-inv F
  0.166667  0.166667  0.000000    0.00462963   5 t-inv F
  0.333333  0.166667  0.000000    0.00462963   6 t-inv F
  0.500000  0.166667  0.000000    0.00462963   7 t-inv F
 -0.333333  0.166667  0.000000    0.00462963   8 t-inv F
 -0.166667  0.166667  0.000000    0.00462963   9 t-inv F
  0.333333  0.333333  0.000000    0.00462963  10 t-inv F
  0.500000  0.333333  0.000000    0.00462963  11 t-inv F
 -0.333333  0.333333  0.000000    0.00462963  12 t-inv F
  0.500000  0.500000  0.000000    0.00462963  13 t-inv F
  0.500000  0.333333  0.166667    0.00462963  14 t-inv F
 -0.333333  0.333333  0.166667    0.00462963  15 t-inv F
 -0.333333  0.500000  0.166667    0.00462963  16 t-inv F
  0.000000  0.166667  0.000000    0.00462963   2 t-inv F
  0.000000  0.000000  0.166667    0.00462963   2 t-inv F
 -0.166667 -0.166667 -0.166667    0.00462963   2 t-inv F
 -0.166667 -0.000000  0.000000    0.00462963   2 t-inv F
  0.000000 -0.166667 -0.000000    0.00462963   2 t-inv F
 -0.000000  0.000000 -0.166667    0.00462963   2 t-inv F
  0.166667  0.166667  0.166667    0.00462963   2 t-inv F
  0.000000  0.333333  0.000000    0.00462963   3 t-inv F
  0.000000  0.000000  0.333333    0.00462963   3 t-inv F
 -0.333333 -0.333333 -0.333333    0.00462963   3 t-inv F
 -0.333333 -0.000000  0.000000    0.00462963   3 t-inv F
  0.000000 -0.333333 -0.000000    0.00462963   3 t-inv F
 -0.000000  0.000000 -0.333333    0.00462963   3 t-inv F
  0.333333  0.333333  0.333333    0.00462963   3 t-inv F
  0.000000  0.500000  0.000000    0.00462963   4 t-inv F
  0.000000  0.000000  0.500000    0.00462963   4 t-inv F
 -0.500000 -0.500000 -0.500000    0.00462963   4 t-inv F
  0.000000  0.166667  0.166667    0.00462963   5 t-inv F
  0.166667  0.000000  0.166667    0.00462963   5 t-inv F
 -0.166667 -0.166667  0.000000    0.00462963   5 t-inv F
 -0.166667 -0.000000 -0.166667    0.00462963   5 t-inv F
  0.000000 -0.166667 -0.166667    0.00462963   5 t-inv F
  0.000000  0.333333  0.166667    0.00462963   6 t-inv F
  0.166667  0.000000  0.333333    0.00462963   6 t-inv F
 -0.166667 -0.166667  0.166667    0.00462963   6 t-inv F
 -0.333333 -0.166667 -0.333333    0.00462963   6 t-inv F
  0.166667  0.333333  0.000000    0.00462963   6 t-inv F
  0.166667 -0.166667 -0.166667    0.00462963   6 t-inv F
 -0.333333 -0.333333 -0.166667    0.00462963   6 t-inv F
  0.000000  0.166667  0.333333    0.00462963   6 t-inv F
 -0.166667  0.166667 -0.166667    0.00462963   6 t-inv F
 -0.166667 -0.333333 -0.333333    0.00462963   6 t-inv F
  0.333333  0.000000  0.166667    0.00462963   6 t-inv F
 -0.333333 -0.166667  0.000000    0.00462963   6 t-inv F
  0.000000 -0.333333 -0.166667    0.00462963   6 t-inv F
 -0.166667  0.000000 -0.333333    0.00462963   6 t-inv F
  0.166667  0.166667 -0.166667    0.00462963   6 t-inv F
  0.333333  0.166667  0.333333    0.00462963   6 t-inv F
 -0.166667 -0.333333  0.000000    0.00462963   6 t-inv F
 -0.166667  0.166667  0.166667    0.00462963   6 t-inv F
  0.333333  0.333333  0.166667    0.00462963   6 t-inv F
  0.000000 -0.166667 -0.333333    0.00462963   6 t-inv F
  0.166667 -0.166667  0.166667    0.00462963   6 t-inv F
  0.166667  0.333333  0.333333    0.00462963   6 t-inv F
 -0.333333  0.000000 -0.166667    0.00462963   6 t-inv F
  0.000000  0.500000  0.166667    0.00462963   7 t-inv F
  0.166667  0.000000  0.500000    0.00462963   7 t-inv F
 -0.166667 -0.166667  0.333333    0.00462963   7 t-inv F
 -0.500000 -0.333333 -0.500000    0.00462963   7 t-inv F
  0.166667  0.500000  0.000000    0.00462963   7 t-inv F
  0.333333 -0.166667 -0.166667    0.00462963   7 t-inv F
 -0.500000 -0.500000 -0.333333    0.00462963   7 t-inv F
  0.000000  0.166667  0.500000    0.00462963   7 t-inv F
 -0.166667  0.333333 -0.166667    0.00462963   7 t-inv F
 -0.333333 -0.500000 -0.500000    0.00462963   7 t-inv F
  0.500000  0.000000  0.166667    0.00462963   7 t-inv F
 -0.500000 -0.166667  0.000000    0.00462963   7 t-inv F
  0.000000 -0.500000 -0.166667    0.00462963   7 t-inv F
 -0.166667  0.000000 -0.500000    0.00462963   7 t-inv F
  0.166667  0.166667 -0.333333    0.00462963   7 t-inv F
  0.500000  0.333333  0.500000    0.00462963   7 t-inv F
 -0.166667 -0.500000  0.000000    0.00462963   7 t-inv F
 -0.333333  0.166667  0.166667    0.00462963   7 t-inv F
  0.500000  0.500000  0.333333    0.00462963   7 t-inv F
  0.000000 -0.166667 -0.500000    0.00462963   7 t-inv F
  0.166667 -0.333333  0.166667    0.00462963   7 t-inv F
  0.333333  0.500000  0.500000    0.00462963   7 t-inv F
 -0.500000  0.000000 -0.166667    0.00462963   7 t-inv F
  0.000000 -0.333333  0.166667    0.00462963   8 t-inv F
  0.166667  0.000000 -0.333333    0.00462963   8 t-inv F
 -0.166667 -0.166667 -0.500000    0.00462963   8 t-inv F
  0.333333  0.500000  0.333333    0.00462963   8 t-inv F
  0.166667 -0.333333  0.000000    0.00462963   8 t-inv F
 -0.500000 -0.166667 -0.166667    0.00462963   8 t-inv F
  0.333333  0.333333  0.500000    0.00462963   8 t-inv F
  0.000000  0.166667 -0.333333    0.00462963   8 t-inv F
 -0.166667 -0.500000 -0.166667    0.00462963   8 t-inv F
  0.500000  0.333333  0.333333    0.00462963   8 t-inv F
 -0.333333  0.000000  0.166667    0.00462963   8 t-inv F
  0.333333 -0.166667  0.000000    0.00462963   8 t-inv F
  0.000000  0.333333 -0.166667    0.00462963   8 t-inv F
 -0.166667  0.000000  0.333333    0.00462963   8 t-inv F
  0.166667  0.166667  0.500000    0.00462963   8 t-inv F
 -0.333333 -0.500000 -0.333333    0.00462963   8 t-inv F
 -0.166667  0.333333  0.000000    0.00462963   8 t-inv F
  0.500000  0.166667  0.166667    0.00462963   8 t-inv F
 -0.333333 -0.333333 -0.500000    0.00462963   8 t-inv F
  0.000000 -0.166667  0.333333    0.00462963   8 t-inv F
  0.166667  0.500000  0.166667    0.00462963   8 t-inv F
 -0.500000 -0.333333 -0.333333    0.00462963   8 t-inv F
  0.333333  0.000000 -0.166667    0.00462963   8 t-inv F
  0.000000 -0.166667  0.166667    0.00462963   9 t-inv F
  0.166667  0.000000 -0.166667    0.00462963   9 t-inv F
 -0.166667 -0.166667 -0.333333    0.00462963   9 t-inv F
  0.166667  0.333333  0.166667    0.00462963   9 t-inv F
  0.166667 -0.166667  0.000000    0.00462963   9 t-inv F
 -0.333333 -0.166667 -0.166667    0.00462963   9 t-inv F
  0.166667  0.166667  0.333333    0.00462963   9 t-inv F
  0.000000  0.166667 -0.166667    0.00462963   9 t-inv F
 -0.166667 -0.333333 -0.166667    0.00462963   9 t-inv F
  0.333333  0.166667  0.166667    0.00462963   9 t-inv F
 -0.166667  0.000000  0.166667    0.00462963   9 t-inv F
  0.000000  0.333333  0.333333    0.00462963  10 t-inv F
  0.333333  0.000000  0.333333    0.00462963  10 t-inv F
 -0.333333 -0.333333  0.000000    0.00462963  10 t-inv F
 -0.333333  0.000000 -0.333333    0.00462963  10 t-inv F
  0.000000 -0.333333 -0.333333    0.00462963  10 t-inv F
  0.000000  0.500000  0.333333    0.00462963  11 t-inv F
  0.333333  0.000000  0.500000    0.00462963  11 t-inv F
 -0.333333 -0.333333  0.166667    0.00462963  11 t-inv F
 -0.500000 -0.166667 -0.500000    0.00462963  11 t-inv F
  0.333333  0.500000  0.000000    0.00462963  11 t-inv F
  0.166667 -0.333333 -0.333333    0.00462963  11 t-inv F
 -0.500000 -0.500000 -0.166667    0.00462963  11 t-inv F
  0.000000  0.333333  0.500000    0.00462963  11 t-inv F
 -0.333333  0.166667 -0.333333    0.00462963  11 t-inv F
 -0.166667 -0.500000 -0.500000    0.00462963  11 t-inv F
  0.500000  0.000000  0.333333    0.00462963  11 t-inv F
 -0.500000 -0.333333  0.000000    0.00462963  11 t-inv F
  0.000000 -0.500000 -0.333333    0.00462963  11 t-inv F
 -0.333333  0.000000 -0.500000    0.00462963  11 t-inv F
  0.333333  0.333333 -0.166667    0.00462963  11 t-inv F
  0.500000  0.166667  0.500000    0.00462963  11 t-inv F
 -0.333333 -0.500000  0.000000    0.00462963  11 t-inv F
 -0.166667  0.333333  0.333333    0.00462963  11 t-inv F
  0.500000  0.500000  0.166667    0.00462963  11 t-inv F
  0.000000 -0.333333 -0.500000    0.00462963  11 t-inv F
  0.333333 -0.166667  0.333333    0.00462963  11 t-inv F
  0.166667  0.500000  0.500000    0.00462963  11 t-inv F
 -0.500000  0.000000 -0.333333    0.00462963  11 t-inv F
  0.000000 -0.333333  0.333333    0.00462963  12 t-inv F
  0.333333  0.000000 -0.333333    0.00462963  12 t-inv F
 -0.333333 -0.333333 -0.666667    0.00462963  12 t-inv F
  0.333333  0.666667  0.333333    0.00462963  12 t-inv F
  0.333333 -0.333333  0.000000    0.00462963  12 t-inv F
 -0.666667 -0.333333 -0.333333    0.00462963  12 t-inv F
  0.333333  0.333333  0.666667    0.00462963  12 t-inv F
  0.000000  0.333333 -0.333333    0.00462963  12 t-inv F
 -0.333333 -0.666667 -0.333333    0.00462963  12 t-inv F
  0.666667  0.333333  0.333333    0.00462963  12 t-inv F
 -0.333333  0.000000  0.333333    0.00462963  12 t-inv F
  0.000000  0.500000  0.500000    0.00462963  13 t-inv F
  0.500000  0.000000  0.500000    0.00462963  13 t-inv F
  0.166667  0.500000  0.333333    0.00462963  14 t-inv F
  0.333333  0.166667  0.500000    0.00462963  14 t-inv F
 -0.333333 -0.166667  0.166667    0.00462963  14 t-inv F
 -0.500000 -0.166667 -0.333333    0.00462963  14 t-inv F
 -0.166667  0.333333  0.166667    0.00462963  14 t-inv F
  0.166667  0.333333 -0.166667    0.00462963  14 t-inv F
  0.166667 -0.166667 -0.333333    0.00462963  14 t-inv F
 -0.333333 -0.166667 -0.500000    0.00462963  14 t-inv F
 -0.333333 -0.500000 -0.166667    0.00462963  14 t-inv F
  0.166667 -0.166667  0.333333    0.00462963  14 t-inv F
  0.166667 -0.333333 -0.166667    0.00462963  14 t-inv F
 -0.166667  0.166667  0.333333    0.00462963  14 t-inv F
 -0.333333  0.166667 -0.166667    0.00462963  14 t-inv F
 -0.500000 -0.333333 -0.166667    0.00462963  14 t-inv F
 -0.166667 -0.333333 -0.500000    0.00462963  14 t-inv F
  0.333333  0.166667 -0.166667    0.00462963  14 t-inv F
 -0.166667  0.166667 -0.333333    0.00462963  14 t-inv F
  0.333333 -0.166667  0.166667    0.00462963  14 t-inv F
 -0.166667 -0.333333  0.166667    0.00462963  14 t-inv F
 -0.166667 -0.500000 -0.333333    0.00462963  14 t-inv F
  0.500000  0.166667  0.333333    0.00462963  14 t-inv F
  0.333333  0.500000  0.166667    0.00462963  14 t-inv F
  0.166667  0.333333  0.500000    0.00462963  14 t-inv F
  0.166667 -0.333333  0.333333    0.00462963  15 t-inv F
  0.333333  0.166667 -0.333333    0.00462963  15 t-inv F
 -0.333333 -0.166667 -0.666667    0.00462963  15 t-inv F
  0.333333  0.666667  0.500000    0.00462963  15 t-inv F
 -0.166667 -0.500000  0.166667    0.00462963  15 t-inv F
  0.166667 -0.500000 -0.166667    0.00462963  15 t-inv F
 -0.666667 -0.166667 -0.333333    0.00462963  15 t-inv F
  0.500000  0.666667  0.333333    0.00462963  15 t-inv F
  0.500000  0.333333  0.666667    0.00462963  15 t-inv F
  0.166667 -0.166667 -0.500000    0.00462963  15 t-inv F
 -0.666667 -0.333333 -0.166667    0.00462963  15 t-inv F
 -0.166667  0.166667 -0.500000    0.00462963  15 t-inv F
 -0.333333 -0.666667 -0.166667    0.00462963  15 t-inv F
  0.333333  0.500000  0.666667    0.00462963  15 t-inv F
  0.666667  0.500000  0.333333    0.00462963  15 t-inv F
 -0.500000  0.166667 -0.166667    0.00462963  15 t-inv F
 -0.166667 -0.666667 -0.333333    0.00462963  15 t-inv F
 -0.500000 -0.166667  0.166667    0.00462963  15 t-inv F
 -0.166667 -0.333333 -0.666667    0.00462963  15 t-inv F
  0.666667  0.333333  0.500000    0.00462963  15 t-inv F
 -0.333333  0.166667  0.333333    0.00462963  15 t-inv F
  0.333333 -0.333333  0.166667    0.00462963  15 t-inv F
  0.166667  0.333333 -0.333333    0.00462963  15 t-inv F
  0.166667 -0.333333  0.500000    0.00462963  16 t-inv F
  0.500000  0.166667 -0.333333    0.00462963  16 t-inv F
 -0.500000 -0.333333 -0.833333    0.00462963  16 t-inv F
  0.333333  0.833333  0.500000    0.00462963  16 t-inv F
 -0.166667 -0.500000  0.333333    0.00462963  16 t-inv F
  0.333333 -0.500000 -0.166667    0.00462963  16 t-inv F
  0.500000  0.833333  0.333333    0.00462963  16 t-inv F
  0.500000  0.333333  0.833333    0.00462963  16 t-inv F
 -0.833333 -0.500000 -0.333333    0.00462963  16 t-inv F
 -0.166667  0.333333 -0.500000    0.00462963  16 t-inv F
 -0.333333 -0.833333 -0.500000    0.00462963  16 t-inv F


--------------------------------------------------------------------------------------------------------




 Dimension of arrays:
   k-points           NKPTS =     16   k-points in BZ     NKDIM =    216   number of bands    NBANDS=     11
   number of dos      NEDOS =   5090   number of ions     NIONS =      2
   non local maximal  LDIM  =      4   non local SUM 2l+1 LMDIM =      8
   total plane-waves  NPLWV =  46656
   max r-space proj   IRMAX =   6824   max aug-charges    IRDMAX=  38346
   dimension x,y,z NGX =    36 NGY =   36 NGZ =   36
   dimension x,y,z NGXF=    72 NGYF=   72 NGZF=   72
   support grid    NGXF=    72 NGYF=   72 NGZF=   72
   ions per type =               2
   NGX,Y,Z   is equivalent  to a cutoff of  15.48, 15.48, 15.48 a.u.
   NGXF,Y,Z  is equivalent  to a cutoff of  30.95, 30.95, 30.95 a.u.

 SYSTEM =  unknown system                          
 POSCAR =  Si2                                     

 Startparameter for this run:
   NWRITE =      2    write-flag & timer
   PREC   = accura    normal or accurate (medium, high low for compatibility)
   ISTART =      0    job   : 0-new  1-cont  2-samecut
   ICHARG =      2    charge: 1-file 2-atom 10-const
   ISPIN  =      1    spin polarized calculation?
   LNONCOLLINEAR =      F non collinear calculations
   LSORBIT =      F    spin-orbit coupling
   INIWAV =      1    electr: 0-lowe 1-rand  2-diag
   LASPH  =      T    aspherical Exc in radial PAW
 Electronic Relaxation 1
   ENCUT  =  680.0 eV  49.98 Ry    7.07 a.u.   8.22  8.22  8.22*2*pi/ulx,y,z
   ENINI  =  680.0     initial cutoff
   ENAUG  = 1360.0 eV  augmentation charge cutoff
   NELM   =    200;   NELMIN=  5; NELMDL= -5     # of ELM steps 
   EDIFF  = 0.1E-04   stopping-criterion for ELM
   LREAL  =      T    real-space projection
   NLSPLINE    = F    spline interpolate recip. space projectors
   LCOMPAT=      F    compatible to vasp.4.4
   GGA_COMPAT  = T    GGA compatible to vasp.4.4-vasp.4.6
   LMAXPAW     = -100 max onsite density
   LMAXMIX     =    2 max onsite mixed and CHGCAR
   VOSKOWN=      0    Vosko Wilk Nusair interpolation
   ROPT   =   -0.00025
 Ionic relaxation
   EDIFFG = -.2E-01   stopping-criterion for IOM
   NSW    =      0    number of steps for IOM
   NBLOCK =      1;   KBLOCK =      1    inner block; outer block 
   IBRION =     -1    ionic relax: 0-MD 1-quasi-New 2-CG
   NFREE  =      1    steps in history (QN), initial steepest desc. (CG)
   ISIF   =      3    stress and relaxation
   IWAVPR =     10    prediction:  0-non 1-charg 2-wave 3-comb
   ISYM   =      3    0-nonsym 1-usesym 2-fastsym
   LCORR  =      T    Harris-Foulkes like correction to forces

   POTIM  = 0.5000    time-step for ionic-motion
   TEIN   =    0.0    initial temperature
   TEBEG  =    0.0;   TEEND  =   0.0 temperature during run
   SMASS  =  -3.00    Nose mass-parameter (am)
   estimated Nose-frequenzy (Omega)   =  0.10E-29 period in steps = 0.13E+47 mass=  -0.342E-27a.u.
   SCALEE = 1.0000    scale energy and forces
   NPACO  =    256;   APACO  = 16.0  distance and # of slots for P.C.
   PSTRESS=    0.0 pullay stress

  Mass of Ions in am
   POMASS =  28.09
  Ionic Valenz
   ZVAL   =   4.00
  Atomic Wigner-Seitz radii
   RWIGS  =  -1.00
  virtual crystal weights 
   VCA    =   1.00
   NELECT =       8.0000    total number of electrons
   NUPDOWN=      -1.0000    fix difference up-down

 DOS related values:
   EMIN   =  10.00;   EMAX   =-10.00  energy-range for DOS
   EFERMI =   0.00
   ISMEAR =    -5;   SIGMA  =   0.05  broadening in eV -4-tet -1-fermi 0-gaus

 Electronic relaxation 2 (details)
   IALGO  =     58    algorithm
   LDIAG  =      T    sub-space diagonalisation (order eigenvalues)
   LSUBROT=      F    optimize rotation matrix (better conditioning)
   TURBO    =      0    0=normal 1=particle mesh
   IRESTART =      0    0=no restart 2=restart with 2 vectors
   NREBOOT  =      0    no. of reboots
   NMIN     =      0    reboot dimension
   EREF     =   0.00    reference energy to select bands
   IMIX   =      4    mixing-type and parameters
     AMIX     =   0.40;   BMIX     =  1.00
     AMIX_MAG =   1.60;   BMIX_MAG =  1.00
     AMIN     =   0.10
     WC   =   100.;   INIMIX=   1;  MIXPRE=   1;  MAXMIX= -45

 Intra band minimization:
   WEIMIN = 0.0000     energy-eigenvalue tresh-hold
   EBREAK =  0.23E-06  absolut break condition
   DEPER  =   0.30     relativ break condition  

   TIME   =   0.40     timestep for ELM

  volume/ion in A,a.u.               =      20.44       137.96
  Fermi-wavevector in a.u.,A,eV,Ry     =   0.950397  1.795990 12.289528  0.903255
  Thomas-Fermi vector in A             =   2.078770
 
 Write flags
   LWAVE        =      F    write WAVECAR
   LDOWNSAMPLE  =      F    k-point downsampling of WAVECAR
   LCHARG       =      F    write CHGCAR
   LVTOT        =      T    write LOCPOT, total local potential
   LVHAR        =      F    write LOCPOT, Hartree potential only
   LELF         =      T    write electronic localiz. function (ELF)
   LORBIT       =     11    0 simple, 1 ext, 2 COOP (PROOUT), +10 PAW based schemes


 Dipole corrections
   LMONO  =      F    monopole corrections only (constant potential shift)
   LDIPOL =      F    correct potential (dipole corrections)
   IDIPOL =      0    1-x, 2-y, 3-z, 4-all directions 
   EPSILON=  1.0000000 bulk dielectric constant

 Exchange correlation treatment:
   GGA     =    PE    GGA type
   LEXCH   =     8    internal setting for exchange type
   VOSKOWN=      0    Vosko Wilk Nusair interpolation
   EXXOEP  =     0    0=HF, 1=EXX-LHF (local Hartree Fock) 2=EXX OEP
   LHFCALC =     T    Hartree Fock is set to
   LSYMGRAD=     F    symmetrize gradient (conserves proper symmetry)
   PRECFOCK=fast      Normal, Fast or Accurate (Low or Medium for compatibility)
   LRHFCALC=     F    long range Hartree Fock
   LRSCOR  =     F    long range correlation only (use DFT for short range part)
   LTHOMAS =     F    Thomas Fermi screening in HF
   LMODELHF=     F    short range full HF, long range fraction AEXX
   LFOCKACE=     T    use Adeptively-Compressed-Exchange operator
   ENCUT4O =  -1.0   cutoff for four orbital integrals eV
   LMAXFOCK=     4    L truncation for augmentation on plane wave grid
   LMAXFOCKAE=  -1    L truncation for all-electron charge restoration on plane wave grid
   NMAXFOCKAE=   1    number of basis functions for all-electron charge restoration
   LFOCKAEDFT=     F  apply the AE augmentation even for DFT
   NKREDX  =     1    reduce k-point grid by
   NKREDY  =     1    reduce k-point grid by
   NKREDZ  =     1    reduce k-point grid by
   SHIFTRED=     F    shift reduced grid of Gamma
   HFKIDENT=     F    idential grid for each k-point
   ODDONLY =     F    use only odd q-grid points
   EVENONLY=     F    use only even q-grid points
   HFALPHA =   -1.0000 decay constant for conv. correction
   MCALPHA =    0.0000 extent of test-charge in conv. correction in multipole expansion
   AEXX    =    0.2500 exact exchange contribution
   HFSCREEN=    0.2000 screening length (either q_TF or 0.3 A-1)
   HFSCREENC=   0.2000 screening length for correlation (either q_TF or 0.3 A-1)
   HFRCUT  =    0.0000 spherical cutoff for potential kernel
   ALDAX   =    0.7500 LDA exchange part
   AGGAX   =    0.7500 GGA exchange part
   ALDAC   =    1.0000 LDA correlation
   AGGAC   =    1.0000 GGA correlation
   ENCUTFOCK=  -1.0 apply spherical cutoff to Coloumb kernel
   NBANDSGWLOW=     1    first orbital included in HF term
   NBLOCK_FOCK=    64    blocking factor in FOCK_ACC
 Linear response parameters
   LEPSILON=     F    determine dielectric tensor
   LRPA    =     F    only Hartree local field effects (RPA)
   LNABLA  =     F    use nabla operator in PAW spheres
   LVEL    =     F    velocity operator in full k-point grid
   LINTERFAST=   F  fast interpolation
   KINTER  =     0    interpolate to denser k-point grid
   CSHIFT  =0.1000    complex shift for real part using Kramers Kronig
   OMEGAMAX=  -1.0    maximum frequency
   DEG_THRESHOLD= 0.2000000E-02 threshold for treating states as degnerate
   RTIME   =   -0.100 relaxation time in fs
  (WPLASMAI=    0.000 imaginary part of plasma frequency in eV, 0.658/RTIME)
   DFIELD  = 0.0000000 0.0000000 0.0000000 field for delta impulse in time
 
 Orbital magnetization related:
   ORBITALMAG=     F  switch on orbital magnetization
   LCHIMAG   =     F  perturbation theory with respect to B field
   DQ        =  0.001000  dq finite difference perturbation B field
   LLRAUG    =     F  two centre corrections for induced B field



--------------------------------------------------------------------------------------------------------


 Static calculation
 charge density and potential will be updated during run
 non-spin polarized calculation
 Conjugate gradient for all bands (Freysoldt, et al. PRB 79, 241103 (2009))
 preconditioned conjugated gradient                                        
 perform sub-space diagonalisation
    before iterative eigenvector-optimisation
 modified Broyden-mixing scheme, WC =      100.0
 initial mixing is a Kerker type mixing with AMIX =  0.4000 and BMIX =      1.0000
 Hartree-type preconditioning will be used
 using additional bands            7
 real space projection scheme for non local part
 use partial core corrections
 no Harris-corrections to forces 
 use gradient corrections 
 use of overlap-Matrix (Vanderbilt PP)
 Fermi weights with tetrahedron method with Bloechl corrections


--------------------------------------------------------------------------------------------------------


  energy-cutoff  :      680.00
  volume of cell :       40.89
      direct lattice vectors                 reciprocal lattice vectors
     3.348898000  0.000000000  1.933487000     0.298605691 -0.105573000  0.000000000
     1.116299000  3.157372000  1.933487000     0.000000000  0.316719094  0.000000000
     0.000000000  0.000000000  3.866975000    -0.149302807 -0.105573020  0.258600069

  length of vectors
     3.866974243  3.866974707  3.866975000     0.316719145  0.316719094  0.316719096


 
 k-points in units of 2pi/SCALE and weight: pymatgen with grid density = 607 / numbe
   0.00000000  0.00000000  0.00000000       0.005
   0.04976762 -0.01759550  0.00000000       0.037
   0.09953523 -0.03519100  0.00000000       0.037
   0.14930285 -0.05278650  0.00000000       0.019
   0.04976762  0.03519102  0.00000000       0.028
   0.09953523  0.01759552  0.00000000       0.111
   0.14930285  0.00000002  0.00000000       0.111
  -0.09953523  0.08797752  0.00000000       0.111
  -0.04976762  0.07038202  0.00000000       0.056
   0.09953523  0.07038203  0.00000000       0.028
   0.14930285  0.05278653  0.00000000       0.111
  -0.09953523  0.14076403  0.00000000       0.056
   0.14930285  0.10557305  0.00000000       0.014
   0.12441904  0.03519103  0.04310001       0.111
  -0.12441903  0.12316853  0.04310001       0.111
  -0.12441903  0.17595504  0.04310001       0.056
 
 k-points in reciprocal lattice and weights: pymatgen with grid density = 607 / numbe
   0.00000000  0.00000000  0.00000000       0.005
   0.16666667  0.00000000  0.00000000       0.037
   0.33333333  0.00000000  0.00000000       0.037
   0.50000000  0.00000000  0.00000000       0.019
   0.16666667  0.16666667  0.00000000       0.028
   0.33333333  0.16666667  0.00000000       0.111
   0.50000000  0.16666667  0.00000000       0.111
  -0.33333333  0.16666667  0.00000000       0.111
  -0.16666667  0.16666667  0.00000000       0.056
   0.33333333  0.33333333  0.00000000       0.028
   0.50000000  0.33333333  0.00000000       0.111
  -0.33333333  0.33333333  0.00000000       0.056
   0.50000000  0.50000000  0.00000000       0.014
   0.50000000  0.33333333  0.16666667       0.111
  -0.33333333  0.33333333  0.16666667       0.111
  -0.33333333  0.50000000  0.16666667       0.056
 
 position of ions in fractional coordinates (direct lattice) 
   0.25000000  0.25000000  0.25000000
   0.00000000  0.00000000  0.00000000
 
 position of ions in cartesian coordinates  (Angst):
   1.11629925  0.78934300  1.93348725
   0.00000000  0.00000000  0.00000000
 


--------------------------------------------------------------------------------------------------------


 k-point   1 :   0.0000 0.0000 0.0000  plane waves:    1639
 k-point   2 :   0.1667 0.0000 0.0000  plane waves:    1642
 k-point   3 :   0.3333 0.0000 0.0000  plane waves:    1634
 k-point   4 :   0.5000 0.0000 0.0000  plane waves:    1676
 k-point   5 :   0.1667 0.1667 0.0000  plane waves:    1647
 k-point   6 :   0.3333 0.1667 0.0000  plane waves:    1651
 k-point   7 :   0.5000 0.1667 0.0000  plane waves:    1641
 k-point   8 :  -0.3333 0.1667 0.0000  plane waves:    1644
 k-point   9 :  -0.1667 0.1667 0.0000  plane waves:    1636
 k-point  10 :   0.3333 0.3333 0.0000  plane waves:    1644
 k-point  11 :   0.5000 0.3333 0.0000  plane waves:    1646
 k-point  12 :  -0.3333 0.3333 0.0000  plane waves:    1652
 k-point  13 :   0.5000 0.5000 0.0000  plane waves:    1660
 k-point  14 :   0.5000 0.3333 0.1667  plane waves:    1646
 k-point  15 :  -0.3333 0.3333 0.1667  plane waves:    1652
 k-point  16 :  -0.3333 0.5000 0.1667  plane waves:    1646

 maximum and minimum number of plane-waves per node :       428      393

 maximum number of plane-waves:      1676
 maximum index in each direction: 
   IXMAX=    8   IYMAX=    8   IZMAX=    8
   IXMIN=   -8   IYMIN=   -8   IZMIN=   -8


 real space projection operators:
  total allocation   :        825.38 KBytes
  max/ min on nodes  :        207.81        204.88


 parallel 3D FFT for wavefunctions:
    minimum data exchange during FFTs selected (reduces bandwidth)
 parallel 3D FFT for charge:
    minimum data exchange during FFTs selected (reduces bandwidth)


 FFT grid for exact exchange (Hartree Fock) 
  NGX = 20; NGY = 20; NGZ = 20

 
 Radii for the augmentation spheres in the non-local exchange
 for species   1 augmentation radius   1.335 (default was   0.989)
       energy cutoff for augmentation   2720.0

 real space projection operators:
  total allocation   :        275.77 KBytes
  max/ min on nodes  :         70.24         67.64

 Maximum index for augmentation-charges in exchange          493
  SETUP_FOCK is finished

 total amount of memory used by VASP MPI-rank0    43165. kBytes
=======================================================================

   base      :      30000. kBytes
   nonlr-proj:        635. kBytes
   fftplans  :       3674. kBytes
   grid      :       5033. kBytes
   one-center:          3. kBytes
   HF        :          4. kBytes
   wavefun   :       3816. kBytes
 
     INWAV:  cpu time    0.0000: real time    0.0000
 Broyden mixing: mesh for mixing (old mesh)
   NGX = 17   NGY = 17   NGZ = 17
  (NGX  = 72   NGY  = 72   NGZ  = 72)
  gives a total of   4913 points

 initial charge density was supplied:
 charge density of overlapping atoms calculated
 number of electron       8.0000000 magnetization 
 keeping initial charge density in first step


--------------------------------------------------------------------------------------------------------


 Maximum index for non-local projection operator         1667
 BZINTS: Fermi energy:   28.501961;    8.000000 electrons
         Band energy: 0.111454E+03;  BLOECHL correction:  -47.418157
 Maximum index for augmentation-charges         9303 (set IRDMAX)


--------------------------------------------------------------------------------------------------------


 First call to EWALD:  gamma=   0.514
 Maximum number of real-space cells 3x 3x 3
 Maximum number of reciprocal cells 3x 3x 3

    FEWALD:  cpu time    0.0010: real time    0.0010
 -----------------------------------------------------------------------------
|                                                                             |
|           W    W    AA    RRRRR   N    N  II  N    N   GGGG   !!!           |
|           W    W   A  A   R    R  NN   N  II  NN   N  G    G  !!!           |
|           W    W  A    A  R    R  N N  N  II  N N  N  G       !!!           |
|           W WW W  AAAAAA  RRRRR   N  N N  II  N  N N  G  GGG   !            |
|           WW  WW  A    A  R   R   N   NN  II  N   NN  G    G                |
|           W    W  A    A  R    R  N    N  II  N    N   GGGG   !!!           |
|                                                                             |
|     ALGO=A and IALGO=5X tend to fail with the tetrahedron method (e.g.      |
|     Bloechl's method, ISMEAR=-5, is not variational). Please switch to      |
|     IMSEAR=0-n, except for DOS calculations. For DOS calculations use       |
|     IALGO=53 after pre-converging with ISMEAR>=0.                           |
|     I HOPE YOU KNOW WHAT YOU ARE DOING!                                     |
|                                                                             |
 -----------------------------------------------------------------------------



--------------------------------------- Iteration      1(   1)  ---------------------------------------


    POTLOK:  cpu time    0.0426: real time    0.0428
    SETDIJ:  cpu time    0.0969: real time    0.0986
 BZINTS: Fermi energy:    9.217884;    8.000000 electrons
         Band energy: 0.170604E+02;  BLOECHL correction:   -0.324865
    TRIAL :  cpu time    0.2879: real time    0.2892
 BZINTS: Fermi energy:    9.217884;    8.000000 electrons
         Band energy: 0.170604E+02;  BLOECHL correction:   -0.324865
    CORREC:  cpu time    0.0010: real time    0.0010
    --------------------------------------------
      LOOP:  cpu time    0.4299: real time    0.4330

 eigenvalue-minimisations  :   352
 total energy-change (2. order) :-0.2479832E+03  (-0.4659135E+03)
 number of electron       8.0000000 magnetization 
 augmentation part        8.0000000 magnetization 

 Free energy of the ion-electron system (eV)
  ---------------------------------------------------
  alpha Z        PSCENC =         3.29317992
  Ewald energy   TEWEN  =      -226.94489173
  -Hartree energ DENC   =       -11.32339116
  -exchange      EXHF   =         0.00000000
  -V(xc)+E(xc)   XCENC  =       -18.68518031
  PAW double counting   =       176.24759923     -391.62992928
  entropy T*S    EENTRO =         0.00000000
  eigenvalues    EBANDS =        17.06038730
  atomic energy  EATOM  =       203.99906502
  ---------------------------------------------------
  free energy    TOTEN  =      -247.98316102 eV

  energy without entropy =     -247.98316102  energy(sigma->0) =     -247.98316102
  exchange ACFDT corr.  =         0.00000000  see jH, gK, PRB 81, 115126


--------------------------------------------------------------------------------------------------------




--------------------------------------- Iteration      1(   2)  ---------------------------------------


 BZINTS: Fermi energy:    5.127534;    8.000000 electrons
         Band energy:-0.174498E+01;  BLOECHL correction:    0.000000
    TRIAL :  cpu time    0.3742: real time    0.3750
 BZINTS: Fermi energy:    5.127534;    8.000000 electrons
         Band energy:-0.174498E+01;  BLOECHL correction:    0.000000
    CORREC:  cpu time    0.0007: real time    0.0007
    --------------------------------------------
      LOOP:  cpu time    0.3754: real time    0.3762

 eigenvalue-minimisations  :   475
 total energy-change (2. order) :-0.1880536E+02  (-0.1812040E+02)
 number of electron       8.0000000 magnetization 
 augmentation part        8.0000000 magnetization 

 Free energy of the ion-electron system (eV)
  ---------------------------------------------------
  alpha Z        PSCENC =         3.29317992
  Ewald energy   TEWEN  =      -226.94489173
  -Hartree energ DENC   =       -11.32339116
  -exchange      EXHF   =         0.00000000
  -V(xc)+E(xc)   XCENC  =       -18.68518031
  PAW double counting   =       176.24759923     -391.62992928
  entropy T*S    EENTRO =         0.00000000
  eigenvalues    EBANDS =        -1.74497656
  atomic energy  EATOM  =       203.99906502
  ---------------------------------------------------
  free energy    TOTEN  =      -266.78852488 eV

  energy without entropy =     -266.78852488  energy(sigma->0) =     -266.78852488
  exchange ACFDT corr.  =         0.00000000  see jH, gK, PRB 81, 115126


--------------------------------------------------------------------------------------------------------




--------------------------------------- Iteration      1(   3)  ---------------------------------------


 BZINTS: Fermi energy:    4.602863;    8.000000 electrons
         Band energy:-0.241997E+01;  BLOECHL correction:   -0.000000
    TRIAL :  cpu time    0.3527: real time    0.3533
 BZINTS: Fermi energy:    4.602863;    8.000000 electrons
         Band energy:-0.241997E+01;  BLOECHL correction:   -0.000000
    CORREC:  cpu time    0.0007: real time    0.0007
    --------------------------------------------
      LOOP:  cpu time    0.3537: real time    0.3544

 eigenvalue-minimisations  :   432
 total energy-change (2. order) :-0.6749957E+00  (-0.6730700E+00)
 number of electron       8.0000000 magnetization 
 augmentation part        8.0000000 magnetization 

 Free energy of the ion-electron system (eV)
  ---------------------------------------------------
  alpha Z        PSCENC =         3.29317992
  Ewald energy   TEWEN  =      -226.94489173
  -Hartree energ DENC   =       -11.32339116
  -exchange      EXHF   =         0.00000000
  -V(xc)+E(xc)   XCENC  =       -18.68518031
  PAW double counting   =       176.24759923     -391.62992928
  entropy T*S    EENTRO =         0.00000000
  eigenvalues    EBANDS =        -2.41997221
  atomic energy  EATOM  =       203.99906502
  ---------------------------------------------------
  free energy    TOTEN  =      -267.46352053 eV

  energy without entropy =     -267.46352053  energy(sigma->0) =     -267.46352053
  exchange ACFDT corr.  =         0.00000000  see jH, gK, PRB 81, 115126


--------------------------------------------------------------------------------------------------------




--------------------------------------- Iteration      1(   4)  ---------------------------------------


 BZINTS: Fermi energy:    4.598004;    8.000000 electrons
         Band energy:-0.242562E+01;  BLOECHL correction:   -0.000000
    TRIAL :  cpu time    0.3763: real time    0.3767
 BZINTS: Fermi energy:    4.598004;    8.000000 electrons
         Band energy:-0.242562E+01;  BLOECHL correction:   -0.000000
    CORREC:  cpu time    0.0007: real time    0.0007
    --------------------------------------------
      LOOP:  cpu time    0.3773: real time    0.3777

 eigenvalue-minimisations  :   444
 total energy-change (2. order) :-0.5651701E-02  (-0.5650753E-02)
 number of electron       8.0000000 magnetization 
 augmentation part        8.0000000 magnetization 

 Free energy of the ion-electron system (eV)
  ---------------------------------------------------
  alpha Z        PSCENC =         3.29317992
  Ewald energy   TEWEN  =      -226.94489173
  -Hartree energ DENC   =       -11.32339116
  -exchange      EXHF   =         0.00000000
  -V(xc)+E(xc)   XCENC  =       -18.68518031
  PAW double counting   =       176.24759923     -391.62992928
  entropy T*S    EENTRO =         0.00000000
  eigenvalues    EBANDS =        -2.42562391
  atomic energy  EATOM  =       203.99906502
  ---------------------------------------------------
  free energy    TOTEN  =      -267.46917223 eV

  energy without entropy =     -267.46917223  energy(sigma->0) =     -267.46917223
  exchange ACFDT corr.  =         0.00000000  see jH, gK, PRB 81, 115126


--------------------------------------------------------------------------------------------------------




--------------------------------------- Iteration      1(   5)  ---------------------------------------


    POTLOK:  cpu time    0.1116: real time    0.1117
    SETDIJ:  cpu time    0.1461: real time    0.1461
 BZINTS: Fermi energy:    4.572298;    8.000000 electrons
         Band energy:-0.622486E+01;  BLOECHL correction:   -0.000000
    TRIAL :  cpu time   20.1988: real time   20.2446
 BZINTS: Fermi energy:    4.572298;    8.000000 electrons
         Band energy:-0.622486E+01;  BLOECHL correction:   -0.000000
    CORREC:  cpu time    0.0007: real time    0.0007
    CHARGE:  cpu time    0.1306: real time    0.1308
    --------------------------------------------
      LOOP:  cpu time   20.5883: real time   20.6344

 eigenvalue-minimisations  :   385
 total energy-change (2. order) : 0.2545508E+03  (-0.2003341E+00)
 number of electron       8.0000000 magnetization 
 augmentation part       -0.4482696 magnetization 

 Free energy of the ion-electron system (eV)
  ---------------------------------------------------
  alpha Z        PSCENC =         3.29317992
  Ewald energy   TEWEN  =      -226.94489173
  -Hartree energ DENC   =       -11.32339116
  -exchange      EXHF   =        11.40362869
  -V(xc)+E(xc)   XCENC  =       -14.94384288
  PAW double counting   =       171.63954155     -143.81684058
  entropy T*S    EENTRO =         0.00000000
  eigenvalues    EBANDS =        -6.22485639
  atomic energy  EATOM  =       203.99906502
  ---------------------------------------------------
  free energy    TOTEN  =       -12.91840758 eV

  energy without entropy =      -12.91840758  energy(sigma->0) =      -12.91840758
  exchange ACFDT corr.  =         0.00000000  see jH, gK, PRB 81, 115126


--------------------------------------------------------------------------------------------------------




--------------------------------------- Iteration      1(   6)  ---------------------------------------


    POTLOK:  cpu time    0.1122: real time    0.1122
    SETDIJ:  cpu time    0.1601: real time    0.1602
    TRIAL :  cpu time   20.4471: real time   20.5101
 BZINTS: Fermi energy:    4.716925;    8.000000 electrons
         Band energy:-0.530083E+01;  BLOECHL correction:    0.000000
 BZINTS: Fermi energy:    4.835016;    8.000000 electrons
         Band energy:-0.454454E+01;  BLOECHL correction:    0.000000
    CORREC:  cpu time   20.1070: real time   20.1655
    CHARGE:  cpu time    0.1280: real time    0.1281
    --------------------------------------------
      LOOP:  cpu time   40.9549: real time   41.0765

 eigenvalue-minimisations  :     0
 total energy-change (2. order) : 0.4741909E+00  (-0.9215891E-01)
 number of electron       8.0000000 magnetization 
 augmentation part       -0.4334973 magnetization 

 Free energy of the ion-electron system (eV)
  ---------------------------------------------------
  alpha Z        PSCENC =         3.29317992
  Ewald energy   TEWEN  =      -226.94489173
  -Hartree energ DENC   =       -17.08012532
  -exchange      EXHF   =        11.45024754
  -V(xc)+E(xc)   XCENC  =       -14.31306059
  PAW double counting   =      1552.57840512    -1524.98808737
  entropy T*S    EENTRO =         0.00000000
  eigenvalues    EBANDS =        -0.43894927
  atomic energy  EATOM  =       203.99906502
  ---------------------------------------------------
  free energy    TOTEN  =       -12.44421669 eV

  energy without entropy =      -12.44421669  energy(sigma->0) =      -12.44421669
  exchange ACFDT corr.  =         0.00000000  see jH, gK, PRB 81, 115126


--------------------------------------------------------------------------------------------------------




--------------------------------------- Iteration      1(   7)  ---------------------------------------


    POTLOK:  cpu time    0.1097: real time    0.1097
    SETDIJ:  cpu time    0.1574: real time    0.1575
    TRIAL :  cpu time   22.7901: real time   23.0698
 BZINTS: Fermi energy:    4.929589;    8.000000 electrons
         Band energy:-0.395598E+01;  BLOECHL correction:    0.000000
 BZINTS: Fermi energy:    5.143345;    8.000000 electrons
         Band energy:-0.263417E+01;  BLOECHL correction:    0.000000
    CORREC:  cpu time   26.7837: real time   27.1277
    CHARGE:  cpu time    0.1364: real time    0.1367
    --------------------------------------------
      LOOP:  cpu time   49.9779: real time   50.6019

 eigenvalue-minimisations  :     0
 total energy-change (2. order) :-0.9198642E-01  (-0.2152455E-01)
 number of electron       8.0000000 magnetization 
 augmentation part       -0.4334393 magnetization 

 Free energy of the ion-electron system (eV)
  ---------------------------------------------------
  alpha Z        PSCENC =         3.29317992
  Ewald energy   TEWEN  =      -226.94489173
  -Hartree energ DENC   =       -15.70367130
  -exchange      EXHF   =        11.31156289
  -V(xc)+E(xc)   XCENC  =       -14.40544078
  PAW double counting   =      1650.10464629    -1622.46114931
  entropy T*S    EENTRO =         0.00000000
  eigenvalues    EBANDS =        -1.72950409
  atomic energy  EATOM  =       203.99906502
  ---------------------------------------------------
  free energy    TOTEN  =       -12.53620310 eV

  energy without entropy =      -12.53620310  energy(sigma->0) =      -12.53620310
  exchange ACFDT corr.  =        -0.00000000  see jH, gK, PRB 81, 115126


--------------------------------------------------------------------------------------------------------




--------------------------------------- Iteration      1(   8)  ---------------------------------------


    POTLOK:  cpu time    0.1143: real time    0.1147
    SETDIJ:  cpu time    0.1627: real time    0.1627
    TRIAL :  cpu time   25.1450: real time   26.0525
 BZINTS: Fermi energy:    5.203188;    8.000000 electrons
         Band energy:-0.228677E+01;  BLOECHL correction:    0.000000
 BZINTS: Fermi energy:    5.271178;    8.000000 electrons
         Band energy:-0.188747E+01;  BLOECHL correction:   -0.000000
    CORREC:  cpu time   28.4456: real time   29.0973
    CHARGE:  cpu time    0.1434: real time    0.1437
    --------------------------------------------
      LOOP:  cpu time   54.0116: real time   55.5770

 eigenvalue-minimisations  :     0
 total energy-change (2. order) :-0.2142302E-01  (-0.5609114E-02)
 number of electron       8.0000000 magnetization 
 augmentation part       -0.4332728 magnetization 

 Free energy of the ion-electron system (eV)
  ---------------------------------------------------
  alpha Z        PSCENC =         3.29317992
  Ewald energy   TEWEN  =      -226.94489173
  -Hartree energ DENC   =       -15.37567273
  -exchange      EXHF   =        11.25645713
  -V(xc)+E(xc)   XCENC  =       -14.43179965
  PAW double counting   =      1651.71692060    -1624.06770959
  entropy T*S    EENTRO =         0.00000000
  eigenvalues    EBANDS =        -2.00317508
  atomic energy  EATOM  =       203.99906502
  ---------------------------------------------------
  free energy    TOTEN  =       -12.55762612 eV

  energy without entropy =      -12.55762612  energy(sigma->0) =      -12.55762612
  exchange ACFDT corr.  =        -0.00000000  see jH, gK, PRB 81, 115126


--------------------------------------------------------------------------------------------------------




--------------------------------------- Iteration      1(   9)  ---------------------------------------


    POTLOK:  cpu time    0.1184: real time    0.1186
    SETDIJ:  cpu time    0.1679: real time    0.1680
    TRIAL :  cpu time   21.7144: real time   21.8516
 BZINTS: Fermi energy:    5.278071;    8.000000 electrons
         Band energy:-0.187017E+01;  BLOECHL correction:   -0.000000
 BZINTS: Fermi energy:    5.283814;    8.000000 electrons
         Band energy:-0.185673E+01;  BLOECHL correction:    0.000000
    CORREC:  cpu time   22.5599: real time   22.7014
    CHARGE:  cpu time    0.1433: real time    0.1437
    --------------------------------------------
      LOOP:  cpu time   44.7045: real time   44.9838

 eigenvalue-minimisations  :     0
 total energy-change (2. order) :-0.5605065E-02  (-0.7338632E-03)
 number of electron       8.0000000 magnetization 
 augmentation part       -0.4331171 magnetization 

 Free energy of the ion-electron system (eV)
  ---------------------------------------------------
  alpha Z        PSCENC =         3.29317992
  Ewald energy   TEWEN  =      -226.94489173
  -Hartree energ DENC   =       -15.27720902
  -exchange      EXHF   =        11.23443760
  -V(xc)+E(xc)   XCENC  =       -14.43953975
  PAW double counting   =      1640.63056730    -1612.98201209
  entropy T*S    EENTRO =         0.00000000
  eigenvalues    EBANDS =        -2.07682842
  atomic energy  EATOM  =       203.99906502
  ---------------------------------------------------
  free energy    TOTEN  =       -12.56323119 eV

  energy without entropy =      -12.56323119  energy(sigma->0) =      -12.56323119
  exchange ACFDT corr.  =         0.00000000  see jH, gK, PRB 81, 115126


--------------------------------------------------------------------------------------------------------




--------------------------------------- Iteration      1(  10)  ---------------------------------------


    POTLOK:  cpu time    0.1177: real time    0.1180
    SETDIJ:  cpu time    0.1667: real time    0.1671
    TRIAL :  cpu time   22.3857: real time   22.4982
 BZINTS: Fermi energy:    5.279043;    8.000000 electrons
         Band energy:-0.190190E+01;  BLOECHL correction:    0.000000
 BZINTS: Fermi energy:    5.275720;    8.000000 electrons
         Band energy:-0.193288E+01;  BLOECHL correction:    0.000000
    CORREC:  cpu time   23.0786: real time   23.2184
    CHARGE:  cpu time    0.1419: real time    0.1422
    --------------------------------------------
      LOOP:  cpu time   45.8912: real time   46.1444

 eigenvalue-minimisations  :     0
 total energy-change (2. order) :-0.7339934E-03  (-0.7072361E-04)
 number of electron       8.0000000 magnetization 
 augmentation part       -0.4331046 magnetization 

 Free energy of the ion-electron system (eV)
  ---------------------------------------------------
  alpha Z        PSCENC =         3.29317992
  Ewald energy   TEWEN  =      -226.94489173
  -Hartree energ DENC   =       -15.26400073
  -exchange      EXHF   =        11.23155058
  -V(xc)+E(xc)   XCENC  =       -14.44033386
  PAW double counting   =      1634.22372477    -1606.57517690
  entropy T*S    EENTRO =         0.00000000
  eigenvalues    EBANDS =        -2.08708225
  atomic energy  EATOM  =       203.99906502
  ---------------------------------------------------
  free energy    TOTEN  =       -12.56396518 eV

  energy without entropy =      -12.56396518  energy(sigma->0) =      -12.56396518
  exchange ACFDT corr.  =        -0.00000000  see jH, gK, PRB 81, 115126


--------------------------------------------------------------------------------------------------------




--------------------------------------- Iteration      1(  11)  ---------------------------------------


    POTLOK:  cpu time    0.1111: real time    0.1111
    SETDIJ:  cpu time    0.1615: real time    0.1616
    TRIAL :  cpu time   24.8964: real time   25.6474
 BZINTS: Fermi energy:    5.271107;    8.000000 electrons
         Band energy:-0.197258E+01;  BLOECHL correction:    0.000000
 BZINTS: Fermi energy:    5.267961;    8.000000 electrons
         Band energy:-0.200313E+01;  BLOECHL correction:    0.000000
    CORREC:  cpu time   25.2446: real time   26.0366
    CHARGE:  cpu time    0.1351: real time    0.1353
    --------------------------------------------
      LOOP:  cpu time   50.5493: real time   52.0926

 eigenvalue-minimisations  :     0
 total energy-change (2. order) :-0.7080708E-04  (-0.1129443E-04)
 number of electron       8.0000000 magnetization 
 augmentation part       -0.4331358 magnetization 

 Free energy of the ion-electron system (eV)
  ---------------------------------------------------
  alpha Z        PSCENC =         3.29317992
  Ewald energy   TEWEN  =      -226.94489173
  -Hartree energ DENC   =       -15.26236219
  -exchange      EXHF   =        11.23148379
  -V(xc)+E(xc)   XCENC  =       -14.44043882
  PAW double counting   =      1630.62816227    -1602.97942248
  entropy T*S    EENTRO =         0.00000000
  eigenvalues    EBANDS =        -2.08881177
  atomic energy  EATOM  =       203.99906502
  ---------------------------------------------------
  free energy    TOTEN  =       -12.56403599 eV

  energy without entropy =      -12.56403599  energy(sigma->0) =      -12.56403599
  exchange ACFDT corr.  =        -0.00000000  see jH, gK, PRB 81, 115126


--------------------------------------------------------------------------------------------------------




--------------------------------------- Iteration      1(  12)  ---------------------------------------


    POTLOK:  cpu time    0.1107: real time    0.1108
    SETDIJ:  cpu time    0.1594: real time    0.1595
    TRIAL :  cpu time   24.3146: real time   25.5228
 BZINTS: Fermi energy:    5.264190;    8.000000 electrons
         Band energy:-0.202988E+01;  BLOECHL correction:   -0.000000
 BZINTS: Fermi energy:    5.260353;    8.000000 electrons
         Band energy:-0.206203E+01;  BLOECHL correction:   -0.000000
    CORREC:  cpu time   27.5367: real time   29.0894
    CHARGE:  cpu time    0.1381: real time    0.1382
    --------------------------------------------
      LOOP:  cpu time   52.2601: real time   55.0268

 eigenvalue-minimisations  :     0
 total energy-change (2. order) :-0.1139872E-04  (-0.2962823E-05)
 number of electron       8.0000000 magnetization 
 augmentation part       -0.4331825 magnetization 

 Free energy of the ion-electron system (eV)
  ---------------------------------------------------
  alpha Z        PSCENC =         3.29317992
  Ewald energy   TEWEN  =      -226.94489173
  -Hartree energ DENC   =       -15.26364586
  -exchange      EXHF   =        11.23169375
  -V(xc)+E(xc)   XCENC  =       -14.44039232
  PAW double counting   =      1628.39616288    -1600.74737098
  entropy T*S    EENTRO =         0.00000000
  eigenvalues    EBANDS =        -2.08784805
  atomic energy  EATOM  =       203.99906502
  ---------------------------------------------------
  free energy    TOTEN  =       -12.56404739 eV

  energy without entropy =      -12.56404739  energy(sigma->0) =      -12.56404739
  exchange ACFDT corr.  =        -0.00000000  see jH, gK, PRB 81, 115126


--------------------------------------------------------------------------------------------------------




--------------------------------------- Iteration      1(  13)  ---------------------------------------


    POTLOK:  cpu time    0.1200: real time    0.1205
    SETDIJ:  cpu time    0.1625: real time    0.1627
    TRIAL :  cpu time   21.2881: real time   21.4444
 BZINTS: Fermi energy:    5.259474;    8.000000 electrons
         Band energy:-0.207391E+01;  BLOECHL correction:    0.000000
 BZINTS: Fermi energy:    5.257969;    8.000000 electrons
         Band energy:-0.208467E+01;  BLOECHL correction:    0.000000
    CORREC:  cpu time   23.8663: real time   24.1852
    EDDIAG:  cpu time   25.2703: real time   25.8942
    CHARGE:  cpu time    0.2034: real time    0.2042
    --------------------------------------------
      LOOP:  cpu time   70.9113: real time   72.0174

 eigenvalue-minimisations  :     0
 total energy-change (2. order) :-0.2877371E-05  (-0.5666745E-06)
 number of electron       8.0000000 magnetization 
 augmentation part       -0.4332054 magnetization 

 Free energy of the ion-electron system (eV)
  ---------------------------------------------------
  alpha Z        PSCENC =         3.29317992
  Ewald energy   TEWEN  =      -226.94489173
  -Hartree energ DENC   =       -15.26607428
  -exchange      EXHF   =        11.23211088
  -V(xc)+E(xc)   XCENC  =       -14.44026949
  PAW double counting   =      1627.04779351    -1599.39904992
  entropy T*S    EENTRO =         0.00000000
  eigenvalues    EBANDS =        -2.08577205
  atomic energy  EATOM  =       203.99906502
  ---------------------------------------------------
  free energy    TOTEN  =       -12.56405026 eV

  energy without entropy =      -12.56405026  energy(sigma->0) =      -12.56405026
  exchange ACFDT corr.  =         0.00000000  see jH, gK, PRB 81, 115126


--------------------------------------------------------------------------------------------------------


  average scaling for gradient   0.8518


 average (electrostatic) potential at core
  the test charge radii are     0.9892
  (the norm of the test charge is              1.0000)
       1 -79.7624       2 -79.7624
 
 
 
 E-fermi :   5.2580     XC(G=0):  -7.7712     alpha+bet :-11.7317

 Fermi energy:         5.2579688970

 k-point     1 :       0.0000    0.0000    0.0000
  band No.  band energies     occupation 
      1      -7.8848      2.00000
      2       5.2578      2.00000
      3       5.2578      2.00000
      4       5.2578      2.00000
      5       8.5896      0.00000
      6       8.5896      0.00000
      7       8.5896      0.00000
      8       9.3407      0.00000
      9      13.9834      0.00000
     10      14.0463      0.00000
     11      14.0463      0.00000

 k-point     2 :       0.1667    0.0000    0.0000
  band No.  band energies     occupation 
      1      -7.4913      2.00000
      2       2.7164      2.00000
      3       4.7935      2.00000
      4       4.7935      2.00000
      5       8.3146      0.00000
      6       9.2656      0.00000
      7       9.2656      0.00000
      8      11.5356      0.00000
      9      13.3530      0.00000
     10      13.3530      0.00000
     11      15.1984      0.00000

 k-point     3 :       0.3333    0.0000    0.0000
  band No.  band energies     occupation 
      1      -6.3844      2.00000
      2      -0.5524      2.00000
      3       4.1899      2.00000
      4       4.1899      2.00000
      5       7.6782      0.00000
      6       9.5935      0.00000
      7       9.5935      0.00000
      8      14.0604      0.00000
      9      14.2992      0.00000
     10      14.2992      0.00000
     11      15.2847      0.00000

 k-point     4 :       0.5000    0.0000    0.0000
  band No.  band energies     occupation 
      1      -5.3481      2.00000
      2      -2.3559      2.00000
      3       3.9658      2.00000
      4       3.9659      2.00000
      5       7.4370      0.00000
      6       9.4214      0.00000
      7       9.4214      0.00000
      8      13.8663      0.00000
      9      17.0186      0.00000
     10      17.0602      0.00000
     11      17.6895      0.00000

 k-point     5 :       0.1667    0.1667    0.0000
  band No.  band energies     occupation 
      1      -7.3572      2.00000
      2       3.0627      2.00000
      3       4.0133      2.00000
      4       4.0133      2.00000
      5       7.6538      0.00000
      6      10.3693      0.00000
      7      10.4518      0.00000
      8      10.4518      0.00000
      9      12.7811      0.00000
     10      14.6109      0.00000
     11      15.8815      0.00000

 k-point     6 :       0.3333    0.1667    0.0000
  band No.  band energies     occupation 
      1      -6.4677      2.00000
      2       0.4229      2.00000
      3       3.1656      2.00000
      4       3.4013      2.00000
      5       7.9068      0.00000
      6      10.1623      0.00000
      7      10.6030      0.00000
      8      11.2406      0.00000
      9      15.4475      0.00000
     10      15.4488      0.00000
     11      16.6384      0.00000

 k-point     7 :       0.5000    0.1667    0.0000
  band No.  band energies     occupation 
      1      -5.1699      2.00000
      2      -1.9673      2.00000
      3       2.3094      2.00000
      4       3.3563      2.00000
      5       8.0030      0.00000
      6      10.1672      0.00000
      7      10.7706      0.00000
      8      12.6427      0.00000
      9      15.6892      0.00000
     10      16.9219      0.00000
     11      18.1099      0.00000

 k-point     8 :      -0.3333    0.1667    0.0000
  band No.  band energies     occupation 
      1      -5.5884      2.00000
      2      -1.3088      2.00000
      3       2.0188      2.00000
      4       3.8710      2.00000
      5       8.4400      0.00000
      6      10.1622      0.00000
      7      10.3723      0.00000
      8      13.5283      0.00000
      9      13.6031      0.00000
     10      15.7235      0.00000
     11      17.7550      0.00000

 k-point     9 :      -0.1667    0.1667    0.0000
  band No.  band energies     occupation 
      1      -6.8498      2.00000
      2       1.2152      2.00000
      3       2.7313      2.00000
      4       4.6561      2.00000
      5       9.0761      0.00000
      6       9.6676      0.00000
      7       9.8413      0.00000
      8      11.8107      0.00000
      9      12.3045      0.00000
     10      15.7393      0.00000
     11      16.6983      0.00000

 k-point    10 :       0.3333    0.3333    0.0000
  band No.  band energies     occupation 
      1      -5.8053      2.00000
      2      -0.2398      2.00000
      3       2.6641      2.00000
      4       2.6641      2.00000
      5       6.6125      0.00000
      6       7.9679      0.00000
      7      13.5669      0.00000
      8      13.5669      0.00000
      9      16.1456      0.00000
     10      16.2884      0.00000
     11      19.3614      0.00000

 k-point    11 :       0.5000    0.3333    0.0000
  band No.  band energies     occupation 
      1      -4.5312      2.00000
      2      -1.9626      2.00000
      3       1.3881      2.00000
      4       2.5094      2.00000
      5       6.9757      0.00000
      6       8.7066      0.00000
      7      13.7575      0.00000
      8      13.7652      0.00000
      9      17.0426      0.00000
     10      17.1513      0.00000
     11      19.2575      0.00000

 k-point    12 :      -0.3333    0.3333    0.0000
  band No.  band energies     occupation 
      1      -4.3212      2.00000
      2      -2.1828      2.00000
      3       0.5433      2.00000
      4       2.9919      2.00000
      5       7.5117      0.00000
      6      11.9440      0.00000
      7      12.7712      0.00000
      8      13.3307      0.00000
      9      13.7054      0.00000
     10      13.9383      0.00000
     11      20.7047      0.00000

 k-point    13 :       0.5000    0.5000    0.0000
  band No.  band energies     occupation 
      1      -3.3449      2.00000
      2      -3.3449      2.00000
      3       2.1808      2.00000
      4       2.1808      2.00000
      5       6.6057      0.00000
      6       6.6057      0.00000
      7      16.5804      0.00000
      8      16.5804      0.00000
      9      17.4361      0.00000
     10      17.4362      0.00000
     11      19.3997      0.00000

 k-point    14 :       0.5000    0.3333    0.1667
  band No.  band energies     occupation 
      1      -5.3854      2.00000
      2      -0.9379      2.00000
      3       1.4608      2.00000
      4       2.8301      2.00000
      5       8.8471      0.00000
      6       9.7562      0.00000
      7      10.3361      0.00000
      8      13.3447      0.00000
      9      15.3393      0.00000
     10      16.2997      0.00000
     11      19.5145      0.00000

 k-point    15 :      -0.3333    0.3333    0.1667
  band No.  band energies     occupation 
      1      -4.3110      2.00000
      2      -2.2568      2.00000
      3       0.9753      2.00000
      4       2.3301      2.00000
      5       9.3673      0.00000
      6       9.6098      0.00000
      7      12.2849      0.00000
      8      12.7723      0.00000
      9      13.8571      0.00000
     10      17.5709      0.00000
     11      18.3861      0.00000

 k-point    16 :      -0.3333    0.5000    0.1667
  band No.  band energies     occupation 
      1      -3.2173      2.00000
      2      -3.2173      2.00000
      3       1.3751      2.00000
      4       1.3751      2.00000
      5       8.7362      0.00000
      6       8.7362      0.00000
      7      13.0125      0.00000
      8      13.0125      0.00000
      9      17.0386      0.00000
     10      17.0389      0.00000
     11      19.4261      0.00000


--------------------------------------------------------------------------------------------------------


 soft charge-density along one line, spin component           1
         0         1         2         3         4         5         6         7         8         9
 total charge-density along one line
 
 pseudopotential strength for first ion, spin component:           1
 17.877  24.944  -0.000  -0.000   0.000  -0.000  -0.000   0.000
 24.944  34.807  -0.000  -0.000   0.000  -0.000  -0.000   0.000
 -0.000  -0.000   4.079   0.000  -0.000   7.604   0.000  -0.000
 -0.000  -0.000   0.000   4.079   0.000   0.000   7.604   0.000
  0.000   0.000  -0.000   0.000   4.079  -0.000   0.000   7.604
 -0.000  -0.000   7.604   0.000  -0.000  14.185   0.000  -0.000
 -0.000  -0.000   0.000   7.604   0.000   0.000  14.185   0.000
  0.000   0.000  -0.000   0.000   7.604  -0.000   0.000  14.185
 total augmentation occupancy for first ion, spin component:           1
 10.739  -5.005   0.000   0.000  -0.000  -0.000  -0.000   0.000
 -5.005   2.382  -0.000   0.000   0.000   0.000   0.000  -0.000
  0.000  -0.000   3.841   0.000  -0.000  -1.018  -0.000   0.000
  0.000   0.000   0.000   3.841   0.000  -0.000  -1.018  -0.000
 -0.000   0.000  -0.000   0.000   3.841   0.000  -0.000  -1.018
 -0.000   0.000  -1.018  -0.000   0.000   0.275   0.000  -0.000
 -0.000   0.000  -0.000  -1.018  -0.000   0.000   0.275   0.000
  0.000  -0.000   0.000  -0.000  -1.018  -0.000   0.000   0.275


------------------------ aborting loop because EDIFF is reached ----------------------------------------





 total charge

# of ion       s       p       d       tot
------------------------------------------
    1        0.757   0.951   0.000   1.708
    2        0.757   0.951   0.000   1.708
--------------------------------------------------
tot          1.514   1.902   0.000   3.416
 
    FORLOC:  cpu time    0.0025: real time    0.0026
    FORHF :  cpu time   20.5806: real time   21.1789
    FORNL :  cpu time    0.1535: real time    0.1649
    STRESS:  cpu time    0.7796: real time    0.8694
    FORCOR:  cpu time    0.1386: real time    0.1463
    OFIELD:  cpu time    0.0003: real time    0.0003

  FORCE on cell =-STRESS in cart. coord.  units (eV):
  Direction    XX          YY          ZZ          XY          YZ          ZX
  --------------------------------------------------------------------------------------
  Alpha Z     3.29318     3.29318     3.29318
  Ewald     -75.64832   -75.64835   -75.64832    -0.00001     0.00001     0.00001
  Hartree     5.08912     5.08912     5.08912    -0.00000     0.00000     0.00000
  E(xc)     -19.52942   -19.52942   -19.52942     0.00000     0.00000     0.00000
  Local     -29.38072   -29.38072   -29.38073     0.00001     0.00000    -0.00000
  n-local    69.99757    73.27041    77.37322    -0.85523    -0.47499     0.01913
  augment   -10.67362   -10.67363   -10.67363    -0.00000    -0.00000    -0.00000
  Kinetic    52.57697    55.20311    60.53893     0.75521     0.65958    -0.53341
  Fock       -3.38223    -3.28352    -3.13188    -0.00964     0.00545    -0.00856
  -------------------------------------------------------------------------------------
  Total      -0.46227    -0.46227    -0.46227     0.00000     0.00000     0.00000
  in kB     -18.11389   -18.11390   -18.11389     0.00000     0.00000     0.00000
  external pressure =      -18.11 kB  Pullay stress =        0.00 kB


 VOLUME and BASIS-vectors are now :
 -----------------------------------------------------------------------------
  energy-cutoff  :      680.00
  volume of cell :       40.89
      direct lattice vectors                 reciprocal lattice vectors
     3.348898000  0.000000000  1.933487000     0.298605691 -0.105573000  0.000000000
     1.116299000  3.157372000  1.933487000     0.000000000  0.316719094  0.000000000
     0.000000000  0.000000000  3.866975000    -0.149302807 -0.105573020  0.258600069

  length of vectors
     3.866974243  3.866974707  3.866975000     0.316719145  0.316719094  0.316719096


 FORCES acting on ions:
    Electron-Ion                     Ewald-Force                    Non-Local-Force
 -----------------------------------------------------------------------------------------------
   0.534E-05 -.527E-05 -.611E-05   -.634E-05 0.116E-04 0.142E-04   0.308E-16 -.185E-16 0.204E-16
   -.247E-05 0.110E-04 0.159E-04   0.634E-05 -.116E-04 -.142E-04   -.284E-16 0.353E-16 -.248E-16
 -----------------------------------------------------------------------------------------------
   0.299E-05 0.604E-05 0.102E-04   0.718E-18 -.107E-15 0.148E-15   0.235E-17 0.168E-16 -.436E-17
 
 
 POSITION                                       TOTAL-FORCE (eV/Angst)
 -----------------------------------------------------------------------------------
      1.11630      0.78934      1.93349         0.000000     -0.000000     -0.000000
      0.00000      0.00000      0.00000        -0.000000      0.000000      0.000000
 -----------------------------------------------------------------------------------
    total drift:                                0.000003      0.000006      0.000010


--------------------------------------------------------------------------------------------------------



  FREE ENERGIE OF THE ION-ELECTRON SYSTEM (eV)
  ---------------------------------------------------
  free  energy   TOTEN  =       -12.56405026 eV

  energy  without entropy=      -12.56405026  energy(sigma->0) =      -12.56405026
 


--------------------------------------------------------------------------------------------------------


    POTLOK:  cpu time    0.3389: real time    0.3429


--------------------------------------------------------------------------------------------------------


     LOOP+:  cpu time  453.5941: real time  462.6210
    4ORBIT:  cpu time    0.0000: real time    0.0000



 total charge

# of ion       s       p       d       tot
------------------------------------------
    1        0.757   0.951   0.000   1.708
    2        0.757   0.951   0.000   1.708
--------------------------------------------------
tot          1.514   1.902   0.000   3.416
 
 BZINTS: Fermi energy:    5.257821;    8.000000 electrons
         Band energy:-0.208526E+01;  BLOECHL correction:    0.000000

 total amount of memory used by VASP MPI-rank0    44649. kBytes
=======================================================================

   base      :      30000. kBytes
   nonlr-proj:       1256. kBytes
   fftplans  :       3674. kBytes
   grid      :       5033. kBytes
   one-center:          3. kBytes
   HF        :          4. kBytes
   wavefun   :       3816. kBytes
   fock_wrk  :        863. kBytes
 
  
  
 General timing and accounting informations for this job:
 ========================================================
  
                  Total CPU time used (sec):      462.437
                            User time (sec):      458.478
                          System time (sec):        3.959
                         Elapsed time (sec):      471.579
  
                   Maximum memory used (kb):   153944064.
                   Average memory used (kb):          N/A
  
                          Minor page faults:        76020
                          Major page faults:           55
                 Voluntary context switches:           25
